                         Program Version 6.0.0  -   RELEASE  -
|  1> ! wb97x-v def2-tzvp def2/J RIJCOSX DEFGRID2 scfconv7 GCP(DFT/TZ) printgap
|  2> %output
|  3>     printlevel normal
|  4> end
|  5> * xyz 0 1
|  6> C -2.66916173650702 -0.5679433161943874 -0.13536363696578874
|  7> C -1.2665341844742104 -0.31080913603526167 0.4078266355659953
|  8> C -0.5435441431890032 0.7882121291229354 -0.3648362168782462
|  9> C 0.8712576365979455 1.0815346468262448 0.16718659078831186
| 10> C 1.7738374983754153 -0.051377690040681344 0.03852451092838778
| 11> C 2.508751312720087 -1.0007605756061257 -0.09187943697056894
| 12> H -3.282247889283329 0.3388452637777959 -0.08488113148225064
| 13> H -3.1810747601487566 -1.3504831304232727 0.4336907471633193
| 14> H -2.6302462701685405 -0.8861717206581963 -1.1831189301683729
| 15> H -1.3233437728257187 -0.027720188542892116 1.4670046448376237
| 16> H -0.6787492641044688 -1.2363661613687786 0.361602952613717
| 17> H -0.4796475181527979 0.5168435504550346 -1.425588902114382
| 18> H -1.1202253825826105 1.7188099841709763 -0.30457366831847005
| 19> H 0.8126526703227827 1.372418104457522 1.2237756362214451
| 20> H 1.2985900723678194 1.9359364906155563 -0.370914344774889
| 21> H 3.162632444519905 -1.8374231148361915 -0.196325621549015
| 22> *
| 23>
| 24>                          ****END OF INPUT****

CARTESIAN COORDINATES (ANGSTROEM)
---------------------------------
  C     -2.669162   -0.567943   -0.135364
  C     -1.266534   -0.310809    0.407827
  C     -0.543544    0.788212   -0.364836
  C      0.871258    1.081535    0.167187
  C      1.773837   -0.051378    0.038525
  C      2.508751   -1.000761   -0.091879
  H     -3.282248    0.338845   -0.084881
  H     -3.181075   -1.350483    0.433691
  H     -2.630246   -0.886172   -1.183119
  H     -1.323344   -0.027720    1.467005
  H     -0.678749   -1.236366    0.361603
  H     -0.479648    0.516844   -1.425589
  H     -1.120225    1.718810   -0.304574
  H      0.812653    1.372418    1.223776
  H      1.298590    1.935936   -0.370914
  H      3.162632   -1.837423   -0.196326

 Total Charge           Charge          ....    0
 Multiplicity           Mult            ....    1
 Number of Electrons    NEL             ....   46
 Basis Dimension        Dim             ....  246

ORBITAL ENERGIES
----------------

  NO   OCC          E(Eh)            E(eV)
   0   2.0000     -12.070005      -328.4415
   1   2.0000     -12.050012      -327.8975
   2   2.0000     -12.049561      -327.8852
   3   2.0000     -12.040842      -327.6480
   4   2.0000     -12.035555      -327.5041
   5   2.0000     -12.034181      -327.4667
   6   2.0000      -1.329208       -36.1696
   7   2.0000      -1.287096       -35.0237
   8   2.0000      -1.238566       -33.7031
   9   2.0000      -1.148650       -31.2564
  10   2.0000      -1.061314       -28.8798
  11   2.0000      -0.981570       -26.7099
  12   2.0000      -0.935941       -25.4682
  13   2.0000      -0.889518       -24.2050
  14   2.0000      -0.880535       -23.9606
  15   2.0000      -0.865469       -23.5506
  16   2.0000      -0.826507       -22.4904
  17   2.0000      -0.804116       -21.8811
  18   2.0000      -0.799345       -21.7513
  19   2.0000      -0.768836       -20.9211
  20   2.0000      -0.749900       -20.4058
  21   2.0000      -0.676112       -18.3979
  22   2.0000      -0.672205       -18.2916
  23   0.0000      -0.160017        -4.3543
  24   0.0000      -0.147889        -4.0243
  25   0.0000      -0.051847        -1.4108
  26   0.0000      -0.029641        -0.8066
  27   0.0000      -0.012023        -0.3272

MULLIKEN ATOMIC CHARGES
-----------------------
   0 C :   -0.332209
   1 C :   -0.178464
   2 C :   -0.169763
   3 C :   -0.207275
   4 C :   -0.092903
   5 C :   -0.163792
   6 H :    0.101948
   7 H :    0.115237
   8 H :    0.106267
   9 H :    0.083976
  10 H :    0.112098
  11 H :    0.099766
  12 H :    0.096295
  13 H :    0.126021
  14 H :    0.127725
  15 H :    0.175074
Sum of atomic charges:    0.0000000

LOEWDIN ATOMIC CHARGES
----------------------
   0 C :   -0.307577
   1 C :   -0.287280
   2 C :   -0.248717
   3 C :   -0.242563
   4 C :   -0.116194
   5 C :   -0.116375
   6 H :    0.115150
   7 H :    0.116264
   8 H :    0.116635
   9 H :    0.130787
  10 H :    0.138093
  11 H :    0.137762
  12 H :    0.134168
  13 H :    0.153455
  14 H :    0.153334
  15 H :    0.123058

  Mayer bond orders larger than 0.100000
B(  0-C ,  1-C ) :   0.9833 B(  0-C ,  6-H ) :   0.9798 B(  0-C ,  7-H ) :   0.9848
B(  0-C ,  8-H ) :   0.9816 B(  1-C ,  2-C ) :   0.9931 B(  1-C ,  9-H ) :   0.9703
B(  1-C , 10-H ) :   0.9714 B(  2-C ,  3-C ) :   0.9726 B(  2-C , 11-H ) :   0.9687
B(  2-C , 12-H ) :   0.9726 B(  3-C ,  4-C ) :   1.0514 B(  3-C , 13-H ) :   0.9868
B(  3-C , 14-H ) :   0.9660 B(  4-C ,  5-C ) :   2.8255 B(  5-C , 15-H ) :   0.9676

FINAL SINGLE POINT ENERGY      -234.599861460904

DIPOLE MOMENT
-------------

Method             : SCF
Type of density    : Electron Density
Multiplicity       :   1
Irrep              :   0
Energy             :  -234.6097349950042883 Eh
Relativity type    :
Basis              : AO
                                X                 Y                 Z
Electronic contribution:      6.800905155      -0.348975092       0.116214619
Nuclear contribution   :     -7.033825367       0.532183352      -0.094727542
                        -----------------------------------------
Total Dipole Moment    :     -0.232920212       0.183208260       0.021487078
                        -----------------------------------------
Magnitude (a.u.)       :      0.297117462
Magnitude (Debye)      :      0.755212571

Rotational constants in cm-1:             0.250762             0.058719             0.051032
Rotational constants in MHz :          7517.649545          1760.354564          1529.902244

                             ****ORCA TERMINATED NORMALLY****
TOTAL RUN TIME: 0 days 0 hours 1 minutes 40 seconds 341 msec
