                         Program Version 6.0.0  -   RELEASE  -
|  1> ! wb97x-v def2-tzvp def2/J RIJCOSX DEFGRID2 scfconv7 GCP(DFT/TZ) printgap
|  2> %output
|  3>     printlevel normal
|  4> end
|  5> %cpcm
|  6>     smd true
|  7>     smdsolvent "water"
|  8> end
|  9> * xyz 0 1
| 10> C -2.66916173650702 -0.5679433161943874 -0.13536363696578874
| 11> C -1.2665341844742104 -0.31080913603526167 0.4078266355659953
| 12> C -0.5435441431890032 0.7882121291229354 -0.3648362168782462
| 13> C 0.8712576365979455 1.0815346468262448 0.16718659078831186
| 14> C 1.7738374983754153 -0.051377690040681344 0.03852451092838778
| 15> C 2.508751312720087 -1.0007605756061257 -0.09187943697056894
| 16> H -3.282247889283329 0.3388452637777959 -0.08488113148225064
| 17> H -3.1810747601487566 -1.3504831304232727 0.4336907471633193
| 18> H -2.6302462701685405 -0.8861717206581963 -1.1831189301683729
| 19> H -1.3233437728257187 -0.027720188542892116 1.4670046448376237
| 20> H -0.6787492641044688 -1.2363661613687786 0.361602952613717
| 21> H -0.4796475181527979 0.5168435504550346 -1.425588902114382
| 22> H -1.1202253825826105 1.7188099841709763 -0.30457366831847005
| 23> H 0.8126526703227827 1.372418104457522 1.2237756362214451
| 24> H 1.2985900723678194 1.9359364906155563 -0.370914344774889
| 25> H 3.162632444519905 -1.8374231148361915 -0.196325621549015
| 26> *
| 27>
| 28>                          ****END OF INPUT****

CARTESIAN COORDINATES (ANGSTROEM)
---------------------------------
  C     -2.669162   -0.567943   -0.135364
  C     -1.266534   -0.310809    0.407827
  C     -0.543544    0.788212   -0.364836
  C      0.871258    1.081535    0.167187
  C      1.773837   -0.051378    0.038525
  C      2.508751   -1.000761   -0.091879
  H     -3.282248    0.338845   -0.084881
  H     -3.181075   -1.350483    0.433691
  H     -2.630246   -0.886172   -1.183119
  H     -1.323344   -0.027720    1.467005
  H     -0.678749   -1.236366    0.361603
  H     -0.479648    0.516844   -1.425589
  H     -1.120225    1.718810   -0.304574
  H      0.812653    1.372418    1.223776
  H      1.298590    1.935936   -0.370914
  H      3.162632   -1.837423   -0.196326

 Total Charge           Charge          ....    0
 Multiplicity           Mult            ....    1
 Number of Electrons    NEL             ....   46
 Basis Dimension        Dim             ....  246

ORBITAL ENERGIES
----------------

  NO   OCC          E(Eh)            E(eV)
   0   2.0000     -12.060766      -328.1901
   1   2.0000     -12.055491      -328.0466
   2   2.0000     -12.039628      -327.6149
   3   2.0000     -12.038262      -327.5778
   4   2.0000     -12.032533      -327.4219
   5   2.0000     -12.025103      -327.2197
   6   2.0000      -1.326375       -36.0925
   7   2.0000      -1.286138       -34.9976
   8   2.0000      -1.233577       -33.5673
   9   2.0000      -1.141189       -31.0533
  10   2.0000      -1.053111       -28.6566
  11   2.0000      -0.979540       -26.6546
  12   2.0000      -0.930263       -25.3137
  13   2.0000      -0.880820       -23.9683
  14   2.0000      -0.872145       -23.7323
  15   2.0000      -0.856706       -23.3121
  16   2.0000      -0.817632       -22.2489
  17   2.0000      -0.795378       -21.6433
  18   2.0000      -0.790552       -21.5120
  19   2.0000      -0.760205       -20.6862
  20   2.0000      -0.740728       -20.1562
  21   2.0000      -0.682188       -18.5633
  22   2.0000      -0.677945       -18.4478
  23   0.0000      -0.163225        -4.4416
  24   0.0000      -0.151642        -4.1264
  25   0.0000      -0.047291        -1.2869
  26   0.0000      -0.020823        -0.5666
  27   0.0000      -0.002908        -0.0791

MULLIKEN ATOMIC CHARGES
-----------------------
   0 C :   -0.383856
   1 C :   -0.190407
   2 C :   -0.193114
   3 C :   -0.201638
   4 C :   -0.133327
   5 C :   -0.240440
   6 H :    0.119735
   7 H :    0.129162
   8 H :    0.120072
   9 H :    0.102254
  10 H :    0.106261
  11 H :    0.111753
  12 H :    0.116890
  13 H :    0.151673
  14 H :    0.153441
  15 H :    0.231540
Sum of atomic charges:    0.0000000

LOEWDIN ATOMIC CHARGES
----------------------
   0 C :   -0.313989
   1 C :   -0.290124
   2 C :   -0.247682
   3 C :   -0.238772
   4 C :   -0.131907
   5 C :   -0.142375
   6 H :    0.118411
   7 H :    0.117887
   8 H :    0.118563
   9 H :    0.134415
  10 H :    0.134465
  11 H :    0.139362
  12 H :    0.140213
  13 H :    0.161779
  14 H :    0.161475
  15 H :    0.138280

  Mayer bond orders larger than 0.100000
B(  0-C ,  1-C ) :   0.9810 B(  0-C ,  6-H ) :   0.9785 B(  0-C ,  7-H ) :   0.9816
B(  0-C ,  8-H ) :   0.9791 B(  1-C ,  2-C ) :   0.9908 B(  1-C ,  9-H ) :   0.9702
B(  1-C , 10-H ) :   0.9700 B(  2-C ,  3-C ) :   0.9681 B(  2-C , 11-H ) :   0.9704
B(  2-C , 12-H ) :   0.9691 B(  3-C ,  4-C ) :   1.0715 B(  3-C , 13-H ) :   0.9754
B(  3-C , 14-H ) :   0.9574 B(  4-C ,  5-C ) :   2.7645 B(  5-C , 15-H ) :   0.9680

FINAL SINGLE POINT ENERGY      -234.600381279995

DIPOLE MOMENT
-------------

Method             : SCF
Type of density    : Electron Density
Multiplicity       :   1
Irrep              :   0
Energy             :  -234.6102548140945316 Eh
Relativity type    :
Basis              : AO
                                X                 Y                 Z
Electronic contribution:      6.709092347      -0.201587570       0.135439153
Nuclear contribution   :     -7.033825367       0.532183352      -0.094727542
                        -----------------------------------------
Total Dipole Moment    :     -0.324733021       0.330595782       0.040711612
                        -----------------------------------------
Magnitude (a.u.)       :      0.465190865
Magnitude (Debye)      :      1.182421211

Rotational constants in cm-1:             0.250762             0.058719             0.051032
Rotational constants in MHz :          7517.649545          1760.354564          1529.902244

                             ****ORCA TERMINATED NORMALLY****
TOTAL RUN TIME: 0 days 0 hours 1 minutes 35 seconds 18 msec
