                         Program Version 6.0.0  -   RELEASE  -
|  1> ! pbe def2-sv(p) def2/J RI DEFGRID1 loosescf d4 GCP(DFT/SV(P)) printgap
|  2> %output
|  3>     printlevel normal
|  4> end
|  5> * xyz 0 1
|  6> C 1.5814998794 -2.4384178647 0.9113091004
|  7> O 1.0306910012 -1.7794097026 -0.2330870723
|  8> C 0.6989356162 -0.4661839893 -0.0701501478
|  9> C 1.6572704797 0.5481941888 0.005043145
| 10> C 1.2852620598 1.8791803805 0.1044403042
| 11> C -0.0514278186 2.2312072342 0.1036242937
| 12> C -1.0147936711 1.2425663017 -0.0093778733
| 13> C -0.65535353 -0.1015570315 -0.0802873819
| 14> C -1.6941481162 -1.1686757803 -0.2135408341
| 15> O -2.5872736166 -1.1366285434 -1.0312143142
| 16> O -1.5429866056 -2.142171427 0.6585439499
| 17> Cl -2.6853399089 1.682364095 -0.0259842485
| 18> Cl 3.3402158106 0.1521918982 -0.0814906197
| 19> H 1.8350746252 -3.4366522718 0.5658505159
| 20> H 0.8318109683 -2.4918264005 1.7034467272
| 21> H 2.4747316423 -1.9313241975 1.2773383606
| 22> H 2.0470515874 2.6387090519 0.1688653207
| 23> H -0.3486524133 3.2633438298 0.1770854432
| 24> H -2.2094836502 -2.8512037823 0.5533637214
| 25> *
| 26>
| 27>                          ****END OF INPUT****

CARTESIAN COORDINATES (ANGSTROEM)
---------------------------------
  C      1.581500   -2.438418    0.911309
  O      1.030691   -1.779410   -0.233087
  C      0.698936   -0.466184   -0.070150
  C      1.657270    0.548194    0.005043
  C      1.285262    1.879180    0.104440
  C     -0.051428    2.231207    0.103624
  C     -1.014794    1.242566   -0.009378
  C     -0.655354   -0.101557   -0.080287
  C     -1.694148   -1.168676   -0.213541
  O     -2.587274   -1.136629   -1.031214
  O     -1.542987   -2.142171    0.658544
  Cl    -2.685340    1.682364   -0.025984
  Cl     3.340216    0.152192   -0.081491
  H      1.835075   -3.436652    0.565851
  H      0.831811   -2.491826    1.703447
  H      2.474732   -1.931324    1.277338
  H      2.047052    2.638709    0.168865
  H     -0.348652    3.263344    0.177085
  H     -2.209484   -2.851204    0.553364

 Total Charge           Charge          ....    0
 Multiplicity           Mult            ....    1
 Number of Electrons    NEL             ....  112
 Basis Dimension        Dim             ....  202

ORBITAL ENERGIES
----------------

  NO   OCC          E(Eh)            E(eV)
   0   2.0000    -100.653287     -2738.9152
   1   2.0000    -100.644866     -2738.6860
   2   2.0000     -18.810546      -511.8610
   3   2.0000     -18.791830      -511.3517
   4   2.0000     -18.745346      -510.0868
   5   2.0000     -10.026484      -272.8345
   6   2.0000      -9.979309      -271.5508
   7   2.0000      -9.968165      -271.2476
   8   2.0000      -9.963599      -271.1233
   9   2.0000      -9.939679      -270.4724
  10   2.0000      -9.930588      -270.2250
  11   2.0000      -9.923002      -270.0186
  12   2.0000      -9.917677      -269.8737
  13   2.0000      -9.188939      -250.0437
  14   2.0000      -9.180816      -249.8227
  15   2.0000      -7.020352      -191.0335
  16   2.0000      -7.012325      -190.8151
  17   2.0000      -7.008926      -190.7226
  18   2.0000      -7.008246      -190.7041
  19   2.0000      -7.000891      -190.5039
  20   2.0000      -6.999880      -190.4764
  21   2.0000      -1.021309       -27.7912
  22   2.0000      -0.974293       -26.5119
  23   2.0000      -0.921174       -25.0664
  24   2.0000      -0.833458       -22.6796
  25   2.0000      -0.809080       -22.0162
  26   2.0000      -0.758195       -20.6315
  27   2.0000      -0.713946       -19.4275
  28   2.0000      -0.667733       -18.1699
  29   2.0000      -0.633874       -17.2486
  30   2.0000      -0.618837       -16.8394
  31   2.0000      -0.564232       -15.3535
  32   2.0000      -0.541022       -14.7220
  33   2.0000      -0.493734       -13.4352
  34   2.0000      -0.474733       -12.9181
  35   2.0000      -0.465677       -12.6717
  36   2.0000      -0.435912       -11.8618
  37   2.0000      -0.431954       -11.7541
  38   2.0000      -0.415782       -11.3140
  39   2.0000      -0.412266       -11.2183
  40   2.0000      -0.402817       -10.9612
  41   2.0000      -0.399353       -10.8670
  42   2.0000      -0.373599       -10.1661
  43   2.0000      -0.368606       -10.0303
  44   2.0000      -0.359411        -9.7801
  45   2.0000      -0.337589        -9.1863
  46   2.0000      -0.334748        -9.1090
  47   2.0000      -0.318809        -8.6752
  48   2.0000      -0.290194        -7.8966
  49   2.0000      -0.281594        -7.6626
  50   2.0000      -0.278346        -7.5742
  51   2.0000      -0.268085        -7.2950
  52   2.0000      -0.252556        -6.8724
  53   2.0000      -0.241086        -6.5603
  54   2.0000      -0.224671        -6.1136
  55   2.0000      -0.216660        -5.8956
  56   0.0000      -0.077135        -2.0990
  57   0.0000      -0.055786        -1.5180
  58   0.0000      -0.013825        -0.3762
  59   0.0000      -0.006347        -0.1727
  60   0.0000       0.017424         0.4741

MULLIKEN ATOMIC CHARGES
-----------------------
   0 C :   -0.096284
   1 O :   -0.274095
   2 C :    0.115901
   3 C :    0.057733
   4 C :   -0.097226
   5 C :   -0.097088
   6 C :    0.081932
   7 C :   -0.022262
   8 C :    0.095294
   9 O :   -0.162848
  10 O :   -0.272528
  11 Cl:   -0.047523
  12 Cl:   -0.052247
  13 H :    0.121694
  14 H :    0.105076
  15 H :    0.108795
  16 H :    0.058257
  17 H :    0.055911
  18 H :    0.321508
Sum of atomic charges:    0.0000000

LOEWDIN ATOMIC CHARGES
----------------------
   0 C :   -0.201973
   1 O :   -0.108882
   2 C :    0.025574
   3 C :   -0.157305
   4 C :   -0.123537
   5 C :   -0.140744
   6 C :   -0.115655
   7 C :   -0.094956
   8 C :    0.025275
   9 O :   -0.145404
  10 O :   -0.182142
  11 Cl:    0.160004
  12 Cl:    0.154955
  13 H :    0.121680
  14 H :    0.106906
  15 H :    0.099624
  16 H :    0.137138
  17 H :    0.136538
  18 H :    0.302904

  Mayer bond orders larger than 0.100000
B(  0-C ,  1-O ) :   0.9435 B(  0-C , 13-H ) :   0.9649 B(  0-C , 14-H ) :   0.9385
B(  0-C , 15-H ) :   0.9343 B(  1-O ,  2-C ) :   1.2136 B(  2-C ,  3-C ) :   1.3439
B(  2-C ,  7-C ) :   1.3713 B(  3-C ,  4-C ) :   1.3818 B(  3-C , 12-Cl) :   1.0015
B(  4-C ,  5-C ) :   1.3197 B(  4-C , 16-H ) :   0.9641 B(  5-C ,  6-C ) :   1.3662
B(  5-C , 17-H ) :   0.9694 B(  6-C ,  7-C ) :   1.4176 B(  6-C , 11-Cl) :   1.0422
B(  7-C ,  8-C ) :   0.8672 B(  8-C ,  9-O ) :   2.1269 B(  8-C , 10-O ) :   1.2918
B( 10-O , 18-H ) :   0.8164

Dispersion correction           -0.027244851
FINAL SINGLE POINT ENERGY     -1452.786437459796

DIPOLE MOMENT
-------------

Method             : SCF
Type of density    : Electron Density
Multiplicity       :   1
Irrep              :   0
Energy             : -1452.8410373877459278 Eh
Relativity type    :
Basis              : AO
                                X                 Y                 Z
Electronic contribution:     -2.894705353       6.743794899      -3.366020375
Nuclear contribution   :      3.419413838      -7.048829958       4.306371074
                        -----------------------------------------
Total Dipole Moment    :      0.524708485      -0.305035058       0.940350699
                        -----------------------------------------
Magnitude (a.u.)       :      1.119207228
Magnitude (Debye)      :      2.844798694

Rotational constants in cm-1:             0.031488             0.016424             0.011348
Rotational constants in MHz :           943.992800           492.392566           340.192905

                             ****ORCA TERMINATED NORMALLY****
TOTAL RUN TIME: 0 days 0 hours 0 minutes 16 seconds 5 msec
