                         Program Version 6.0.0  -   RELEASE  -
|  1> ! pbe def2-sv(p) def2/J RI DEFGRID1 loosescf d4 GCP(DFT/SV(P)) printgap
|  2> %output
|  3>     printlevel normal
|  4> end
|  5> * xyz 0 1
|  6> C 2.1860328501 0.7565460977 -0.4235837523
|  7> C 1.2580585305 0.2317739552 0.6765201119
|  8> C 0.0278220556 -0.3876113294 0.0653937673
|  9> O -0.1480199106 -1.5905293324 0.0495221325
| 10> C -0.9774090143 0.569223645 -0.5316463949
| 11> C -2.3228180157 0.4251951625 0.1847231342
| 12> H 3.0781768907 1.1843025598 0.0243739698
| 13> H 2.4838745829 -0.0564760012 -1.0814208143
| 14> H 1.6936341578 1.5206351599 -1.018355631
| 15> H 1.7786192072 -0.5242642072 1.2661591363
| 16> H 0.9572559427 1.0546553649 1.3258237498
| 17> H -1.1100947908 0.3031659124 -1.5822682424
| 18> H -0.6221197949 1.5954184774 -0.4624783621
| 19> H -3.0727608385 1.0450933994 -0.297711961
| 20> H -2.2339105754 0.7286579372 1.2252005362
| 21> H -2.6489362906 -0.6118661768 0.1553140674
| 22> *
| 23>
| 24>                          ****END OF INPUT****

CARTESIAN COORDINATES (ANGSTROEM)
---------------------------------
  C      2.186033    0.756546   -0.423584
  C      1.258059    0.231774    0.676520
  C      0.027822   -0.387611    0.065394
  O     -0.148020   -1.590529    0.049522
  C     -0.977409    0.569224   -0.531646
  C     -2.322818    0.425195    0.184723
  H      3.078177    1.184303    0.024374
  H      2.483875   -0.056476   -1.081421
  H      1.693634    1.520635   -1.018356
  H      1.778619   -0.524264    1.266159
  H      0.957256    1.054655    1.325824
  H     -1.110095    0.303166   -1.582268
  H     -0.622120    1.595418   -0.462478
  H     -3.072761    1.045093   -0.297712
  H     -2.233911    0.728658    1.225201
  H     -2.648936   -0.611866    0.155314

 Total Charge           Charge          ....    0
 Multiplicity           Mult            ....    1
 Number of Electrons    NEL             ....   48
 Basis Dimension        Dim             ....  104

ORBITAL ENERGIES
----------------

  NO   OCC          E(Eh)            E(eV)
   0   2.0000     -18.735239      -509.8118
   1   2.0000      -9.967682      -271.2344
   2   2.0000      -9.893293      -269.2102
   3   2.0000      -9.892702      -269.1941
   4   2.0000      -9.891153      -269.1520
   5   2.0000      -9.884429      -268.9690
   6   2.0000      -0.932061       -25.3627
   7   2.0000      -0.720408       -19.6033
   8   2.0000      -0.690448       -18.7880
   9   2.0000      -0.593212       -16.1421
  10   2.0000      -0.562784       -15.3141
  11   2.0000      -0.463631       -12.6160
  12   2.0000      -0.430190       -11.7061
  13   2.0000      -0.423550       -11.5254
  14   2.0000      -0.399342       -10.8667
  15   2.0000      -0.375347       -10.2137
  16   2.0000      -0.363143        -9.8816
  17   2.0000      -0.341709        -9.2984
  18   2.0000      -0.333579        -9.0772
  19   2.0000      -0.329555        -8.9676
  20   2.0000      -0.311726        -8.4825
  21   2.0000      -0.304852        -8.2954
  22   2.0000      -0.295663        -8.0454
  23   2.0000      -0.191698        -5.2164
  24   0.0000      -0.050685        -1.3792
  25   0.0000       0.029287         0.7969
  26   0.0000       0.064213         1.7473
  27   0.0000       0.079857         2.1730
  28   0.0000       0.080349         2.1864

MULLIKEN ATOMIC CHARGES
-----------------------
   0 C :   -0.304265
   1 C :   -0.150990
   2 C :   -0.002609
   3 O :   -0.172596
   4 C :   -0.165726
   5 C :   -0.286125
   6 H :    0.119083
   7 H :    0.118620
   8 H :    0.112709
   9 H :    0.094730
  10 H :    0.100123
  11 H :    0.111617
  12 H :    0.088116
  13 H :    0.110560
  14 H :    0.103806
  15 H :    0.122948
Sum of atomic charges:   -0.0000000

LOEWDIN ATOMIC CHARGES
----------------------
   0 C :   -0.331771
   1 C :   -0.253815
   2 C :    0.050204
   3 O :   -0.134289
   4 C :   -0.258304
   5 C :   -0.329790
   6 H :    0.126684
   7 H :    0.126166
   8 H :    0.119946
   9 H :    0.127924
  10 H :    0.128488
  11 H :    0.140562
  12 H :    0.118493
  13 H :    0.122244
  14 H :    0.119637
  15 H :    0.127619

  Mayer bond orders larger than 0.100000
B(  0-C ,  1-C ) :   1.1278 B(  0-C ,  6-H ) :   0.9502 B(  0-C ,  7-H ) :   0.9521
B(  0-C ,  8-H ) :   0.9504 B(  1-C ,  2-C ) :   1.0386 B(  1-C ,  9-H ) :   0.9060
B(  1-C , 10-H ) :   0.9022 B(  2-C ,  3-O ) :   2.1737 B(  2-C ,  4-C ) :   0.9858
B(  4-C ,  5-C ) :   1.1408 B(  4-C , 11-H ) :   0.8972 B(  4-C , 12-H ) :   0.9124
B(  5-C , 13-H ) :   0.9523 B(  5-C , 14-H ) :   0.9561 B(  5-C , 15-H ) :   0.9470

Dispersion correction           -0.011256496
FINAL SINGLE POINT ENERGY      -271.140841817005

DIPOLE MOMENT
-------------

Method             : SCF
Type of density    : Electron Density
Multiplicity       :   1
Irrep              :   0
Energy             :  -271.1951104828973484 Eh
Relativity type    :
Basis              : AO
                                X                 Y                 Z
Electronic contribution:     -0.133392615      -4.832237529       0.385851117
Nuclear contribution   :      0.282757730       5.829905795      -0.417091293
                        -----------------------------------------
Total Dipole Moment    :      0.149365115       0.997668267      -0.031240176
                        -----------------------------------------
Magnitude (a.u.)       :      1.009270953
Magnitude (Debye)      :      2.565362890

Rotational constants in cm-1:             0.195031             0.076603             0.063361
Rotational constants in MHz :          5846.887167          2296.490561          1899.514974

                             ****ORCA TERMINATED NORMALLY****
TOTAL RUN TIME: 0 days 0 hours 0 minutes 5 seconds 649 msec
