                         Program Version 6.0.0  -   RELEASE  -
|  1> ! r2scan-3c def2/J RI DEFGRID2 scfconv6 printgap
|  2> %output
|  3>     printlevel normal
|  4> end
|  5> * xyz 0 1
|  6> C -2.2322024352 1.081569088 0.3112832899
|  7> C -1.8314201869 -0.3663323386 0.0554574395
|  8> C -0.555805964 -0.5478177112 -0.7736040267
|  9> C 0.7774863621 -0.1465412511 -0.0899283507
| 10> C 1.0996295989 1.3366842015 -0.291740523
| 11> C 1.9135202111 -0.9802275874 -0.7012746591
| 12> O 0.727807422 -0.3604247834 1.3165576488
| 13> H -3.237470963 1.119538511 0.7256560934
| 14> H -2.2193725329 1.6553444483 -0.6126587223
| 15> H -1.5587036698 1.545440037 1.0265121765
| 16> H -1.7159709769 -0.8719698176 1.0155754432
| 17> H -2.6410905955 -0.8633494613 -0.4848825062
| 18> H -0.4937963867 -1.6065829128 -1.0389958253
| 19> H -0.6462365792 0.0173592394 -1.7020879819
| 20> H 0.3311965758 1.9614831476 0.1481326822
| 21> H 1.180912735 1.5614947508 -1.3507359286
| 22> H 2.0441073358 1.5672893812 0.1952549576
| 23> H 1.7437532114 -2.0427398208 -0.5365030779
| 24> H 2.8618912529 -0.7055829452 -0.2450734321
| 25> H 1.9736240492 -0.8016389771 -1.7709213865
| 26> H 0.700545389 -1.3113442497 1.4855121014
| 27> *
| 28>
| 29>                          ****END OF INPUT****

CARTESIAN COORDINATES (ANGSTROEM)
---------------------------------
  C     -2.232202    1.081569    0.311283
  C     -1.831420   -0.366332    0.055457
  C     -0.555806   -0.547818   -0.773604
  C      0.777486   -0.146541   -0.089928
  C      1.099630    1.336684   -0.291741
  C      1.913520   -0.980228   -0.701275
  O      0.727807   -0.360425    1.316558
  H     -3.237471    1.119539    0.725656
  H     -2.219373    1.655344   -0.612659
  H     -1.558704    1.545440    1.026512
  H     -1.715971   -0.871970    1.015575
  H     -2.641091   -0.863349   -0.484883
  H     -0.493796   -1.606583   -1.038996
  H     -0.646237    0.017359   -1.702088
  H      0.331197    1.961483    0.148133
  H      1.180913    1.561495   -1.350736
  H      2.044107    1.567289    0.195255
  H      1.743753   -2.042740   -0.536503
  H      2.861891   -0.705583   -0.245073
  H      1.973624   -0.801639   -1.770921
  H      0.700545   -1.311344    1.485512

 Total Charge           Charge          ....    0
 Multiplicity           Mult            ....    1
 Number of Electrons    NEL             ....   58
 Basis Dimension        Dim             ....  208

ORBITAL ENERGIES
----------------

  NO   OCC          E(Eh)            E(eV)
   0   2.0000     -18.944012      -515.4928
   1   2.0000     -10.087583      -274.4971
   2   2.0000     -10.021447      -272.6974
   3   2.0000     -10.021107      -272.6882
   4   2.0000     -10.018580      -272.6194
   5   2.0000     -10.012564      -272.4557
   6   2.0000     -10.010012      -272.3863
   7   2.0000      -0.983782       -26.7701
   8   2.0000      -0.765202       -20.8222
   9   2.0000      -0.724919       -19.7260
  10   2.0000      -0.657640       -17.8953
  11   2.0000      -0.645631       -17.5685
  12   2.0000      -0.560087       -15.2407
  13   2.0000      -0.531757       -14.4698
  14   2.0000      -0.450996       -12.2722
  15   2.0000      -0.434447       -11.8219
  16   2.0000      -0.424496       -11.5511
  17   2.0000      -0.395228       -10.7547
  18   2.0000      -0.390758       -10.6331
  19   2.0000      -0.363268        -9.8850
  20   2.0000      -0.353273        -9.6131
  21   2.0000      -0.350105        -9.5269
  22   2.0000      -0.341501        -9.2927
  23   2.0000      -0.326621        -8.8878
  24   2.0000      -0.306595        -8.3429
  25   2.0000      -0.296547        -8.0695
  26   2.0000      -0.287229        -7.8159
  27   2.0000      -0.276062        -7.5120
  28   2.0000      -0.232440        -6.3250
  29   0.0000       0.055428         1.5083
  30   0.0000       0.105436         2.8691
  31   0.0000       0.109137         2.9698
  32   0.0000       0.119610         3.2548
  33   0.0000       0.121495         3.3061

MULLIKEN ATOMIC CHARGES
-----------------------
   0 C :   -0.540804
   1 C :   -0.165092
   2 C :   -0.306252
   3 C :    0.164543
   4 C :   -0.495383
   5 C :   -0.477946
   6 O :   -0.410055
   7 H :    0.143258
   8 H :    0.147419
   9 H :    0.165398
  10 H :    0.138846
  11 H :    0.139327
  12 H :    0.147139
  13 H :    0.149261
  14 H :    0.154614
  15 H :    0.154026
  16 H :    0.154790
  17 H :    0.139106
  18 H :    0.161930
  19 H :    0.151184
  20 H :    0.284692
Sum of atomic charges:    0.0000000

LOEWDIN ATOMIC CHARGES
----------------------
   0 C :   -0.426738
   1 C :   -0.304964
   2 C :   -0.282647
   3 C :    0.061433
   4 C :   -0.372957
   5 C :   -0.390855
   6 O :   -0.604205
   7 H :    0.149918
   8 H :    0.148426
   9 H :    0.153355
  10 H :    0.159362
  11 H :    0.150305
  12 H :    0.161013
  13 H :    0.163901
  14 H :    0.164871
  15 H :    0.158448
  16 H :    0.163822
  17 H :    0.153115
  18 H :    0.162289
  19 H :    0.161602
  20 H :    0.270505

  Mayer bond orders larger than 0.100000
B(  0-C ,  1-C ) :   0.8538 B(  0-C ,  7-H ) :   0.9676 B(  0-C ,  8-H ) :   0.9836
B(  0-C ,  9-H ) :   0.9850 B(  1-C ,  2-C ) :   0.9157 B(  1-C , 10-H ) :   0.9876
B(  1-C , 11-H ) :   0.9716 B(  2-C ,  3-C ) :   0.8829 B(  2-C , 12-H ) :   0.9715
B(  2-C , 13-H ) :   0.9693 B(  3-C ,  4-C ) :   0.9472 B(  3-C ,  5-C ) :   0.9541
B(  3-C ,  6-O ) :   0.8628 B(  4-C , 14-H ) :   0.9556 B(  4-C , 15-H ) :   0.9838
B(  4-C , 16-H ) :   0.9730 B(  5-C , 17-H ) :   0.9689 B(  5-C , 18-H ) :   0.9786
B(  5-C , 19-H ) :   0.9745 B(  6-O , 20-H ) :   0.9025

Dispersion correction           -0.005782965
FINAL SINGLE POINT ENERGY      -312.203021804621

DIPOLE MOMENT
-------------

Method             : SCF
Type of density    : Electron Density
Multiplicity       :   1
Irrep              :   0
Energy             :  -312.2083230106771907 Eh
Relativity type    :
Basis              : AO
                                X                 Y                 Z
Electronic contribution:      1.566032010      -1.555407690       2.544304084
Nuclear contribution   :     -1.562134243       1.143658688      -2.931187708
                        -----------------------------------------
Total Dipole Moment    :      0.003897767      -0.411749002      -0.386883624
                        -----------------------------------------
Magnitude (a.u.)       :      0.565005638
Magnitude (Debye)      :      1.436130201

Rotational constants in cm-1:             0.130361             0.057385             0.054117
Rotational constants in MHz :          3908.113487          1720.345764          1622.372855

                             ****ORCA TERMINATED NORMALLY****
TOTAL RUN TIME: 0 days 0 hours 0 minutes 25 seconds 497 msec
