                         Program Version 6.0.0  -   RELEASE  -
|  1> ! r2scan-3c def2/J RI DEFGRID2 scfconv6 printgap
|  2> %output
|  3>     printlevel normal
|  4> end
|  5> %cpcm
|  6>     smd true
|  7>     smdsolvent "water"
|  8> end
|  9> * xyz 0 1
| 10> C -2.2322024352 1.081569088 0.3112832899
| 11> C -1.8314201869 -0.3663323386 0.0554574395
| 12> C -0.555805964 -0.5478177112 -0.7736040267
| 13> C 0.7774863621 -0.1465412511 -0.0899283507
| 14> C 1.0996295989 1.3366842015 -0.291740523
| 15> C 1.9135202111 -0.9802275874 -0.7012746591
| 16> O 0.727807422 -0.3604247834 1.3165576488
| 17> H -3.237470963 1.119538511 0.7256560934
| 18> H -2.2193725329 1.6553444483 -0.6126587223
| 19> H -1.5587036698 1.545440037 1.0265121765
| 20> H -1.7159709769 -0.8719698176 1.0155754432
| 21> H -2.6410905955 -0.8633494613 -0.4848825062
| 22> H -0.4937963867 -1.6065829128 -1.0389958253
| 23> H -0.6462365792 0.0173592394 -1.7020879819
| 24> H 0.3311965758 1.9614831476 0.1481326822
| 25> H 1.180912735 1.5614947508 -1.3507359286
| 26> H 2.0441073358 1.5672893812 0.1952549576
| 27> H 1.7437532114 -2.0427398208 -0.5365030779
| 28> H 2.8618912529 -0.7055829452 -0.2450734321
| 29> H 1.9736240492 -0.8016389771 -1.7709213865
| 30> H 0.700545389 -1.3113442497 1.4855121014
| 31> *
| 32>
| 33>                          ****END OF INPUT****

CARTESIAN COORDINATES (ANGSTROEM)
---------------------------------
  C     -2.232202    1.081569    0.311283
  C     -1.831420   -0.366332    0.055457
  C     -0.555806   -0.547818   -0.773604
  C      0.777486   -0.146541   -0.089928
  C      1.099630    1.336684   -0.291741
  C      1.913520   -0.980228   -0.701275
  O      0.727807   -0.360425    1.316558
  H     -3.237471    1.119539    0.725656
  H     -2.219373    1.655344   -0.612659
  H     -1.558704    1.545440    1.026512
  H     -1.715971   -0.871970    1.015575
  H     -2.641091   -0.863349   -0.484883
  H     -0.493796   -1.606583   -1.038996
  H     -0.646237    0.017359   -1.702088
  H      0.331197    1.961483    0.148133
  H      1.180913    1.561495   -1.350736
  H      2.044107    1.567289    0.195255
  H      1.743753   -2.042740   -0.536503
  H      2.861891   -0.705583   -0.245073
  H      1.973624   -0.801639   -1.770921
  H      0.700545   -1.311344    1.485512

 Total Charge           Charge          ....    0
 Multiplicity           Mult            ....    1
 Number of Electrons    NEL             ....   58
 Basis Dimension        Dim             ....  208

ORBITAL ENERGIES
----------------

  NO   OCC          E(Eh)            E(eV)
   0   2.0000     -18.946296      -515.5549
   1   2.0000     -10.082786      -274.3666
   2   2.0000     -10.015448      -272.5342
   3   2.0000     -10.012597      -272.4566
   4   2.0000     -10.007783      -272.3256
   5   2.0000     -10.007026      -272.3050
   6   2.0000     -10.005876      -272.2737
   7   2.0000      -0.984856       -26.7993
   8   2.0000      -0.759039       -20.6545
   9   2.0000      -0.719430       -19.5767
  10   2.0000      -0.651103       -17.7174
  11   2.0000      -0.638646       -17.3784
  12   2.0000      -0.554979       -15.1017
  13   2.0000      -0.527646       -14.3580
  14   2.0000      -0.446184       -12.1413
  15   2.0000      -0.429191       -11.6789
  16   2.0000      -0.417877       -11.3710
  17   2.0000      -0.390855       -10.6357
  18   2.0000      -0.384798       -10.4709
  19   2.0000      -0.355844        -9.6830
  20   2.0000      -0.347685        -9.4610
  21   2.0000      -0.344060        -9.3623
  22   2.0000      -0.337268        -9.1775
  23   2.0000      -0.322587        -8.7780
  24   2.0000      -0.301785        -8.2120
  25   2.0000      -0.290512        -7.9052
  26   2.0000      -0.283679        -7.7193
  27   2.0000      -0.272090        -7.4040
  28   2.0000      -0.234223        -6.3735
  29   0.0000       0.069987         1.9044
  30   0.0000       0.115920         3.1543
  31   0.0000       0.117993         3.2107
  32   0.0000       0.126221         3.4346
  33   0.0000       0.131538         3.5793

MULLIKEN ATOMIC CHARGES
-----------------------
   0 C :   -0.559229
   1 C :   -0.218683
   2 C :   -0.304284
   3 C :    0.211840
   4 C :   -0.548562
   5 C :   -0.526173
   6 O :   -0.496302
   7 H :    0.154164
   8 H :    0.160203
   9 H :    0.163549
  10 H :    0.150021
  11 H :    0.150366
  12 H :    0.158688
  13 H :    0.163888
  14 H :    0.163980
  15 H :    0.176922
  16 H :    0.162861
  17 H :    0.164362
  18 H :    0.164482
  19 H :    0.167940
  20 H :    0.339966
Sum of atomic charges:   -0.0000000

LOEWDIN ATOMIC CHARGES
----------------------
   0 C :   -0.435056
   1 C :   -0.309263
   2 C :   -0.280544
   3 C :    0.064378
   4 C :   -0.383445
   5 C :   -0.395024
   6 O :   -0.639244
   7 H :    0.151872
   8 H :    0.152703
   9 H :    0.151450
  10 H :    0.159078
  11 H :    0.153955
  12 H :    0.166117
  13 H :    0.168402
  14 H :    0.164920
  15 H :    0.166990
  16 H :    0.163486
  17 H :    0.161784
  18 H :    0.161982
  19 H :    0.166838
  20 H :    0.288621

  Mayer bond orders larger than 0.100000
B(  0-C ,  1-C ) :   0.8586 B(  0-C ,  7-H ) :   0.9667 B(  0-C ,  8-H ) :   0.9796
B(  0-C ,  9-H ) :   0.9811 B(  1-C ,  2-C ) :   0.8921 B(  1-C , 10-H ) :   0.9956
B(  1-C , 11-H ) :   0.9688 B(  2-C ,  3-C ) :   0.8837 B(  2-C , 12-H ) :   0.9697
B(  2-C , 13-H ) :   0.9690 B(  3-C ,  4-C ) :   0.9392 B(  3-C ,  5-C ) :   0.9424
B(  3-C ,  6-O ) :   0.8406 B(  4-C , 14-H ) :   0.9554 B(  4-C , 15-H ) :   0.9758
B(  4-C , 16-H ) :   0.9737 B(  5-C , 17-H ) :   0.9670 B(  5-C , 18-H ) :   0.9746
B(  5-C , 19-H ) :   0.9715 B(  6-O , 20-H ) :   0.8771

Dispersion correction           -0.005782965
FINAL SINGLE POINT ENERGY      -312.208463091132

DIPOLE MOMENT
-------------

Method             : SCF
Type of density    : Electron Density
Multiplicity       :   1
Irrep              :   0
Energy             :  -312.2137642971879359 Eh
Relativity type    :
Basis              : AO
                                X                 Y                 Z
Electronic contribution:      1.542002935      -1.786387765       2.296548833
Nuclear contribution   :     -1.562134243       1.143658688      -2.931187708
                        -----------------------------------------
Total Dipole Moment    :     -0.020131308      -0.642729077      -0.634638875
                        -----------------------------------------
Magnitude (a.u.)       :      0.903477967
Magnitude (Debye)      :      2.296458489

Rotational constants in cm-1:             0.130361             0.057385             0.054117
Rotational constants in MHz :          3908.113487          1720.345764          1622.372855

                             ****ORCA TERMINATED NORMALLY****
TOTAL RUN TIME: 0 days 0 hours 0 minutes 30 seconds 377 msec
