                         Program Version 6.0.0  -   RELEASE  -
|  1> ! pbe def2-sv(p) def2/J RI DEFGRID1 loosescf d4 GCP(DFT/SV(P)) printgap
|  2> %output
|  3>     printlevel normal
|  4> end
|  5> * xyz 0 1
|  6> C -1.9601403732 -0.4557090077 -0.7274157101
|  7> C -1.5192909355 0.5901484231 0.2889570393
|  8> C -0.2348741733 0.1877639192 1.0249768876
|  9> C 0.9442822211 0.050988133 0.0942287981
| 10> C 1.4949241826 1.1055187849 -0.4867463132
| 11> C 1.4522166928 -1.3406461935 -0.1259401481
| 12> H -2.8959298537 -0.1585730763 -1.1950678748
| 13> H -2.1094730085 -1.4190970445 -0.2443797114
| 14> H -1.2094686415 -0.5681332875 -1.5060789397
| 15> H -1.3565315536 1.5413510007 -0.2210842453
| 16> H -2.3130381088 0.73609909 1.0250037643
| 17> H -0.0153300637 0.9510877377 1.7751406837
| 18> H -0.4042088305 -0.7571054936 1.5437211698
| 19> H 2.3292776941 1.0154380044 -1.1617566846
| 20> H 1.1337198862 2.1051085697 -0.3107925897
| 21> H 1.8232614595 -1.7504525821 0.8131082496
| 22> H 0.6486819767 -1.9873277985 -0.4741745884
| 23> H 2.2583537912 -1.3536847432 -0.8547071063
| 24> *
| 25>
| 26>                          ****END OF INPUT****

CARTESIAN COORDINATES (ANGSTROEM)
---------------------------------
  C     -1.960140   -0.455709   -0.727416
  C     -1.519291    0.590148    0.288957
  C     -0.234874    0.187764    1.024977
  C      0.944282    0.050988    0.094229
  C      1.494924    1.105519   -0.486746
  C      1.452217   -1.340646   -0.125940
  H     -2.895930   -0.158573   -1.195068
  H     -2.109473   -1.419097   -0.244380
  H     -1.209469   -0.568133   -1.506079
  H     -1.356532    1.541351   -0.221084
  H     -2.313038    0.736099    1.025004
  H     -0.015330    0.951088    1.775141
  H     -0.404209   -0.757105    1.543721
  H      2.329278    1.015438   -1.161757
  H      1.133720    2.105109   -0.310793
  H      1.823261   -1.750453    0.813108
  H      0.648682   -1.987328   -0.474175
  H      2.258354   -1.353685   -0.854707

 Total Charge           Charge          ....    0
 Multiplicity           Mult            ....    1
 Number of Electrons    NEL             ....   48
 Basis Dimension        Dim             ....  108

ORBITAL ENERGIES
----------------

  NO   OCC          E(Eh)            E(eV)
   0   2.0000      -9.895356      -269.2663
   1   2.0000      -9.884589      -268.9733
   2   2.0000      -9.883182      -268.9350
   3   2.0000      -9.877451      -268.7791
   4   2.0000      -9.871358      -268.6133
   5   2.0000      -9.864714      -268.4325
   6   2.0000      -0.737658       -20.0727
   7   2.0000      -0.682716       -18.5777
   8   2.0000      -0.614744       -16.7280
   9   2.0000      -0.602019       -16.3818
  10   2.0000      -0.526686       -14.3318
  11   2.0000      -0.458485       -12.4760
  12   2.0000      -0.418920       -11.3994
  13   2.0000      -0.406331       -11.0568
  14   2.0000      -0.390086       -10.6148
  15   2.0000      -0.376922       -10.2566
  16   2.0000      -0.359979        -9.7955
  17   2.0000      -0.336733        -9.1630
  18   2.0000      -0.322020        -8.7626
  19   2.0000      -0.312470        -8.5028
  20   2.0000      -0.301157        -8.1949
  21   2.0000      -0.288455        -7.8493
  22   2.0000      -0.274993        -7.4829
  23   2.0000      -0.210966        -5.7407
  24   0.0000      -0.011427        -0.3110
  25   0.0000       0.038854         1.0573
  26   0.0000       0.067351         1.8327
  27   0.0000       0.073776         2.0075
  28   0.0000       0.083523         2.2728

MULLIKEN ATOMIC CHARGES
-----------------------
   0 C :   -0.291264
   1 C :   -0.185290
   2 C :   -0.107103
   3 C :   -0.101066
   4 C :   -0.234667
   5 C :   -0.217994
   6 H :    0.103081
   7 H :    0.096128
   8 H :    0.117493
   9 H :    0.091637
  10 H :    0.085200
  11 H :    0.093249
  12 H :    0.071736
  13 H :    0.082005
  14 H :    0.083886
  15 H :    0.111177
  16 H :    0.106433
  17 H :    0.095359
Sum of atomic charges:    0.0000000

LOEWDIN ATOMIC CHARGES
----------------------
   0 C :   -0.344032
   1 C :   -0.224526
   2 C :   -0.214736
   3 C :   -0.059906
   4 C :   -0.270069
   5 C :   -0.323447
   6 H :    0.119625
   7 H :    0.114807
   8 H :    0.121222
   9 H :    0.116100
  10 H :    0.113861
  11 H :    0.127114
  12 H :    0.114934
  13 H :    0.116664
  14 H :    0.115286
  15 H :    0.129291
  16 H :    0.125474
  17 H :    0.122340

  Mayer bond orders larger than 0.100000
B(  0-C ,  1-C ) :   1.1546 B(  0-C ,  6-H ) :   0.9511 B(  0-C ,  7-H ) :   0.9526
B(  0-C ,  8-H ) :   0.9453 B(  1-C ,  2-C ) :   1.1184 B(  1-C ,  9-H ) :   0.9261
B(  1-C , 10-H ) :   0.9251 B(  2-C ,  3-C ) :   1.0534 B(  2-C , 11-H ) :   0.9062
B(  2-C , 12-H ) :   0.9144 B(  3-C ,  4-C ) :   2.0350 B(  3-C ,  5-C ) :   1.1293
B(  4-C , 13-H ) :   0.9078 B(  4-C , 14-H ) :   0.9134 B(  5-C , 15-H ) :   0.9272
B(  5-C , 16-H ) :   0.9273 B(  5-C , 17-H ) :   0.9419

Dispersion correction           -0.013936297
FINAL SINGLE POINT ENERGY      -235.243187397774

DIPOLE MOMENT
-------------

Method             : SCF
Type of density    : Electron Density
Multiplicity       :   1
Irrep              :   0
Energy             :  -235.3005295271232171 Eh
Relativity type    :
Basis              : AO
                                X                 Y                 Z
Electronic contribution:      1.869637298       1.415871622       0.850022151
Nuclear contribution   :     -1.980166892      -1.543549914      -0.760913901
                        -----------------------------------------
Total Dipole Moment    :     -0.110529595      -0.127678292       0.089108250
                        -----------------------------------------
Magnitude (a.u.)       :      0.190941923
Magnitude (Debye)      :      0.485335797

Rotational constants in cm-1:             0.166917             0.079892             0.070101
Rotational constants in MHz :          5004.041691          2395.103583          2101.579400

                             ****ORCA TERMINATED NORMALLY****
TOTAL RUN TIME: 0 days 0 hours 0 minutes 7 seconds 769 msec
