                         Program Version 6.0.0  -   RELEASE  -
|  1> ! pbe def2-sv(p) def2/J RI DEFGRID1 loosescf d4 GCP(DFT/SV(P)) printgap
|  2> %output
|  3>     printlevel normal
|  4> end
|  5> * xyz 0 1
|  6> C 2.0395968017 -0.3403348592 0.5234467971
|  7> O 1.3075683342 0.1990371238 -0.5593863043
|  8> C 0.0058396022 0.642306262 -0.2312834381
|  9> C -0.9935628287 -0.4953973022 0.0615997434
| 10> N -2.3727787052 -0.0547198586 0.167035391
| 11> H 1.6258096528 -1.2972933563 0.8526504977
| 12> H 2.0559390005 0.358098409 1.3669113945
| 13> H 3.0505538824 -0.4906558285 0.1521701988
| 14> H 0.049765763 1.3315001642 0.6267207587
| 15> H -0.3249626446 1.1987286704 -1.113686139
| 16> H -0.9275478641 -1.2317127364 -0.7437472749
| 17> H -0.7318714616 -0.9885562389 1.0009842972
| 18> H -2.659538595 0.3854226295 -0.7007813124
| 19> H -2.4549161976 0.6403721566 0.9014526306
| 20> *
| 21>
| 22>                          ****END OF INPUT****

CARTESIAN COORDINATES (ANGSTROEM)
---------------------------------
  C      2.039597   -0.340335    0.523447
  O      1.307568    0.199037   -0.559386
  C      0.005840    0.642306   -0.231283
  C     -0.993563   -0.495397    0.061600
  N     -2.372779   -0.054720    0.167035
  H      1.625810   -1.297293    0.852650
  H      2.055939    0.358098    1.366911
  H      3.050554   -0.490656    0.152170
  H      0.049766    1.331500    0.626721
  H     -0.324963    1.198729   -1.113686
  H     -0.927548   -1.231713   -0.743747
  H     -0.731871   -0.988556    1.000984
  H     -2.659539    0.385423   -0.700781
  H     -2.454916    0.640372    0.901453

 Total Charge           Charge          ....    0
 Multiplicity           Mult            ....    1
 Number of Electrons    NEL             ....   42
 Basis Dimension        Dim             ....   88

ORBITAL ENERGIES
----------------

  NO   OCC          E(Eh)            E(eV)
   0   2.0000     -18.748053      -510.1604
   1   2.0000     -13.967393      -380.0721
   2   2.0000      -9.926386      -270.1107
   3   2.0000      -9.923685      -270.0372
   4   2.0000      -9.906218      -269.5619
   5   2.0000      -0.928460       -25.2647
   6   2.0000      -0.799674       -21.7602
   7   2.0000      -0.658834       -17.9278
   8   2.0000      -0.598029       -16.2732
   9   2.0000      -0.533550       -14.5186
  10   2.0000      -0.459745       -12.5103
  11   2.0000      -0.433351       -11.7921
  12   2.0000      -0.415927       -11.3180
  13   2.0000      -0.411930       -11.2092
  14   2.0000      -0.369736       -10.0610
  15   2.0000      -0.353505        -9.6194
  16   2.0000      -0.333009        -9.0616
  17   2.0000      -0.309831        -8.4309
  18   2.0000      -0.262081        -7.1316
  19   2.0000      -0.218130        -5.9356
  20   2.0000      -0.178599        -4.8599
  21   0.0000       0.030088         0.8187
  22   0.0000       0.043982         1.1968
  23   0.0000       0.070201         1.9103
  24   0.0000       0.076278         2.0756
  25   0.0000       0.097669         2.6577

MULLIKEN ATOMIC CHARGES
-----------------------
   0 C :   -0.107635
   1 O :   -0.336487
   2 C :   -0.011954
   3 C :   -0.119656
   4 N :   -0.443948
   5 H :    0.097679
   6 H :    0.081500
   7 H :    0.114948
   8 H :    0.056125
   9 H :    0.077879
  10 H :    0.095803
  11 H :    0.092944
  12 H :    0.202266
  13 H :    0.200536
Sum of atomic charges:   -0.0000000

LOEWDIN ATOMIC CHARGES
----------------------
   0 C :   -0.207924
   1 O :   -0.182674
   2 C :   -0.141708
   3 C :   -0.204749
   4 N :   -0.400170
   5 H :    0.097577
   6 H :    0.096204
   7 H :    0.116206
   8 H :    0.088015
   9 H :    0.105651
  10 H :    0.116364
  11 H :    0.111659
  12 H :    0.203202
  13 H :    0.202345

  Mayer bond orders larger than 0.100000
B(  0-C ,  1-O ) :   1.0199 B(  0-C ,  5-H ) :   0.9406 B(  0-C ,  6-H ) :   0.9394
B(  0-C ,  7-H ) :   0.9642 B(  1-O ,  2-C ) :   1.0356 B(  2-C ,  3-C ) :   1.0677
B(  2-C ,  8-H ) :   0.9121 B(  2-C ,  9-H ) :   0.9321 B(  3-C ,  4-N ) :   1.1294
B(  3-C , 10-H ) :   0.9256 B(  3-C , 11-H ) :   0.9279 B(  4-N , 12-H ) :   0.9092
B(  4-N , 13-H ) :   0.9104

Dispersion correction           -0.008236766
FINAL SINGLE POINT ENERGY      -249.091180802708

DIPOLE MOMENT
-------------

Method             : SCF
Type of density    : Electron Density
Multiplicity       :   1
Irrep              :   0
Energy             :  -249.1521444735716955 Eh
Relativity type    :
Basis              : AO
                                X                 Y                 Z
Electronic contribution:      0.341397568       0.447501826      -1.858890415
Nuclear contribution   :     -0.290802927      -0.085619178       2.190432080
                        -----------------------------------------
Total Dipole Moment    :      0.050594641       0.361882648       0.331541665
                        -----------------------------------------
Magnitude (a.u.)       :      0.493395120
Magnitude (Debye)      :      1.254110728

Rotational constants in cm-1:             0.483126             0.080548             0.075347
Rotational constants in MHz :         14483.747229          2414.755067          2258.832291

                             ****ORCA TERMINATED NORMALLY****
TOTAL RUN TIME: 0 days 0 hours 0 minutes 5 seconds 907 msec
