                         Program Version 6.0.0  -   RELEASE  -
|  1> ! r2scan-3c def2/J RI DEFGRID2 scfconv6 printgap
|  2> %output
|  3>     printlevel normal
|  4> end
|  5> * xyz 0 1
|  6> C -1.0558378367 -0.5260109244 -0.2416384703
|  7> C 0.0102888652 0.2205301754 0.5731297812
|  8> C 1.3240780499 -0.5812930368 0.607732002
|  9> O 1.8410211719 -0.8007766496 -0.6822682721
| 10> O 0.2245437808 1.4788126933 -0.0372620888
| 11> O -2.3300035764 0.0609149622 -0.1641654273
| 12> H -1.0861032522 -1.5719139868 0.0881020985
| 13> H -0.7804062458 -0.4967138368 -1.2970259607
| 14> H -0.3515326522 0.3490905909 1.6029559097
| 15> H 1.1553331518 -1.565591452 1.0468987122
| 16> H 2.0612218328 -0.0428829748 1.2209704331
| 17> H 1.8253789491 0.0459677632 -1.1552376322
| 18> H 0.6885955989 2.0670351942 0.5741036773
| 19> H -2.6339422751 0.0522710953 0.7545617043
| 20> *
| 21>
| 22>                          ****END OF INPUT****

CARTESIAN COORDINATES (ANGSTROEM)
---------------------------------
  C     -1.055838   -0.526011   -0.241638
  C      0.010289    0.220530    0.573130
  C      1.324078   -0.581293    0.607732
  O      1.841021   -0.800777   -0.682268
  O      0.224544    1.478813   -0.037262
  O     -2.330004    0.060915   -0.164165
  H     -1.086103   -1.571914    0.088102
  H     -0.780406   -0.496714   -1.297026
  H     -0.351533    0.349091    1.602956
  H      1.155333   -1.565591    1.046899
  H      2.061222   -0.042883    1.220970
  H      1.825379    0.045968   -1.155238
  H      0.688596    2.067035    0.574104
  H     -2.633942    0.052271    0.754562

 Total Charge           Charge          ....    0
 Multiplicity           Mult            ....    1
 Number of Electrons    NEL             ....   50
 Basis Dimension        Dim             ....  169

ORBITAL ENERGIES
----------------

  NO   OCC          E(Eh)            E(eV)
   0   2.0000     -18.965233      -516.0702
   1   2.0000     -18.950922      -515.6808
   2   2.0000     -18.950284      -515.6635
   3   2.0000     -10.093170      -274.6491
   4   2.0000     -10.082868      -274.3688
   5   2.0000     -10.078018      -274.2368
   6   2.0000      -1.011545       -27.5255
   7   2.0000      -0.987691       -26.8764
   8   2.0000      -0.981084       -26.6967
   9   2.0000      -0.730178       -19.8692
  10   2.0000      -0.645873       -17.5751
  11   2.0000      -0.577972       -15.7274
  12   2.0000      -0.508280       -13.8310
  13   2.0000      -0.485815       -13.2197
  14   2.0000      -0.467407       -12.7188
  15   2.0000      -0.420149       -11.4328
  16   2.0000      -0.412399       -11.2220
  17   2.0000      -0.390846       -10.6355
  18   2.0000      -0.382029       -10.3955
  19   2.0000      -0.329791        -8.9741
  20   2.0000      -0.312653        -8.5077
  21   2.0000      -0.296990        -8.0815
  22   2.0000      -0.264608        -7.2004
  23   2.0000      -0.245167        -6.6713
  24   2.0000      -0.229347        -6.2409
  25   0.0000       0.041307         1.1240
  26   0.0000       0.059309         1.6139
  27   0.0000       0.078275         2.1300
  28   0.0000       0.099320         2.7026
  29   0.0000       0.123532         3.3615

MULLIKEN ATOMIC CHARGES
-----------------------
   0 C :   -0.216479
   1 C :    0.047785
   2 C :   -0.167818
   3 O :   -0.426231
   4 O :   -0.422389
   5 O :   -0.390550
   6 H :    0.130004
   7 H :    0.153974
   8 H :    0.121896
   9 H :    0.137714
  10 H :    0.128863
  11 H :    0.314939
  12 H :    0.298479
  13 H :    0.289812
Sum of atomic charges:    0.0000000

LOEWDIN ATOMIC CHARGES
----------------------
   0 C :    0.031020
   1 C :    0.062577
   2 C :    0.014518
   3 O :   -0.602076
   4 O :   -0.588805
   5 O :   -0.591430
   6 H :    0.164461
   7 H :    0.193814
   8 H :    0.166763
   9 H :    0.179805
  10 H :    0.158498
  11 H :    0.275027
  12 H :    0.271483
  13 H :    0.264343

  Mayer bond orders larger than 0.100000
B(  0-C ,  1-C ) :   0.9404 B(  0-C ,  5-O ) :   0.9914 B(  0-C ,  6-H ) :   0.9754
B(  0-C ,  7-H ) :   0.9640 B(  1-C ,  2-C ) :   0.9416 B(  1-C ,  4-O ) :   0.9114
B(  1-C ,  8-H ) :   0.9363 B(  2-C ,  3-O ) :   0.9570 B(  2-C ,  9-H ) :   0.9672
B(  2-C , 10-H ) :   0.9695 B(  3-O , 11-H ) :   0.8714 B(  4-O , 12-H ) :   0.8968
B(  5-O , 13-H ) :   0.8967

Dispersion correction           -0.003037919
FINAL SINGLE POINT ENERGY      -344.721428495217

DIPOLE MOMENT
-------------

Method             : SCF
Type of density    : Electron Density
Multiplicity       :   1
Irrep              :   0
Energy             :  -344.7288469671887015 Eh
Relativity type    :
Basis              : AO
                                X                 Y                 Z
Electronic contribution:     -0.581046273       1.343867048      -1.449299151
Nuclear contribution   :      0.820300363      -1.079875058       2.646906065
                        -----------------------------------------
Total Dipole Moment    :      0.239254090       0.263991989       1.197606914
                        -----------------------------------------
Magnitude (a.u.)       :      1.249478536
Magnitude (Debye)      :      3.175922043

Rotational constants in cm-1:             0.197003             0.075601             0.065086
Rotational constants in MHz :          5905.995830          2266.468745          1951.220365

                             ****ORCA TERMINATED NORMALLY****
TOTAL RUN TIME: 0 days 0 hours 0 minutes 20 seconds 615 msec
