                         Program Version 6.0.0  -   RELEASE  -
|  1> ! r2scan-3c def2/J RI DEFGRID2 scfconv6 printgap
|  2> %output
|  3>     printlevel normal
|  4> end
|  5> %cpcm
|  6>     smd true
|  7>     smdsolvent "water"
|  8> end
|  9> * xyz 0 1
| 10> C -1.0558378367 -0.5260109244 -0.2416384703
| 11> C 0.0102888652 0.2205301754 0.5731297812
| 12> C 1.3240780499 -0.5812930368 0.607732002
| 13> O 1.8410211719 -0.8007766496 -0.6822682721
| 14> O 0.2245437808 1.4788126933 -0.0372620888
| 15> O -2.3300035764 0.0609149622 -0.1641654273
| 16> H -1.0861032522 -1.5719139868 0.0881020985
| 17> H -0.7804062458 -0.4967138368 -1.2970259607
| 18> H -0.3515326522 0.3490905909 1.6029559097
| 19> H 1.1553331518 -1.565591452 1.0468987122
| 20> H 2.0612218328 -0.0428829748 1.2209704331
| 21> H 1.8253789491 0.0459677632 -1.1552376322
| 22> H 0.6885955989 2.0670351942 0.5741036773
| 23> H -2.6339422751 0.0522710953 0.7545617043
| 24> *
| 25>
| 26>                          ****END OF INPUT****

CARTESIAN COORDINATES (ANGSTROEM)
---------------------------------
  C     -1.055838   -0.526011   -0.241638
  C      0.010289    0.220530    0.573130
  C      1.324078   -0.581293    0.607732
  O      1.841021   -0.800777   -0.682268
  O      0.224544    1.478813   -0.037262
  O     -2.330004    0.060915   -0.164165
  H     -1.086103   -1.571914    0.088102
  H     -0.780406   -0.496714   -1.297026
  H     -0.351533    0.349091    1.602956
  H      1.155333   -1.565591    1.046899
  H      2.061222   -0.042883    1.220970
  H      1.825379    0.045968   -1.155238
  H      0.688596    2.067035    0.574104
  H     -2.633942    0.052271    0.754562

 Total Charge           Charge          ....    0
 Multiplicity           Mult            ....    1
 Number of Electrons    NEL             ....   50
 Basis Dimension        Dim             ....  169

ORBITAL ENERGIES
----------------

  NO   OCC          E(Eh)            E(eV)
   0   2.0000     -18.956899      -515.8435
   1   2.0000     -18.954051      -515.7660
   2   2.0000     -18.953081      -515.7396
   3   2.0000     -10.080400      -274.3016
   4   2.0000     -10.072041      -274.0742
   5   2.0000     -10.070916      -274.0435
   6   2.0000      -1.006227       -27.3808
   7   2.0000      -0.989610       -26.9287
   8   2.0000      -0.978606       -26.6292
   9   2.0000      -0.720341       -19.6015
  10   2.0000      -0.638903       -17.3854
  11   2.0000      -0.570168       -15.5151
  12   2.0000      -0.498011       -13.5516
  13   2.0000      -0.480606       -13.0779
  14   2.0000      -0.460740       -12.5374
  15   2.0000      -0.414026       -11.2662
  16   2.0000      -0.406249       -11.0546
  17   2.0000      -0.388759       -10.5787
  18   2.0000      -0.378241       -10.2925
  19   2.0000      -0.330377        -8.9900
  20   2.0000      -0.313473        -8.5300
  21   2.0000      -0.295852        -8.0505
  22   2.0000      -0.261239        -7.1087
  23   2.0000      -0.248401        -6.7593
  24   2.0000      -0.229164        -6.2359
  25   0.0000       0.062130         1.6906
  26   0.0000       0.076990         2.0950
  27   0.0000       0.099684         2.7125
  28   0.0000       0.116933         3.1819
  29   0.0000       0.137034         3.7289

MULLIKEN ATOMIC CHARGES
-----------------------
   0 C :   -0.235833
   1 C :    0.077509
   2 C :   -0.181819
   3 O :   -0.506775
   4 O :   -0.499656
   5 O :   -0.487473
   6 H :    0.153286
   7 H :    0.161570
   8 H :    0.158103
   9 H :    0.158273
  10 H :    0.148911
  11 H :    0.350907
  12 H :    0.351348
  13 H :    0.351648
Sum of atomic charges:    0.0000000

LOEWDIN ATOMIC CHARGES
----------------------
   0 C :    0.025006
   1 C :    0.073326
   2 C :    0.018409
   3 O :   -0.641580
   4 O :   -0.616781
   5 O :   -0.630816
   6 H :    0.175413
   7 H :    0.190881
   8 H :    0.184843
   9 H :    0.187588
  10 H :    0.170100
  11 H :    0.286762
  12 H :    0.291066
  13 H :    0.285783

  Mayer bond orders larger than 0.100000
B(  0-C ,  1-C ) :   0.9280 B(  0-C ,  5-O ) :   0.9799 B(  0-C ,  6-H ) :   0.9668
B(  0-C ,  7-H ) :   0.9693 B(  1-C ,  2-C ) :   0.9509 B(  1-C ,  4-O ) :   0.9028
B(  1-C ,  8-H ) :   0.9296 B(  2-C ,  3-O ) :   0.9367 B(  2-C ,  9-H ) :   0.9614
B(  2-C , 10-H ) :   0.9618 B(  3-O , 11-H ) :   0.8541 B(  4-O , 12-H ) :   0.8702
B(  5-O , 13-H ) :   0.8667

Dispersion correction           -0.003037919
FINAL SINGLE POINT ENERGY      -344.745556078832

DIPOLE MOMENT
-------------

Method             : SCF
Type of density    : Electron Density
Multiplicity       :   1
Irrep              :   0
Energy             :  -344.7529745508041401 Eh
Relativity type    :
Basis              : AO
                                X                 Y                 Z
Electronic contribution:     -0.466066717       1.386629755      -0.876949405
Nuclear contribution   :      0.820300363      -1.079875058       2.646906065
                        -----------------------------------------
Total Dipole Moment    :      0.354233647       0.306754697       1.769956660
                        -----------------------------------------
Magnitude (a.u.)       :      1.830935963
Magnitude (Debye)      :      4.653869368

Rotational constants in cm-1:             0.197003             0.075601             0.065086
Rotational constants in MHz :          5905.995830          2266.468745          1951.220365

                             ****ORCA TERMINATED NORMALLY****
TOTAL RUN TIME: 0 days 0 hours 0 minutes 23 seconds 240 msec
