                         Program Version 6.0.0  -   RELEASE  -
|  1> ! r2scan-3c def2/J RI DEFGRID2 scfconv6 printgap
|  2> %output
|  3>     printlevel normal
|  4> end
|  5> * xyz 0 1
|  6> C 2.3257466479 0.9020694551 0.4957719886
|  7> C 1.1492635712 -0.0717080821 0.4819603495
|  8> C 1.5017500183 -1.3206183625 -0.3377715189
|  9> C -0.0695224766 0.5762289258 -0.1445674585
| 10> O 0.0411473251 1.5034559503 -0.9252105496
| 11> C -1.4549889357 0.0316700589 0.1670397705
| 12> C -1.5762176474 -0.8329830768 1.416157578
| 13> C -1.9589311994 -0.7211450851 -1.0738374731
| 14> H 3.2047647354 0.4243451214 0.9190039689
| 15> H 2.0832582334 1.7819097219 1.0874097721
| 16> H 2.5524771472 1.2293530356 -0.5162117597
| 17> H 0.9166049923 -0.3715081654 1.5048395274
| 18> H 1.6610544727 -1.0498037987 -1.379304111
| 19> H 2.4164885503 -1.7607551026 0.0500742371
| 20> H 0.7118865664 -2.0638849136 -0.2871080113
| 21> H -2.0898417385 0.9183077309 0.2854647515
| 22> H -1.0019358101 -1.750093768 1.3230804069
| 23> H -1.2451464764 -0.2920249376 2.2990396547
| 24> H -2.6199058278 -1.1029654021 1.5589184769
| 25> H -1.8508176981 -0.0980286834 -1.9586555252
| 26> H -1.3957598861 -1.6383601177 -1.2233356987
| 27> H -3.0083920232 -0.9739436273 -0.9499281119
| 28> *
| 29>
| 30>                          ****END OF INPUT****

CARTESIAN COORDINATES (ANGSTROEM)
---------------------------------
  C      2.325747    0.902069    0.495772
  C      1.149264   -0.071708    0.481960
  C      1.501750   -1.320618   -0.337772
  C     -0.069522    0.576229   -0.144567
  O      0.041147    1.503456   -0.925211
  C     -1.454989    0.031670    0.167040
  C     -1.576218   -0.832983    1.416158
  C     -1.958931   -0.721145   -1.073837
  H      3.204765    0.424345    0.919004
  H      2.083258    1.781910    1.087410
  H      2.552477    1.229353   -0.516212
  H      0.916605   -0.371508    1.504840
  H      1.661054   -1.049804   -1.379304
  H      2.416489   -1.760755    0.050074
  H      0.711887   -2.063885   -0.287108
  H     -2.089842    0.918308    0.285465
  H     -1.001936   -1.750094    1.323080
  H     -1.245146   -0.292025    2.299040
  H     -2.619906   -1.102965    1.558918
  H     -1.850818   -0.098029   -1.958656
  H     -1.395760   -1.638360   -1.223336
  H     -3.008392   -0.973944   -0.949928

 Total Charge           Charge          ....    0
 Multiplicity           Mult            ....    1
 Number of Electrons    NEL             ....   64
 Basis Dimension        Dim             ....  227

ORBITAL ENERGIES
----------------

  NO   OCC          E(Eh)            E(eV)
   0   2.0000     -18.932599      -515.1822
   1   2.0000     -10.111293      -275.1423
   2   2.0000     -10.045977      -273.3649
   3   2.0000     -10.044714      -273.3306
   4   2.0000     -10.033119      -273.0151
   5   2.0000     -10.029836      -272.9257
   6   2.0000     -10.027684      -272.8672
   7   2.0000     -10.016500      -272.5628
   8   2.0000      -1.000521       -27.2256
   9   2.0000      -0.785229       -21.3672
  10   2.0000      -0.760218       -20.6866
  11   2.0000      -0.663108       -18.0441
  12   2.0000      -0.657114       -17.8810
  13   2.0000      -0.618289       -16.8245
  14   2.0000      -0.566865       -15.4252
  15   2.0000      -0.485856       -13.2208
  16   2.0000      -0.457474       -12.4485
  17   2.0000      -0.433194       -11.7878
  18   2.0000      -0.422822       -11.5056
  19   2.0000      -0.404703       -11.0125
  20   2.0000      -0.391308       -10.6480
  21   2.0000      -0.375793       -10.2258
  22   2.0000      -0.367539       -10.0012
  23   2.0000      -0.359089        -9.7713
  24   2.0000      -0.351087        -9.5536
  25   2.0000      -0.349507        -9.5106
  26   2.0000      -0.331736        -9.0270
  27   2.0000      -0.315991        -8.5986
  28   2.0000      -0.310057        -8.4371
  29   2.0000      -0.304674        -8.2906
  30   2.0000      -0.299201        -8.1417
  31   2.0000      -0.207349        -5.6422
  32   0.0000      -0.047983        -1.3057
  33   0.0000       0.066244         1.8026
  34   0.0000       0.105950         2.8830
  35   0.0000       0.111451         3.0327
  36   0.0000       0.115200         3.1348

MULLIKEN ATOMIC CHARGES
-----------------------
   0 C :   -0.494508
   1 C :   -0.008013
   2 C :   -0.508162
   3 C :    0.231607
   4 O :   -0.355297
   5 C :   -0.079353
   6 C :   -0.499452
   7 C :   -0.493212
   8 H :    0.142955
   9 H :    0.149022
  10 H :    0.172619
  11 H :    0.159612
  12 H :    0.173308
  13 H :    0.155437
  14 H :    0.144256
  15 H :    0.170523
  16 H :    0.151274
  17 H :    0.158116
  18 H :    0.152496
  19 H :    0.178101
  20 H :    0.147191
  21 H :    0.151480
Sum of atomic charges:   -0.0000000

LOEWDIN ATOMIC CHARGES
----------------------
   0 C :   -0.393912
   1 C :   -0.218250
   2 C :   -0.387949
   3 C :    0.239955
   4 O :   -0.474223
   5 C :   -0.217730
   6 C :   -0.413467
   7 C :   -0.386826
   8 H :    0.150779
   9 H :    0.159850
  10 H :    0.170326
  11 H :    0.169137
  12 H :    0.163766
  13 H :    0.158054
  14 H :    0.152413
  15 H :    0.182902
  16 H :    0.154957
  17 H :    0.155602
  18 H :    0.157988
  19 H :    0.169034
  20 H :    0.153280
  21 H :    0.154314

  Mayer bond orders larger than 0.100000
B(  0-C ,  1-C ) :   0.9230 B(  0-C ,  8-H ) :   0.9757 B(  0-C ,  9-H ) :   0.9742
B(  0-C , 10-H ) :   0.9775 B(  1-C ,  2-C ) :   0.8642 B(  1-C ,  3-C ) :   0.8634
B(  1-C , 11-H ) :   0.9374 B(  2-C , 12-H ) :   0.9789 B(  2-C , 13-H ) :   0.9689
B(  2-C , 14-H ) :   0.9680 B(  3-C ,  4-O ) :   1.9092 B(  3-C ,  5-C ) :   0.9096
B(  5-C ,  6-C ) :   0.8614 B(  5-C ,  7-C ) :   0.9176 B(  5-C , 15-H ) :   0.9714
B(  6-C , 16-H ) :   0.9718 B(  6-C , 17-H ) :   0.9829 B(  6-C , 18-H ) :   0.9640
B(  7-C , 19-H ) :   0.9698 B(  7-C , 20-H ) :   0.9703 B(  7-C , 21-H ) :   0.9743

Dispersion correction           -0.006578123
FINAL SINGLE POINT ENERGY      -350.301595762052

DIPOLE MOMENT
-------------

Method             : SCF
Type of density    : Electron Density
Multiplicity       :   1
Irrep              :   0
Energy             :  -350.3055793131785549 Eh
Relativity type    :
Basis              : AO
                                X                 Y                 Z
Electronic contribution:     -0.451672325       5.434446897      -1.899522333
Nuclear contribution   :      0.314647286      -6.307919177       2.531785340
                        -----------------------------------------
Total Dipole Moment    :     -0.137025039      -0.873472280       0.632263007
                        -----------------------------------------
Magnitude (a.u.)       :      1.086961911
Magnitude (Debye)      :      2.762837611

Rotational constants in cm-1:             0.094040             0.048252             0.043298
Rotational constants in MHz :          2819.246050          1446.559505          1298.049064

                             ****ORCA TERMINATED NORMALLY****
TOTAL RUN TIME: 0 days 0 hours 0 minutes 39 seconds 347 msec
