                         Program Version 6.0.0  -   RELEASE  -
|  1> ! r2scan-3c def2/J RI DEFGRID2 scfconv6 printgap
|  2> %output
|  3>     printlevel normal
|  4> end
|  5> %cpcm
|  6>     smd true
|  7>     smdsolvent "water"
|  8> end
|  9> * xyz 0 1
| 10> C 2.3257466479 0.9020694551 0.4957719886
| 11> C 1.1492635712 -0.0717080821 0.4819603495
| 12> C 1.5017500183 -1.3206183625 -0.3377715189
| 13> C -0.0695224766 0.5762289258 -0.1445674585
| 14> O 0.0411473251 1.5034559503 -0.9252105496
| 15> C -1.4549889357 0.0316700589 0.1670397705
| 16> C -1.5762176474 -0.8329830768 1.416157578
| 17> C -1.9589311994 -0.7211450851 -1.0738374731
| 18> H 3.2047647354 0.4243451214 0.9190039689
| 19> H 2.0832582334 1.7819097219 1.0874097721
| 20> H 2.5524771472 1.2293530356 -0.5162117597
| 21> H 0.9166049923 -0.3715081654 1.5048395274
| 22> H 1.6610544727 -1.0498037987 -1.379304111
| 23> H 2.4164885503 -1.7607551026 0.0500742371
| 24> H 0.7118865664 -2.0638849136 -0.2871080113
| 25> H -2.0898417385 0.9183077309 0.2854647515
| 26> H -1.0019358101 -1.750093768 1.3230804069
| 27> H -1.2451464764 -0.2920249376 2.2990396547
| 28> H -2.6199058278 -1.1029654021 1.5589184769
| 29> H -1.8508176981 -0.0980286834 -1.9586555252
| 30> H -1.3957598861 -1.6383601177 -1.2233356987
| 31> H -3.0083920232 -0.9739436273 -0.9499281119
| 32> *
| 33>
| 34>                          ****END OF INPUT****

CARTESIAN COORDINATES (ANGSTROEM)
---------------------------------
  C      2.325747    0.902069    0.495772
  C      1.149264   -0.071708    0.481960
  C      1.501750   -1.320618   -0.337772
  C     -0.069522    0.576229   -0.144567
  O      0.041147    1.503456   -0.925211
  C     -1.454989    0.031670    0.167040
  C     -1.576218   -0.832983    1.416158
  C     -1.958931   -0.721145   -1.073837
  H      3.204765    0.424345    0.919004
  H      2.083258    1.781910    1.087410
  H      2.552477    1.229353   -0.516212
  H      0.916605   -0.371508    1.504840
  H      1.661054   -1.049804   -1.379304
  H      2.416489   -1.760755    0.050074
  H      0.711887   -2.063885   -0.287108
  H     -2.089842    0.918308    0.285465
  H     -1.001936   -1.750094    1.323080
  H     -1.245146   -0.292025    2.299040
  H     -2.619906   -1.102965    1.558918
  H     -1.850818   -0.098029   -1.958656
  H     -1.395760   -1.638360   -1.223336
  H     -3.008392   -0.973944   -0.949928

 Total Charge           Charge          ....    0
 Multiplicity           Mult            ....    1
 Number of Electrons    NEL             ....   64
 Basis Dimension        Dim             ....  227

ORBITAL ENERGIES
----------------

  NO   OCC          E(Eh)            E(eV)
   0   2.0000     -18.944008      -515.4927
   1   2.0000     -10.118129      -275.3283
   2   2.0000     -10.038334      -273.1570
   3   2.0000     -10.037129      -273.1242
   4   2.0000     -10.019713      -272.6502
   5   2.0000     -10.017692      -272.5953
   6   2.0000     -10.013335      -272.4767
   7   2.0000     -10.011459      -272.4257
   8   2.0000      -1.013389       -27.5757
   9   2.0000      -0.777303       -21.1515
  10   2.0000      -0.751223       -20.4418
  11   2.0000      -0.650637       -17.7047
  12   2.0000      -0.648319       -17.6417
  13   2.0000      -0.612143       -16.6573
  14   2.0000      -0.559135       -15.2148
  15   2.0000      -0.481608       -13.1052
  16   2.0000      -0.450002       -12.2452
  17   2.0000      -0.432498       -11.7689
  18   2.0000      -0.417334       -11.3562
  19   2.0000      -0.403708       -10.9855
  20   2.0000      -0.381380       -10.3779
  21   2.0000      -0.367003        -9.9867
  22   2.0000      -0.356499        -9.7008
  23   2.0000      -0.349603        -9.5132
  24   2.0000      -0.346186        -9.4202
  25   2.0000      -0.340821        -9.2742
  26   2.0000      -0.327320        -8.9068
  27   2.0000      -0.306448        -8.3389
  28   2.0000      -0.302024        -8.2185
  29   2.0000      -0.300965        -8.1897
  30   2.0000      -0.292752        -7.9662
  31   2.0000      -0.217090        -5.9073
  32   0.0000      -0.051453        -1.4001
  33   0.0000       0.078315         2.1311
  34   0.0000       0.116451         3.1688
  35   0.0000       0.124631         3.3914
  36   0.0000       0.128026         3.4838

MULLIKEN ATOMIC CHARGES
-----------------------
   0 C :   -0.553957
   1 C :    0.021273
   2 C :   -0.544213
   3 C :    0.258467
   4 O :   -0.456215
   5 C :   -0.058140
   6 C :   -0.544018
   7 C :   -0.529222
   8 H :    0.164609
   9 H :    0.164586
  10 H :    0.167105
  11 H :    0.184370
  12 H :    0.176281
  13 H :    0.171982
  14 H :    0.171871
  15 H :    0.182171
  16 H :    0.171902
  17 H :    0.172653
  18 H :    0.165716
  19 H :    0.169869
  20 H :    0.172263
  21 H :    0.170648
Sum of atomic charges:   -0.0000000

LOEWDIN ATOMIC CHARGES
----------------------
   0 C :   -0.403214
   1 C :   -0.211233
   2 C :   -0.389331
   3 C :    0.256638
   4 O :   -0.548176
   5 C :   -0.211742
   6 C :   -0.415705
   7 C :   -0.390910
   8 H :    0.159048
   9 H :    0.161251
  10 H :    0.164765
  11 H :    0.180736
  12 H :    0.163545
  13 H :    0.163881
  14 H :    0.162310
  15 H :    0.186743
  16 H :    0.161809
  17 H :    0.160960
  18 H :    0.162002
  19 H :    0.164029
  20 H :    0.161465
  21 H :    0.161127

  Mayer bond orders larger than 0.100000
B(  0-C ,  1-C ) :   0.8885 B(  0-C ,  8-H ) :   0.9700 B(  0-C ,  9-H ) :   0.9765
B(  0-C , 10-H ) :   0.9817 B(  1-C ,  2-C ) :   0.8491 B(  1-C ,  3-C ) :   0.8808
B(  1-C , 11-H ) :   0.9284 B(  2-C , 12-H ) :   0.9755 B(  2-C , 13-H ) :   0.9639
B(  2-C , 14-H ) :   0.9620 B(  3-C ,  4-O ) :   1.8350 B(  3-C ,  5-C ) :   0.9251
B(  5-C ,  6-C ) :   0.8562 B(  5-C ,  7-C ) :   0.8938 B(  5-C , 15-H ) :   0.9687
B(  6-C , 16-H ) :   0.9705 B(  6-C , 17-H ) :   0.9775 B(  6-C , 18-H ) :   0.9607
B(  7-C , 19-H ) :   0.9698 B(  7-C , 20-H ) :   0.9686 B(  7-C , 21-H ) :   0.9692

Dispersion correction           -0.006578123
FINAL SINGLE POINT ENERGY      -350.306789507266

DIPOLE MOMENT
-------------

Method             : SCF
Type of density    : Electron Density
Multiplicity       :   1
Irrep              :   0
Energy             :  -350.3107730583927832 Eh
Relativity type    :
Basis              : AO
                                X                 Y                 Z
Electronic contribution:     -0.505749920       4.942035743      -1.526565010
Nuclear contribution   :      0.314647286      -6.307919177       2.531785340
                        -----------------------------------------
Total Dipole Moment    :     -0.191102633      -1.365883434       1.005220330
                        -----------------------------------------
Magnitude (a.u.)       :      1.706641639
Magnitude (Debye)      :      4.337938305

Rotational constants in cm-1:             0.094040             0.048252             0.043298
Rotational constants in MHz :          2819.246050          1446.559505          1298.049064

                             ****ORCA TERMINATED NORMALLY****
TOTAL RUN TIME: 0 days 0 hours 0 minutes 40 seconds 924 msec
