                         Program Version 6.0.0  -   RELEASE  -
|  1> ! r2scan-3c def2/J RI DEFGRID2 scfconv6 printgap
|  2> %output
|  3>     printlevel normal
|  4> end
|  5> * xyz 0 1
|  6> C -1.3602536595 -0.2918526291 -0.452949738
|  7> C -0.0104699909 -0.0377658749 0.2294766257
|  8> C 1.1148255989 -0.7941535013 -0.4953390609
|  9> O 2.3709018318 -0.4945170363 0.0681838866
| 10> O 0.2579273126 1.3480033618 0.2345535864
| 11> O -2.4605907137 0.2091060576 0.262324902
| 12> H -1.4729184505 -1.3712245479 -0.6242956895
| 13> H -1.3755239324 0.2267942373 -1.4132557677
| 14> H -0.0664665824 -0.3905226592 1.2752073499
| 15> H 1.164111771 -0.4540701783 -1.5322312422
| 16> H 0.9162870793 -1.8703991073 -0.4828733615
| 17> H 2.4525820077 -0.9238881554 0.9317817098
| 18> H 1.2206821449 1.4650456812 0.2836740379
| 19> H -2.4599528663 -0.1576509259 1.158002383
| 20> *
| 21>
| 22>                          ****END OF INPUT****

CARTESIAN COORDINATES (ANGSTROEM)
---------------------------------
  C     -1.360254   -0.291853   -0.452950
  C     -0.010470   -0.037766    0.229477
  C      1.114826   -0.794154   -0.495339
  O      2.370902   -0.494517    0.068184
  O      0.257927    1.348003    0.234554
  O     -2.460591    0.209106    0.262325
  H     -1.472918   -1.371225   -0.624296
  H     -1.375524    0.226794   -1.413256
  H     -0.066467   -0.390523    1.275207
  H      1.164112   -0.454070   -1.532231
  H      0.916287   -1.870399   -0.482873
  H      2.452582   -0.923888    0.931782
  H      1.220682    1.465046    0.283674
  H     -2.459953   -0.157651    1.158002

 Total Charge           Charge          ....    0
 Multiplicity           Mult            ....    1
 Number of Electrons    NEL             ....   50
 Basis Dimension        Dim             ....  169

ORBITAL ENERGIES
----------------

  NO   OCC          E(Eh)            E(eV)
   0   2.0000     -18.972488      -516.2676
   1   2.0000     -18.950624      -515.6727
   2   2.0000     -18.946532      -515.5613
   3   2.0000     -10.091398      -274.6009
   4   2.0000     -10.089314      -274.5442
   5   2.0000     -10.081072      -274.3199
   6   2.0000      -1.014754       -27.6129
   7   2.0000      -0.993045       -27.0221
   8   2.0000      -0.976213       -26.5641
   9   2.0000      -0.732713       -19.9381
  10   2.0000      -0.647929       -17.6310
  11   2.0000      -0.582300       -15.8452
  12   2.0000      -0.507804       -13.8180
  13   2.0000      -0.475001       -12.9254
  14   2.0000      -0.471467       -12.8293
  15   2.0000      -0.450261       -12.2522
  16   2.0000      -0.408790       -11.1237
  17   2.0000      -0.392550       -10.6818
  18   2.0000      -0.369733       -10.0609
  19   2.0000      -0.329088        -8.9549
  20   2.0000      -0.319759        -8.7011
  21   2.0000      -0.297674        -8.1001
  22   2.0000      -0.272015        -7.4019
  23   2.0000      -0.239461        -6.5161
  24   2.0000      -0.232313        -6.3216
  25   0.0000       0.038625         1.0510
  26   0.0000       0.059819         1.6278
  27   0.0000       0.085507         2.3268
  28   0.0000       0.092787         2.5249
  29   0.0000       0.116060         3.1581

MULLIKEN ATOMIC CHARGES
-----------------------
   0 C :   -0.210812
   1 C :    0.098342
   2 C :   -0.216622
   3 O :   -0.433286
   4 O :   -0.415963
   5 O :   -0.391818
   6 H :    0.118709
   7 H :    0.151577
   8 H :    0.107766
   9 H :    0.151744
  10 H :    0.131648
  11 H :    0.303960
  12 H :    0.314329
  13 H :    0.290427
Sum of atomic charges:   -0.0000000

LOEWDIN ATOMIC CHARGES
----------------------
   0 C :    0.025044
   1 C :    0.060997
   2 C :    0.017567
   3 O :   -0.607513
   4 O :   -0.582260
   5 O :   -0.587835
   6 H :    0.159628
   7 H :    0.189526
   8 H :    0.159993
   9 H :    0.186356
  10 H :    0.163755
  11 H :    0.268990
  12 H :    0.280795
  13 H :    0.264958

  Mayer bond orders larger than 0.100000
B(  0-C ,  1-C ) :   0.9344 B(  0-C ,  5-O ) :   0.9840 B(  0-C ,  6-H ) :   0.9745
B(  0-C ,  7-H ) :   0.9686 B(  1-C ,  2-C ) :   0.9109 B(  1-C ,  4-O ) :   0.8647
B(  1-C ,  8-H ) :   0.9315 B(  2-C ,  3-O ) :   0.9681 B(  2-C ,  9-H ) :   0.9712
B(  2-C , 10-H ) :   0.9736 B(  3-O , 11-H ) :   0.8932 B(  4-O , 12-H ) :   0.8664
B(  5-O , 13-H ) :   0.8946

Dispersion correction           -0.002974923
FINAL SINGLE POINT ENERGY      -344.721100835600

DIPOLE MOMENT
-------------

Method             : SCF
Type of density    : Electron Density
Multiplicity       :   1
Irrep              :   0
Energy             :  -344.7287039832077085 Eh
Relativity type    :
Basis              : AO
                                X                 Y                 Z
Electronic contribution:      0.145284917       2.087196119       0.884067483
Nuclear contribution   :      0.357879739      -3.245230612      -0.370621277
                        -----------------------------------------
Total Dipole Moment    :      0.503164656      -1.158034493       0.513446206
                        -----------------------------------------
Magnitude (a.u.)       :      1.363028087
Magnitude (Debye)      :      3.464542064

Rotational constants in cm-1:             0.263127             0.064341             0.056120
Rotational constants in MHz :          7888.334138          1928.894128          1682.421549

                             ****ORCA TERMINATED NORMALLY****
TOTAL RUN TIME: 0 days 0 hours 0 minutes 20 seconds 371 msec
