                         Program Version 6.0.0  -   RELEASE  -
|  1> ! r2scan-3c def2/J RI DEFGRID2 scfconv6 printgap
|  2> %output
|  3>     printlevel normal
|  4> end
|  5> %cpcm
|  6>     smd true
|  7>     smdsolvent "water"
|  8> end
|  9> * xyz 0 1
| 10> C -1.3602536595 -0.2918526291 -0.452949738
| 11> C -0.0104699909 -0.0377658749 0.2294766257
| 12> C 1.1148255989 -0.7941535013 -0.4953390609
| 13> O 2.3709018318 -0.4945170363 0.0681838866
| 14> O 0.2579273126 1.3480033618 0.2345535864
| 15> O -2.4605907137 0.2091060576 0.262324902
| 16> H -1.4729184505 -1.3712245479 -0.6242956895
| 17> H -1.3755239324 0.2267942373 -1.4132557677
| 18> H -0.0664665824 -0.3905226592 1.2752073499
| 19> H 1.164111771 -0.4540701783 -1.5322312422
| 20> H 0.9162870793 -1.8703991073 -0.4828733615
| 21> H 2.4525820077 -0.9238881554 0.9317817098
| 22> H 1.2206821449 1.4650456812 0.2836740379
| 23> H -2.4599528663 -0.1576509259 1.158002383
| 24> *
| 25>
| 26>                          ****END OF INPUT****

CARTESIAN COORDINATES (ANGSTROEM)
---------------------------------
  C     -1.360254   -0.291853   -0.452950
  C     -0.010470   -0.037766    0.229477
  C      1.114826   -0.794154   -0.495339
  O      2.370902   -0.494517    0.068184
  O      0.257927    1.348003    0.234554
  O     -2.460591    0.209106    0.262325
  H     -1.472918   -1.371225   -0.624296
  H     -1.375524    0.226794   -1.413256
  H     -0.066467   -0.390523    1.275207
  H      1.164112   -0.454070   -1.532231
  H      0.916287   -1.870399   -0.482873
  H      2.452582   -0.923888    0.931782
  H      1.220682    1.465046    0.283674
  H     -2.459953   -0.157651    1.158002

 Total Charge           Charge          ....    0
 Multiplicity           Mult            ....    1
 Number of Electrons    NEL             ....   50
 Basis Dimension        Dim             ....  169

ORBITAL ENERGIES
----------------

  NO   OCC          E(Eh)            E(eV)
   0   2.0000     -18.959364      -515.9105
   1   2.0000     -18.954448      -515.7767
   2   2.0000     -18.952397      -515.7209
   3   2.0000     -10.079140      -274.2674
   4   2.0000     -10.074831      -274.1501
   5   2.0000     -10.073498      -274.1138
   6   2.0000      -1.007148       -27.4059
   7   2.0000      -0.992106       -26.9966
   8   2.0000      -0.977669       -26.6037
   9   2.0000      -0.722622       -19.6635
  10   2.0000      -0.637291       -17.3416
  11   2.0000      -0.574725       -15.6391
  12   2.0000      -0.499907       -13.6032
  13   2.0000      -0.466577       -12.6962
  14   2.0000      -0.461976       -12.5710
  15   2.0000      -0.442676       -12.0458
  16   2.0000      -0.401483       -10.9249
  17   2.0000      -0.388427       -10.5696
  18   2.0000      -0.366749        -9.9797
  19   2.0000      -0.332769        -9.0551
  20   2.0000      -0.315135        -8.5753
  21   2.0000      -0.293828        -7.9955
  22   2.0000      -0.271069        -7.3762
  23   2.0000      -0.237460        -6.4616
  24   2.0000      -0.236322        -6.4307
  25   0.0000       0.060362         1.6425
  26   0.0000       0.079946         2.1754
  27   0.0000       0.102919         2.8006
  28   0.0000       0.112257         3.0547
  29   0.0000       0.128838         3.5059

MULLIKEN ATOMIC CHARGES
-----------------------
   0 C :   -0.215698
   1 C :    0.100499
   2 C :   -0.217101
   3 O :   -0.499262
   4 O :   -0.503895
   5 O :   -0.489580
   6 H :    0.144463
   7 H :    0.163008
   8 H :    0.144516
   9 H :    0.163033
  10 H :    0.155560
  11 H :    0.355401
  12 H :    0.347901
  13 H :    0.351154
Sum of atomic charges:   -0.0000000

LOEWDIN ATOMIC CHARGES
----------------------
   0 C :    0.024708
   1 C :    0.067322
   2 C :    0.023192
   3 O :   -0.630369
   4 O :   -0.626988
   5 O :   -0.629808
   6 H :    0.174187
   7 H :    0.190037
   8 H :    0.177051
   9 H :    0.188577
  10 H :    0.177121
  11 H :    0.287913
  12 H :    0.291656
  13 H :    0.285400

  Mayer bond orders larger than 0.100000
B(  0-C ,  1-C ) :   0.9362 B(  0-C ,  5-O ) :   0.9666 B(  0-C ,  6-H ) :   0.9635
B(  0-C ,  7-H ) :   0.9697 B(  1-C ,  2-C ) :   0.9337 B(  1-C ,  4-O ) :   0.8521
B(  1-C ,  8-H ) :   0.9274 B(  2-C ,  3-O ) :   0.9616 B(  2-C ,  9-H ) :   0.9692
B(  2-C , 10-H ) :   0.9601 B(  3-O , 11-H ) :   0.8664 B(  4-O , 12-H ) :   0.8501
B(  5-O , 13-H ) :   0.8657

Dispersion correction           -0.002974923
FINAL SINGLE POINT ENERGY      -344.745211868077

DIPOLE MOMENT
-------------

Method             : SCF
Type of density    : Electron Density
Multiplicity       :   1
Irrep              :   0
Energy             :  -344.7528150156838365 Eh
Relativity type    :
Basis              : AO
                                X                 Y                 Z
Electronic contribution:      0.301868987       1.540025680       1.122668165
Nuclear contribution   :      0.357879739      -3.245230612      -0.370621277
                        -----------------------------------------
Total Dipole Moment    :      0.659748726      -1.705204931       0.752046888
                        -----------------------------------------
Magnitude (a.u.)       :      1.977009550
Magnitude (Debye)      :      5.025158921

Rotational constants in cm-1:             0.263127             0.064341             0.056120
Rotational constants in MHz :          7888.334138          1928.894128          1682.421549

                             ****ORCA TERMINATED NORMALLY****
TOTAL RUN TIME: 0 days 0 hours 0 minutes 23 seconds 541 msec
