                         Program Version 6.0.0  -   RELEASE  -
|  1> ! pbe def2-sv(p) def2/J RI DEFGRID1 loosescf d4 GCP(DFT/SV(P)) printgap
|  2> %output
|  3>     printlevel normal
|  4> end
|  5> * xyz 0 1
|  6> C 2.1687956497 -1.2780527879 -0.2682436889
|  7> C 1.6450223881 0.1458859303 -0.4060932386
|  8> C 0.3421704485 0.3835287665 0.3719791886
|  9> H 0.4808712873 0.0254919406 1.3986647636
| 10> C -0.8621580242 -0.3723588434 -0.2640094823
| 11> C -1.4230913131 -1.399698818 0.7184316659
| 12> C -1.9752042257 0.5734825193 -0.7150129078
| 13> O 0.1163924495 1.7717498642 0.5394383708
| 14> H 2.3523669039 -1.5133256904 0.7774108629
| 15> H 3.1021670062 -1.3867149378 -0.8145069471
| 16> H 1.4561360145 -1.9980036078 -0.6617343597
| 17> H 2.393916693 0.8414299425 -0.0194746504
| 18> H 1.4800361508 0.3799476235 -1.4611587985
| 19> H -0.5002817376 -0.9071681838 -1.1481324408
| 20> H -1.8172024332 -0.8993065682 1.6002355468
| 21> H -2.227306747 -1.9673477495 0.2558125844
| 22> H -0.6480331593 -2.0948405745 1.032055971
| 23> H -2.8232821072 -0.0057427108 -1.0715558589
| 24> H -1.6423003417 1.2167544318 -1.526202975
| 25> H -2.3032501975 1.1956238136 0.1143995865
| 26> H 0.0934448178 2.1931143321 -0.330279284
| 27> *
| 28>
| 29>                          ****END OF INPUT****

CARTESIAN COORDINATES (ANGSTROEM)
---------------------------------
  C      2.168796   -1.278053   -0.268244
  C      1.645022    0.145886   -0.406093
  C      0.342170    0.383529    0.371979
  H      0.480871    0.025492    1.398665
  C     -0.862158   -0.372359   -0.264009
  C     -1.423091   -1.399699    0.718432
  C     -1.975204    0.573483   -0.715013
  O      0.116392    1.771750    0.539438
  H      2.352367   -1.513326    0.777411
  H      3.102167   -1.386715   -0.814507
  H      1.456136   -1.998004   -0.661734
  H      2.393917    0.841430   -0.019475
  H      1.480036    0.379948   -1.461159
  H     -0.500282   -0.907168   -1.148132
  H     -1.817202   -0.899307    1.600236
  H     -2.227307   -1.967348    0.255813
  H     -0.648033   -2.094841    1.032056
  H     -2.823282   -0.005743   -1.071556
  H     -1.642300    1.216754   -1.526203
  H     -2.303250    1.195624    0.114400
  H      0.093445    2.193114   -0.330279

 Total Charge           Charge          ....    0
 Multiplicity           Mult            ....    1
 Number of Electrons    NEL             ....   58
 Basis Dimension        Dim             ....  126

ORBITAL ENERGIES
----------------

  NO   OCC          E(Eh)            E(eV)
   0   2.0000     -18.736894      -509.8568
   1   2.0000      -9.930330      -270.2180
   2   2.0000      -9.891707      -269.1670
   3   2.0000      -9.883351      -268.9397
   4   2.0000      -9.877799      -268.7886
   5   2.0000      -9.872514      -268.6448
   6   2.0000      -9.872290      -268.6387
   7   2.0000      -0.916110       -24.9286
   8   2.0000      -0.724223       -19.7071
   9   2.0000      -0.687795       -18.7159
  10   2.0000      -0.610710       -16.6183
  11   2.0000      -0.597840       -16.2681
  12   2.0000      -0.536455       -14.5977
  13   2.0000      -0.512268       -13.9395
  14   2.0000      -0.433621       -11.7994
  15   2.0000      -0.417036       -11.3481
  16   2.0000      -0.411016       -11.1843
  17   2.0000      -0.381012       -10.3679
  18   2.0000      -0.377528       -10.2731
  19   2.0000      -0.347994        -9.4694
  20   2.0000      -0.344120        -9.3640
  21   2.0000      -0.335403        -9.1268
  22   2.0000      -0.321906        -8.7595
  23   2.0000      -0.306343        -8.3360
  24   2.0000      -0.301084        -8.1929
  25   2.0000      -0.290444        -7.9034
  26   2.0000      -0.280759        -7.6398
  27   2.0000      -0.256651        -6.9838
  28   2.0000      -0.208879        -5.6839
  29   0.0000       0.023614         0.6426
  30   0.0000       0.041839         1.1385
  31   0.0000       0.060242         1.6393
  32   0.0000       0.068226         1.8565
  33   0.0000       0.090993         2.4760

MULLIKEN ATOMIC CHARGES
-----------------------
   0 C :   -0.285035
   1 C :   -0.196653
   2 C :    0.084186
   3 H :    0.062509
   4 C :   -0.178996
   5 C :   -0.266722
   6 C :   -0.253064
   7 O :   -0.415281
   8 H :    0.103508
   9 H :    0.105958
  10 H :    0.110052
  11 H :    0.089920
  12 H :    0.076239
  13 H :    0.074659
  14 H :    0.105534
  15 H :    0.096720
  16 H :    0.102625
  17 H :    0.096461
  18 H :    0.083649
  19 H :    0.111259
  20 H :    0.292473
Sum of atomic charges:   -0.0000000

LOEWDIN ATOMIC CHARGES
----------------------
   0 C :   -0.341002
   1 C :   -0.247906
   2 C :   -0.044528
   3 H :    0.110230
   4 C :   -0.171869
   5 C :   -0.329245
   6 C :   -0.334574
   7 O :   -0.317516
   8 H :    0.119411
   9 H :    0.122139
  10 H :    0.117366
  11 H :    0.117288
  12 H :    0.109322
  13 H :    0.111979
  14 H :    0.120082
  15 H :    0.116100
  16 H :    0.115303
  17 H :    0.118207
  18 H :    0.107924
  19 H :    0.122793
  20 H :    0.278498

  Mayer bond orders larger than 0.100000
B(  0-C ,  1-C ) :   1.1413 B(  0-C ,  8-H ) :   0.9522 B(  0-C ,  9-H ) :   0.9480
B(  0-C , 10-H ) :   0.9460 B(  1-C ,  2-C ) :   1.0867 B(  1-C , 11-H ) :   0.9176
B(  1-C , 12-H ) :   0.9138 B(  2-C ,  3-H ) :   0.9104 B(  2-C ,  4-C ) :   0.9402
B(  2-C ,  7-O ) :   1.0825 B(  4-C ,  5-C ) :   1.1074 B(  4-C ,  6-C ) :   1.1329
B(  4-C , 13-H ) :   0.8996 B(  5-C , 14-H ) :   0.9497 B(  5-C , 15-H ) :   0.9492
B(  5-C , 16-H ) :   0.9483 B(  6-C , 17-H ) :   0.9453 B(  6-C , 18-H ) :   0.9467
B(  6-C , 19-H ) :   0.9400 B(  7-O , 20-H ) :   0.8452

Dispersion correction           -0.016654903
FINAL SINGLE POINT ENERGY      -311.512779090431

DIPOLE MOMENT
-------------

Method             : SCF
Type of density    : Electron Density
Multiplicity       :   1
Irrep              :   0
Energy             :  -311.5926350584066995 Eh
Relativity type    :
Basis              : AO
                                X                 Y                 Z
Electronic contribution:      0.652914614       4.369069475       1.203866735
Nuclear contribution   :     -0.563720562      -4.589553013      -1.731786717
                        -----------------------------------------
Total Dipole Moment    :      0.089194052      -0.220483539      -0.527919982
                        -----------------------------------------
Magnitude (a.u.)       :      0.579023382
Magnitude (Debye)      :      1.471760475

Rotational constants in cm-1:             0.104202             0.064570             0.048217
Rotational constants in MHz :          3123.908268          1935.750312          1445.519329

                             ****ORCA TERMINATED NORMALLY****
TOTAL RUN TIME: 0 days 0 hours 0 minutes 9 seconds 164 msec
