                         Program Version 6.0.0  -   RELEASE  -
|  1> ! pbe def2-sv(p) def2/J RI DEFGRID1 loosescf d4 GCP(DFT/SV(P)) printgap
|  2> %output
|  3>     printlevel normal
|  4> end
|  5> * xyz 0 1
|  6> C -2.6857481265 0.408542023 0.9431616278
|  7> C -2.1530649797 0.3988752213 -0.4849306449
|  8> C -0.871613813 -0.4132737313 -0.6049339256
|  9> O 0.1685717124 0.2663115074 0.1138534487
| 10> C 1.4120427933 -0.1679751103 -0.0355988096
| 11> O 1.7047918414 -1.1092786974 -0.7464019446
| 12> C 2.3861489784 0.634900976 0.772831354
| 13> H -2.9302948866 -0.6008716739 1.2648009239
| 14> H -1.9379691528 0.8154342616 1.6185669334
| 15> H -3.5818600455 1.0191638948 1.0064313406
| 16> H -1.9476484957 1.4195629994 -0.8093556226
| 17> H -2.8919328715 -0.0358249567 -1.1580655902
| 18> H -0.9909538366 -1.4142976508 -0.1771469039
| 19> H -0.5563662561 -0.5227009925 -1.6480151784
| 20> H 1.897860153 1.5166049268 1.1729773316
| 21> H 3.2317560879 0.9078485745 0.147790707
| 22> H 2.7574772801 0.0150974373 1.5858312771
| 23> *
| 24>
| 25>                          ****END OF INPUT****

CARTESIAN COORDINATES (ANGSTROEM)
---------------------------------
  C     -2.685748    0.408542    0.943162
  C     -2.153065    0.398875   -0.484931
  C     -0.871614   -0.413274   -0.604934
  O      0.168572    0.266312    0.113853
  C      1.412043   -0.167975   -0.035599
  O      1.704792   -1.109279   -0.746402
  C      2.386149    0.634901    0.772831
  H     -2.930295   -0.600872    1.264801
  H     -1.937969    0.815434    1.618567
  H     -3.581860    1.019164    1.006431
  H     -1.947648    1.419563   -0.809356
  H     -2.891933   -0.035825   -1.158066
  H     -0.990954   -1.414298   -0.177147
  H     -0.556366   -0.522701   -1.648015
  H      1.897860    1.516605    1.172977
  H      3.231756    0.907849    0.147791
  H      2.757477    0.015097    1.585831

 Total Charge           Charge          ....    0
 Multiplicity           Mult            ....    1
 Number of Electrons    NEL             ....   56
 Basis Dimension        Dim             ....  118

ORBITAL ENERGIES
----------------

  NO   OCC          E(Eh)            E(eV)
   0   2.0000     -18.798277      -511.5271
   1   2.0000     -18.730108      -509.6721
   2   2.0000     -10.004334      -272.2318
   3   2.0000      -9.942402      -270.5465
   4   2.0000      -9.896296      -269.2919
   5   2.0000      -9.891191      -269.1530
   6   2.0000      -9.880119      -268.8517
   7   2.0000      -1.004555       -27.3353
   8   2.0000      -0.905937       -24.6518
   9   2.0000      -0.725628       -19.7453
  10   2.0000      -0.676789       -18.4164
  11   2.0000      -0.620807       -16.8930
  12   2.0000      -0.549455       -14.9514
  13   2.0000      -0.503668       -13.7055
  14   2.0000      -0.445398       -12.1199
  15   2.0000      -0.432996       -11.7824
  16   2.0000      -0.412933       -11.2365
  17   2.0000      -0.400558       -10.8997
  18   2.0000      -0.386739       -10.5237
  19   2.0000      -0.373623       -10.1668
  20   2.0000      -0.358104        -9.7445
  21   2.0000      -0.337612        -9.1869
  22   2.0000      -0.323340        -8.7985
  23   2.0000      -0.311238        -8.4692
  24   2.0000      -0.304414        -8.2835
  25   2.0000      -0.290787        -7.9127
  26   2.0000      -0.255131        -6.9425
  27   2.0000      -0.215501        -5.8641
  28   0.0000      -0.017985        -0.4894
  29   0.0000       0.037603         1.0232
  30   0.0000       0.056826         1.5463
  31   0.0000       0.075342         2.0502
  32   0.0000       0.079761         2.1704

MULLIKEN ATOMIC CHARGES
-----------------------
   0 C :   -0.290755
   1 C :   -0.176200
   2 C :   -0.005772
   3 O :   -0.240289
   4 C :    0.081716
   5 O :   -0.220254
   6 C :   -0.249538
   7 H :    0.099254
   8 H :    0.112465
   9 H :    0.108094
  10 H :    0.098032
  11 H :    0.095362
  12 H :    0.096472
  13 H :    0.107734
  14 H :    0.116162
  15 H :    0.131780
  16 H :    0.135737
Sum of atomic charges:   -0.0000000

LOEWDIN ATOMIC CHARGES
----------------------
   0 C :   -0.343513
   1 C :   -0.245016
   2 C :   -0.102587
   3 O :   -0.069014
   4 C :    0.027517
   5 O :   -0.176361
   6 C :   -0.360309
   7 H :    0.118070
   8 H :    0.121335
   9 H :    0.121121
  10 H :    0.123447
  11 H :    0.125264
  12 H :    0.114359
  13 H :    0.117035
  14 H :    0.133506
  15 H :    0.145933
  16 H :    0.149214

  Mayer bond orders larger than 0.100000
B(  0-C ,  1-C ) :   1.1465 B(  0-C ,  7-H ) :   0.9552 B(  0-C ,  8-H ) :   0.9542
B(  0-C ,  9-H ) :   0.9539 B(  1-C ,  2-C ) :   1.1082 B(  1-C , 10-H ) :   0.9226
B(  1-C , 11-H ) :   0.9206 B(  2-C ,  3-O ) :   0.9103 B(  2-C , 12-H ) :   0.9295
B(  2-C , 13-H ) :   0.9246 B(  3-O ,  4-C ) :   1.2111 B(  4-C ,  5-O ) :   2.0438
B(  4-C ,  6-C ) :   1.0883 B(  6-C , 14-H ) :   0.9384 B(  6-C , 15-H ) :   0.9330
B(  6-C , 16-H ) :   0.9275

Dispersion correction           -0.011637685
FINAL SINGLE POINT ENERGY      -346.244163543204

DIPOLE MOMENT
-------------

Method             : SCF
Type of density    : Electron Density
Multiplicity       :   1
Irrep              :   0
Energy             :  -346.3091081412572407 Eh
Relativity type    :
Basis              : AO
                                X                 Y                 Z
Electronic contribution:      6.005268039      -2.403877329      -2.472069517
Nuclear contribution   :     -6.492423495       2.914599485       2.808702654
                        -----------------------------------------
Total Dipole Moment    :     -0.487155456       0.510722157       0.336633137
                        -----------------------------------------
Magnitude (a.u.)       :      0.781971501
Magnitude (Debye)      :      1.987613598

Rotational constants in cm-1:             0.195707             0.045550             0.039552
Rotational constants in MHz :          5867.136552          1365.559098          1185.742575

                             ****ORCA TERMINATED NORMALLY****
TOTAL RUN TIME: 0 days 0 hours 0 minutes 8 seconds 338 msec
