                         Program Version 6.0.0  -   RELEASE  -
|  1> ! pbe def2-sv(p) def2/J RI DEFGRID1 loosescf d4 GCP(DFT/SV(P)) printgap
|  2> %output
|  3>     printlevel normal
|  4> end
|  5> * xyz 0 1
|  6> C -2.1689069716 0.9382658272 -0.8534386835
|  7> C -1.8953424095 0.0267860492 0.3425218165
|  8> C -0.4562390258 -0.4213891811 0.3865489149
|  9> O -0.099469944 -1.5805477452 0.4504529359
| 10> O 0.3830151813 0.6048524884 0.3684353147
| 11> C 1.7941695066 0.33646205 0.3885589439
| 12> C 2.3275238891 0.0873988193 -1.0140434413
| 13> H -1.5309877101 1.8163160996 -0.8099452342
| 14> H -1.9765037416 0.4113894135 -1.7848011579
| 15> H -3.2074998404 1.2550051793 -0.8421156087
| 16> H -2.5223116821 -0.8640290654 0.3081999249
| 17> H -2.0989362195 0.5689392669 1.2675490382
| 18> H 2.2364851446 1.2306219688 0.828728765
| 19> H 1.9752497171 -0.5326730074 1.0282994261
| 20> H 2.1009218461 0.9331553266 -1.6574065811
| 21> H 3.4026921919 -0.0522454082 -0.9702968999
| 22> H 1.8722775446 -0.8081375204 -1.4313557384
| 23> *
| 24>
| 25>                          ****END OF INPUT****

CARTESIAN COORDINATES (ANGSTROEM)
---------------------------------
  C     -2.168907    0.938266   -0.853439
  C     -1.895342    0.026786    0.342522
  C     -0.456239   -0.421389    0.386549
  O     -0.099470   -1.580548    0.450453
  O      0.383015    0.604852    0.368435
  C      1.794170    0.336462    0.388559
  C      2.327524    0.087399   -1.014043
  H     -1.530988    1.816316   -0.809945
  H     -1.976504    0.411389   -1.784801
  H     -3.207500    1.255005   -0.842116
  H     -2.522312   -0.864029    0.308200
  H     -2.098936    0.568939    1.267549
  H      2.236485    1.230622    0.828729
  H      1.975250   -0.532673    1.028299
  H      2.100922    0.933155   -1.657407
  H      3.402692   -0.052245   -0.970297
  H      1.872278   -0.808138   -1.431356

 Total Charge           Charge          ....    0
 Multiplicity           Mult            ....    1
 Number of Electrons    NEL             ....   56
 Basis Dimension        Dim             ....  118

ORBITAL ENERGIES
----------------

  NO   OCC          E(Eh)            E(eV)
   0   2.0000     -18.797513      -511.5063
   1   2.0000     -18.729806      -509.6639
   2   2.0000     -10.004406      -272.2337
   3   2.0000      -9.946800      -270.6662
   4   2.0000      -9.898820      -269.3606
   5   2.0000      -9.886773      -269.0328
   6   2.0000      -9.885501      -268.9982
   7   2.0000      -1.004416       -27.3316
   8   2.0000      -0.906911       -24.6783
   9   2.0000      -0.721780       -19.6406
  10   2.0000      -0.685354       -18.6494
  11   2.0000      -0.604192       -16.4409
  12   2.0000      -0.567824       -15.4513
  13   2.0000      -0.495357       -13.4793
  14   2.0000      -0.451718       -12.2919
  15   2.0000      -0.435089       -11.8394
  16   2.0000      -0.406911       -11.0726
  17   2.0000      -0.395850       -10.7716
  18   2.0000      -0.390412       -10.6236
  19   2.0000      -0.359030        -9.7697
  20   2.0000      -0.357433        -9.7262
  21   2.0000      -0.341004        -9.2792
  22   2.0000      -0.322503        -8.7758
  23   2.0000      -0.320302        -8.7159
  24   2.0000      -0.309355        -8.4180
  25   2.0000      -0.289775        -7.8852
  26   2.0000      -0.255304        -6.9472
  27   2.0000      -0.213695        -5.8149
  28   0.0000      -0.019220        -0.5230
  29   0.0000       0.040491         1.1018
  30   0.0000       0.059717         1.6250
  31   0.0000       0.078779         2.1437
  32   0.0000       0.086739         2.3603

MULLIKEN ATOMIC CHARGES
-----------------------
   0 C :   -0.300987
   1 C :   -0.143621
   2 C :    0.099019
   3 O :   -0.207378
   4 O :   -0.242752
   5 C :   -0.011819
   6 C :   -0.304243
   7 H :    0.118568
   8 H :    0.109606
   9 H :    0.110448
  10 H :    0.103495
  11 H :    0.111459
  12 H :    0.100436
  13 H :    0.107384
  14 H :    0.112091
  15 H :    0.111959
  16 H :    0.126336
Sum of atomic charges:   -0.0000000

LOEWDIN ATOMIC CHARGES
----------------------
   0 C :   -0.337258
   1 C :   -0.250193
   2 C :    0.035299
   3 O :   -0.171587
   4 O :   -0.067763
   5 C :   -0.112467
   6 C :   -0.356304
   7 H :    0.123190
   8 H :    0.122291
   9 H :    0.122662
  10 H :    0.133344
  11 H :    0.139112
  12 H :    0.116421
  13 H :    0.119130
  14 H :    0.123678
  15 H :    0.130121
  16 H :    0.130324

  Mayer bond orders larger than 0.100000
B(  0-C ,  1-C ) :   1.1365 B(  0-C ,  7-H ) :   0.9501 B(  0-C ,  8-H ) :   0.9570
B(  0-C ,  9-H ) :   0.9512 B(  1-C ,  2-C ) :   1.0341 B(  1-C , 10-H ) :   0.9170
B(  1-C , 11-H ) :   0.8991 B(  2-C ,  3-O ) :   2.0565 B(  2-C ,  4-O ) :   1.1937
B(  4-O ,  5-C ) :   0.9246 B(  5-C ,  6-C ) :   1.1719 B(  5-C , 12-H ) :   0.9373
B(  5-C , 13-H ) :   0.9145 B(  6-C , 14-H ) :   0.9492 B(  6-C , 15-H ) :   0.9444
B(  6-C , 16-H ) :   0.9462

Dispersion correction           -0.012143040
FINAL SINGLE POINT ENERGY      -346.244364622815

DIPOLE MOMENT
-------------

Method             : SCF
Type of density    : Electron Density
Multiplicity       :   1
Irrep              :   0
Energy             :  -346.3090081446376871 Eh
Relativity type    :
Basis              : AO
                                X                 Y                 Z
Electronic contribution:     -0.096681100      -2.961030247       3.685399755
Nuclear contribution   :      0.240047160       3.699121063      -3.799767532
                        -----------------------------------------
Total Dipole Moment    :      0.143366059       0.738090816      -0.114367778
                        -----------------------------------------
Magnitude (a.u.)       :      0.760533936
Magnitude (Debye)      :      1.933123638

Rotational constants in cm-1:             0.147859             0.056656             0.048542
Rotational constants in MHz :          4432.694891          1698.508999          1455.240678

                             ****ORCA TERMINATED NORMALLY****
TOTAL RUN TIME: 0 days 0 hours 0 minutes 9 seconds 12 msec
