                         Program Version 6.0.0  -   RELEASE  -
|  1> ! r2scan-3c def2/J RI DEFGRID2 scfconv6 printgap
|  2> %output
|  3>     printlevel normal
|  4> end
|  5> * xyz 0 1
|  6> C 2.1982412236 1.0515925002 0.1728501752
|  7> C 1.3861187994 0.3696728412 -0.9256902929
|  8> C 0.2574164343 -0.5762610155 -0.4631490326
|  9> H 0.1246226437 -1.3066786929 -1.2724141085
| 10> C 0.6524104742 -1.3642298757 0.7844990191
| 11> C -1.1086362967 0.1355180893 -0.3403715552
| 12> C -2.2340849452 -0.8729771839 -0.0995837207
| 13> C -1.169648317 1.2275862284 0.7250562446
| 14> H 2.90164318 1.7472428428 -0.2806919721
| 15> H 1.5675706655 1.6071189828 0.8590025015
| 16> H 2.7683860695 0.3236422431 0.7431107095
| 17> H 2.0844354565 -0.2088208409 -1.536233628
| 18> H 0.9523535426 1.1340319736 -1.5748682379
| 19> H -0.0778770509 -2.1414548726 0.9913623176
| 20> H 1.6151758619 -1.8445092089 0.6246340519
| 21> H 0.7295694036 -0.7208550273 1.6554309324
| 22> H -1.2965744242 0.6098157017 -1.3123613143
| 23> H -3.2007078009 -0.389469468 -0.2226358207
| 24> H -2.185375207 -1.2741705124 0.9092831903
| 25> H -2.1731930901 -1.6977286212 -0.8062591563
| 26> H -2.1809303003 1.6260599644 0.7789521382
| 27> H -0.5011246102 2.0485180418 0.483747891
| 28> H -0.9112945717 0.8340191522 1.7044391965
| 29> *
| 30>
| 31>                          ****END OF INPUT****

CARTESIAN COORDINATES (ANGSTROEM)
---------------------------------
  C      2.198241    1.051593    0.172850
  C      1.386119    0.369673   -0.925690
  C      0.257416   -0.576261   -0.463149
  H      0.124623   -1.306679   -1.272414
  C      0.652410   -1.364230    0.784499
  C     -1.108636    0.135518   -0.340372
  C     -2.234085   -0.872977   -0.099584
  C     -1.169648    1.227586    0.725056
  H      2.901643    1.747243   -0.280692
  H      1.567571    1.607119    0.859003
  H      2.768386    0.323642    0.743111
  H      2.084435   -0.208821   -1.536234
  H      0.952354    1.134032   -1.574868
  H     -0.077877   -2.141455    0.991362
  H      1.615176   -1.844509    0.624634
  H      0.729569   -0.720855    1.655431
  H     -1.296574    0.609816   -1.312361
  H     -3.200708   -0.389469   -0.222636
  H     -2.185375   -1.274171    0.909283
  H     -2.173193   -1.697729   -0.806259
  H     -2.180930    1.626060    0.778952
  H     -0.501125    2.048518    0.483748
  H     -0.911295    0.834019    1.704439

 Total Charge           Charge          ....    0
 Multiplicity           Mult            ....    1
 Number of Electrons    NEL             ....   58
 Basis Dimension        Dim             ....  213

ORBITAL ENERGIES
----------------

  NO   OCC          E(Eh)            E(eV)
   0   2.0000     -10.028805      -272.8977
   1   2.0000     -10.027273      -272.8560
   2   2.0000     -10.020306      -272.6664
   3   2.0000     -10.012120      -272.4436
   4   2.0000     -10.011800      -272.4349
   5   2.0000     -10.011627      -272.4302
   6   2.0000     -10.011563      -272.4285
   7   2.0000      -0.786989       -21.4151
   8   2.0000      -0.727437       -19.7946
   9   2.0000      -0.680481       -18.5168
  10   2.0000      -0.645820       -17.5737
  11   2.0000      -0.616200       -16.7677
  12   2.0000      -0.553263       -15.0551
  13   2.0000      -0.494014       -13.4428
  14   2.0000      -0.439488       -11.9591
  15   2.0000      -0.424749       -11.5580
  16   2.0000      -0.422406       -11.4943
  17   2.0000      -0.383875       -10.4458
  18   2.0000      -0.365163        -9.9366
  19   2.0000      -0.359226        -9.7750
  20   2.0000      -0.353952        -9.6315
  21   2.0000      -0.350137        -9.5277
  22   2.0000      -0.337768        -9.1911
  23   2.0000      -0.324897        -8.8409
  24   2.0000      -0.307521        -8.3681
  25   2.0000      -0.301544        -8.2054
  26   2.0000      -0.277826        -7.5600
  27   2.0000      -0.274553        -7.4710
  28   2.0000      -0.264773        -7.2048
  29   0.0000       0.075693         2.0597
  30   0.0000       0.104206         2.8356
  31   0.0000       0.116297         3.1646
  32   0.0000       0.119153         3.2423
  33   0.0000       0.131592         3.5808

MULLIKEN ATOMIC CHARGES
-----------------------
   0 C :   -0.475719
   1 C :   -0.315012
   2 C :    0.002386
   3 H :    0.155296
   4 C :   -0.561232
   5 C :   -0.028102
   6 C :   -0.519608
   7 C :   -0.537655
   8 H :    0.145666
   9 H :    0.156878
  10 H :    0.149577
  11 H :    0.147939
  12 H :    0.141477
  13 H :    0.155851
  14 H :    0.154756
  15 H :    0.164462
  16 H :    0.153934
  17 H :    0.148997
  18 H :    0.156681
  19 H :    0.147330
  20 H :    0.142361
  21 H :    0.151271
  22 H :    0.162464
Sum of atomic charges:    0.0000000

LOEWDIN ATOMIC CHARGES
----------------------
   0 C :   -0.425719
   1 C :   -0.310939
   2 C :   -0.235871
   3 H :    0.159286
   4 C :   -0.415150
   5 C :   -0.240759
   6 C :   -0.418606
   7 C :   -0.416742
   8 H :    0.151073
   9 H :    0.150390
  10 H :    0.150579
  11 H :    0.154979
  12 H :    0.155414
  13 H :    0.155451
  14 H :    0.155899
  15 H :    0.154605
  16 H :    0.156213
  17 H :    0.152673
  18 H :    0.153078
  19 H :    0.153573
  20 H :    0.153815
  21 H :    0.153361
  22 H :    0.153396

  Mayer bond orders larger than 0.100000
B(  0-C ,  1-C ) :   0.8919 B(  0-C ,  8-H ) :   0.9723 B(  0-C ,  9-H ) :   0.9855
B(  0-C , 10-H ) :   0.9713 B(  1-C ,  2-C ) :   0.8758 B(  1-C , 11-H ) :   0.9674
B(  1-C , 12-H ) :   0.9884 B(  2-C ,  3-H ) :   0.9909 B(  2-C ,  4-C ) :   0.8507
B(  2-C ,  5-C ) :   0.8793 B(  4-C , 13-H ) :   0.9716 B(  4-C , 14-H ) :   0.9772
B(  4-C , 15-H ) :   0.9761 B(  5-C ,  6-C ) :   0.8960 B(  5-C ,  7-C ) :   0.8737
B(  5-C , 16-H ) :   0.9768 B(  6-C , 17-H ) :   0.9737 B(  6-C , 18-H ) :   0.9851
B(  6-C , 19-H ) :   0.9766 B(  7-C , 20-H ) :   0.9666 B(  7-C , 21-H ) :   0.9715
B(  7-C , 22-H ) :   0.9893

Dispersion correction           -0.006711431
FINAL SINGLE POINT ENERGY      -276.282425005129

DIPOLE MOMENT
-------------

Method             : SCF
Type of density    : Electron Density
Multiplicity       :   1
Irrep              :   0
Energy             :  -276.2870680798050103 Eh
Relativity type    :
Basis              : AO
                                X                 Y                 Z
Electronic contribution:     -0.202831214      -0.332765744      -1.709711994
Nuclear contribution   :      0.203280602       0.325318415       1.636621398
                        -----------------------------------------
Total Dipole Moment    :      0.000449388      -0.007447329      -0.073090597
                        -----------------------------------------
Magnitude (a.u.)       :      0.073470402
Magnitude (Debye)      :      0.186746921

Rotational constants in cm-1:             0.122093             0.058535             0.050730
Rotational constants in MHz :          3660.255248          1754.849147          1520.847346

                             ****ORCA TERMINATED NORMALLY****
TOTAL RUN TIME: 0 days 0 hours 0 minutes 19 seconds 746 msec
