                         Program Version 6.0.0  -   RELEASE  -
|  1> ! r2scan-3c def2/J RI DEFGRID2 scfconv6 printgap
|  2> %output
|  3>     printlevel normal
|  4> end
|  5> * xyz 0 1
|  6> C -2.1425195934 -0.1185871882 0.740115217
|  7> C -1.5524150673 -0.1337574685 -0.6651906092
|  8> C -0.246160992 0.6543832111 -0.7389641513
|  9> C 0.8867688964 -0.0250716686 -0.0185135779
| 10> O 0.9555441145 -1.208576801 0.2343974958
| 11> O 1.8523075004 0.8255594241 0.3041869148
| 12> H -1.4537516911 -0.5835410404 1.4422597365
| 13> H -3.0780437431 -0.670832354 0.763882331
| 14> H -2.3344575976 0.9014914057 1.0648470979
| 15> H -1.3575318462 -1.165205077 -0.9643399804
| 16> H -2.2665470908 0.2992632071 -1.3660970892
| 17> H 0.0712366515 0.7591864355 -1.7794540885
| 18> H -0.360742718 1.6568162286 -0.325339099
| 19> H 2.605505447 0.3906133303 0.7484777755
| 20> *
| 21>
| 22>                          ****END OF INPUT****

CARTESIAN COORDINATES (ANGSTROEM)
---------------------------------
  C     -2.142520   -0.118587    0.740115
  C     -1.552415   -0.133757   -0.665191
  C     -0.246161    0.654383   -0.738964
  C      0.886769   -0.025072   -0.018514
  O      0.955544   -1.208577    0.234397
  O      1.852308    0.825559    0.304187
  H     -1.453752   -0.583541    1.442260
  H     -3.078044   -0.670832    0.763882
  H     -2.334458    0.901491    1.064847
  H     -1.357532   -1.165205   -0.964340
  H     -2.266547    0.299263   -1.366097
  H      0.071237    0.759186   -1.779454
  H     -0.360743    1.656816   -0.325339
  H      2.605505    0.390613    0.748478

 Total Charge           Charge          ....    0
 Multiplicity           Mult            ....    1
 Number of Electrons    NEL             ....   48
 Basis Dimension        Dim             ....  164

ORBITAL ENERGIES
----------------

  NO   OCC          E(Eh)            E(eV)
   0   2.0000     -19.003412      -517.1091
   1   2.0000     -18.935958      -515.2736
   2   2.0000     -10.162738      -276.5421
   3   2.0000     -10.047973      -273.4192
   4   2.0000     -10.033449      -273.0240
   5   2.0000     -10.017345      -272.5858
   6   2.0000      -1.078237       -29.3403
   7   2.0000      -0.980168       -26.6717
   8   2.0000      -0.771500       -20.9936
   9   2.0000      -0.689279       -18.7562
  10   2.0000      -0.608765       -16.5653
  11   2.0000      -0.547888       -14.9088
  12   2.0000      -0.471451       -12.8288
  13   2.0000      -0.451608       -12.2889
  14   2.0000      -0.445471       -12.1219
  15   2.0000      -0.402042       -10.9401
  16   2.0000      -0.393798       -10.7158
  17   2.0000      -0.372565       -10.1380
  18   2.0000      -0.353400        -9.6165
  19   2.0000      -0.316911        -8.6236
  20   2.0000      -0.315570        -8.5871
  21   2.0000      -0.309800        -8.4301
  22   2.0000      -0.292904        -7.9703
  23   2.0000      -0.242951        -6.6110
  24   0.0000      -0.020669        -0.5624
  25   0.0000       0.058120         1.5815
  26   0.0000       0.085789         2.3344
  27   0.0000       0.126414         3.4399
  28   0.0000       0.135340         3.6828

MULLIKEN ATOMIC CHARGES
-----------------------
   0 C :   -0.504190
   1 C :   -0.191352
   2 C :   -0.281242
   3 C :    0.318647
   4 O :   -0.404280
   5 O :   -0.342974
   6 H :    0.166364
   7 H :    0.147657
   8 H :    0.138910
   9 H :    0.153631
  10 H :    0.139777
  11 H :    0.167994
  12 H :    0.162516
  13 H :    0.328543
Sum of atomic charges:   -0.0000000

LOEWDIN ATOMIC CHARGES
----------------------
   0 C :   -0.417427
   1 C :   -0.298686
   2 C :   -0.240517
   3 C :    0.339987
   4 O :   -0.429653
   5 O :   -0.403711
   6 H :    0.160398
   7 H :    0.153053
   8 H :    0.148204
   9 H :    0.169612
  10 H :    0.153040
  11 H :    0.185915
  12 H :    0.180900
  13 H :    0.298885

  Mayer bond orders larger than 0.100000
B(  0-C ,  1-C ) :   0.9091 B(  0-C ,  6-H ) :   0.9763 B(  0-C ,  7-H ) :   0.9699
B(  0-C ,  8-H ) :   0.9813 B(  1-C ,  2-C ) :   0.9179 B(  1-C ,  9-H ) :   0.9613
B(  1-C , 10-H ) :   0.9604 B(  2-C ,  3-C ) :   0.9831 B(  2-C , 11-H ) :   0.9132
B(  2-C , 12-H ) :   0.9738 B(  3-C ,  4-O ) :   1.9298 B(  3-C ,  5-O ) :   1.0537
B(  5-O , 13-H ) :   0.8599

Dispersion correction           -0.003151962
FINAL SINGLE POINT ENERGY      -307.649301051384

DIPOLE MOMENT
-------------

Method             : SCF
Type of density    : Electron Density
Multiplicity       :   1
Irrep              :   0
Energy             :  -307.6538806394019048 Eh
Relativity type    :
Basis              : AO
                                X                 Y                 Z
Electronic contribution:      7.657485120      -0.820999551       0.254451866
Nuclear contribution   :     -7.627232258       1.483934754      -0.382057879
                        -----------------------------------------
Total Dipole Moment    :      0.030252861       0.662935203      -0.127606013
                        -----------------------------------------
Magnitude (a.u.)       :      0.675782223
Magnitude (Debye)      :      1.717701904

Rotational constants in cm-1:             0.220238             0.075422             0.068735
Rotational constants in MHz :          6602.559439          2261.082196          2060.629175

                             ****ORCA TERMINATED NORMALLY****
TOTAL RUN TIME: 0 days 0 hours 0 minutes 19 seconds 553 msec
