                         Program Version 6.0.0  -   RELEASE  -
|  1> ! r2scan-3c def2/J RI DEFGRID2 scfconv6 printgap
|  2> %output
|  3>     printlevel normal
|  4> end
|  5> %cpcm
|  6>     smd true
|  7>     smdsolvent "water"
|  8> end
|  9> * xyz 0 1
| 10> C -2.1425195934 -0.1185871882 0.740115217
| 11> C -1.5524150673 -0.1337574685 -0.6651906092
| 12> C -0.246160992 0.6543832111 -0.7389641513
| 13> C 0.8867688964 -0.0250716686 -0.0185135779
| 14> O 0.9555441145 -1.208576801 0.2343974958
| 15> O 1.8523075004 0.8255594241 0.3041869148
| 16> H -1.4537516911 -0.5835410404 1.4422597365
| 17> H -3.0780437431 -0.670832354 0.763882331
| 18> H -2.3344575976 0.9014914057 1.0648470979
| 19> H -1.3575318462 -1.165205077 -0.9643399804
| 20> H -2.2665470908 0.2992632071 -1.3660970892
| 21> H 0.0712366515 0.7591864355 -1.7794540885
| 22> H -0.360742718 1.6568162286 -0.325339099
| 23> H 2.605505447 0.3906133303 0.7484777755
| 24> *
| 25>
| 26>                          ****END OF INPUT****

CARTESIAN COORDINATES (ANGSTROEM)
---------------------------------
  C     -2.142520   -0.118587    0.740115
  C     -1.552415   -0.133757   -0.665191
  C     -0.246161    0.654383   -0.738964
  C      0.886769   -0.025072   -0.018514
  O      0.955544   -1.208577    0.234397
  O      1.852308    0.825559    0.304187
  H     -1.453752   -0.583541    1.442260
  H     -3.078044   -0.670832    0.763882
  H     -2.334458    0.901491    1.064847
  H     -1.357532   -1.165205   -0.964340
  H     -2.266547    0.299263   -1.366097
  H      0.071237    0.759186   -1.779454
  H     -0.360743    1.656816   -0.325339
  H      2.605505    0.390613    0.748478

 Total Charge           Charge          ....    0
 Multiplicity           Mult            ....    1
 Number of Electrons    NEL             ....   48
 Basis Dimension        Dim             ....  164

ORBITAL ENERGIES
----------------

  NO   OCC          E(Eh)            E(eV)
   0   2.0000     -19.000116      -517.0194
   1   2.0000     -18.944829      -515.5150
   2   2.0000     -10.167405      -276.6692
   3   2.0000     -10.037429      -273.1323
   4   2.0000     -10.025479      -272.8071
   5   2.0000     -10.010128      -272.3894
   6   2.0000      -1.077818       -29.3289
   7   2.0000      -0.986373       -26.8406
   8   2.0000      -0.763704       -20.7815
   9   2.0000      -0.682127       -18.5616
  10   2.0000      -0.600909       -16.3516
  11   2.0000      -0.539950       -14.6928
  12   2.0000      -0.471667       -12.8347
  13   2.0000      -0.452747       -12.3199
  14   2.0000      -0.446844       -12.1593
  15   2.0000      -0.398728       -10.8499
  16   2.0000      -0.389207       -10.5909
  17   2.0000      -0.364358        -9.9147
  18   2.0000      -0.354082        -9.6351
  19   2.0000      -0.308418        -8.3925
  20   2.0000      -0.307631        -8.3711
  21   2.0000      -0.304082        -8.2745
  22   2.0000      -0.297734        -8.1017
  23   2.0000      -0.253466        -6.8971
  24   0.0000      -0.022924        -0.6238
  25   0.0000       0.076868         2.0917
  26   0.0000       0.100592         2.7372
  27   0.0000       0.132813         3.6140
  28   0.0000       0.144898         3.9429

MULLIKEN ATOMIC CHARGES
-----------------------
   0 C :   -0.530063
   1 C :   -0.218530
   2 C :   -0.286770
   3 C :    0.349669
   4 O :   -0.489065
   5 O :   -0.369813
   6 H :    0.160564
   7 H :    0.159936
   8 H :    0.156476
   9 H :    0.148429
  10 H :    0.158793
  11 H :    0.200209
  12 H :    0.182318
  13 H :    0.377846
Sum of atomic charges:   -0.0000000

LOEWDIN ATOMIC CHARGES
----------------------
   0 C :   -0.424720
   1 C :   -0.299708
   2 C :   -0.238142
   3 C :    0.352267
   4 O :   -0.491687
   5 O :   -0.396648
   6 H :    0.156677
   7 H :    0.155333
   8 H :    0.154590
   9 H :    0.164648
  10 H :    0.160345
  11 H :    0.198009
  12 H :    0.189855
  13 H :    0.319181

  Mayer bond orders larger than 0.100000
B(  0-C ,  1-C ) :   0.9094 B(  0-C ,  6-H ) :   0.9755 B(  0-C ,  7-H ) :   0.9687
B(  0-C ,  8-H ) :   0.9766 B(  1-C ,  2-C ) :   0.8984 B(  1-C ,  9-H ) :   0.9707
B(  1-C , 10-H ) :   0.9563 B(  2-C ,  3-C ) :   0.9879 B(  2-C , 11-H ) :   0.9048
B(  2-C , 12-H ) :   0.9635 B(  3-C ,  4-O ) :   1.8635 B(  3-C ,  5-O ) :   1.0870
B(  5-O , 13-H ) :   0.8355

Dispersion correction           -0.003151962
FINAL SINGLE POINT ENERGY      -307.658887061086

DIPOLE MOMENT
-------------

Method             : SCF
Type of density    : Electron Density
Multiplicity       :   1
Irrep              :   0
Energy             :  -307.6634666491042935 Eh
Relativity type    :
Basis              : AO
                                X                 Y                 Z
Electronic contribution:      7.697751981      -0.475533906       0.183152730
Nuclear contribution   :     -7.627232258       1.483934754      -0.382057879
                        -----------------------------------------
Total Dipole Moment    :      0.070519722       1.008400849      -0.198905149
                        -----------------------------------------
Magnitude (a.u.)       :      1.030246845
Magnitude (Debye)      :      2.618679369

Rotational constants in cm-1:             0.220238             0.075422             0.068735
Rotational constants in MHz :          6602.559439          2261.082196          2060.629175

                             ****ORCA TERMINATED NORMALLY****
TOTAL RUN TIME: 0 days 0 hours 0 minutes 20 seconds 905 msec
