                         Program Version 6.0.0  -   RELEASE  -
|  1> ! pbe def2-sv(p) def2/J RI DEFGRID1 loosescf d4 GCP(DFT/SV(P)) printgap
|  2> %output
|  3>     printlevel normal
|  4> end
|  5> * xyz 0 1
|  6> C 2.0639009768 1.0302086329 0.4817575359
|  7> C 1.4912173056 -0.0526318028 -0.4275231507
|  8> C 0.0476748366 -0.4188405792 -0.1740253828
|  9> O -0.3350802835 -1.5684102632 -0.285332804
| 10> C -0.8816846155 0.7108372042 0.185884152
| 11> C -2.3454551019 0.2884966114 0.1865117861
| 12> H 1.5628864873 1.9814535723 0.331747955
| 13> H 1.9687347057 0.7420549782 1.5256344803
| 14> H 3.1196165334 1.1634870825 0.2613164105
| 15> H 1.5408724412 0.2824783509 -1.4676949152
| 16> H 2.0835990281 -0.9670793753 -0.3541402965
| 17> H -0.7170748228 1.5321496338 -0.5129915471
| 18> H -0.5958905873 1.0621127698 1.1797671883
| 19> H -2.9797560631 1.1175416558 0.4864452702
| 20> H -2.4967480353 -0.5402955746 0.8740554589
| 21> H -2.6437185973 -0.0441036493 -0.8050191226
| 22> *
| 23>
| 24>                          ****END OF INPUT****

CARTESIAN COORDINATES (ANGSTROEM)
---------------------------------
  C      2.063901    1.030209    0.481758
  C      1.491217   -0.052632   -0.427523
  C      0.047675   -0.418841   -0.174025
  O     -0.335080   -1.568410   -0.285333
  C     -0.881685    0.710837    0.185884
  C     -2.345455    0.288497    0.186512
  H      1.562886    1.981454    0.331748
  H      1.968735    0.742055    1.525634
  H      3.119617    1.163487    0.261316
  H      1.540872    0.282478   -1.467695
  H      2.083599   -0.967079   -0.354140
  H     -0.717075    1.532150   -0.512992
  H     -0.595891    1.062113    1.179767
  H     -2.979756    1.117542    0.486445
  H     -2.496748   -0.540296    0.874055
  H     -2.643719   -0.044104   -0.805019

 Total Charge           Charge          ....    0
 Multiplicity           Mult            ....    1
 Number of Electrons    NEL             ....   48
 Basis Dimension        Dim             ....  104

ORBITAL ENERGIES
----------------

  NO   OCC          E(Eh)            E(eV)
   0   2.0000     -18.736321      -509.8412
   1   2.0000      -9.967945      -271.2416
   2   2.0000      -9.894982      -269.2562
   3   2.0000      -9.893042      -269.2034
   4   2.0000      -9.889182      -269.0983
   5   2.0000      -9.875209      -268.7181
   6   2.0000      -0.932420       -25.3724
   7   2.0000      -0.719900       -19.5895
   8   2.0000      -0.687672       -18.7125
   9   2.0000      -0.594761       -16.1843
  10   2.0000      -0.563129       -15.3235
  11   2.0000      -0.458670       -12.4810
  12   2.0000      -0.433443       -11.7946
  13   2.0000      -0.419348       -11.4110
  14   2.0000      -0.402912       -10.9638
  15   2.0000      -0.382426       -10.4063
  16   2.0000      -0.350519        -9.5381
  17   2.0000      -0.343386        -9.3440
  18   2.0000      -0.335485        -9.1290
  19   2.0000      -0.316915        -8.6237
  20   2.0000      -0.313713        -8.5366
  21   2.0000      -0.304973        -8.2987
  22   2.0000      -0.296658        -8.0725
  23   2.0000      -0.193301        -5.2600
  24   0.0000      -0.046788        -1.2732
  25   0.0000       0.028910         0.7867
  26   0.0000       0.058635         1.5955
  27   0.0000       0.071851         1.9552
  28   0.0000       0.083222         2.2646

MULLIKEN ATOMIC CHARGES
-----------------------
   0 C :   -0.295942
   1 C :   -0.155384
   2 C :   -0.010406
   3 O :   -0.171376
   4 C :   -0.221941
   5 C :   -0.245931
   6 H :    0.112454
   7 H :    0.114702
   8 H :    0.113494
   9 H :    0.115847
  10 H :    0.099746
  11 H :    0.109426
  12 H :    0.118131
  13 H :    0.097180
  14 H :    0.112484
  15 H :    0.107517
Sum of atomic charges:   -0.0000000

LOEWDIN ATOMIC CHARGES
----------------------
   0 C :   -0.341154
   1 C :   -0.256368
   2 C :    0.045482
   3 O :   -0.131551
   4 C :   -0.264897
   5 C :   -0.337021
   6 H :    0.119974
   7 H :    0.122228
   8 H :    0.126421
   9 H :    0.141465
  10 H :    0.131088
  11 H :    0.133315
  12 H :    0.141748
  13 H :    0.118569
  14 H :    0.126600
  15 H :    0.124101

  Mayer bond orders larger than 0.100000
B(  0-C ,  1-C ) :   1.1414 B(  0-C ,  6-H ) :   0.9402 B(  0-C ,  7-H ) :   0.9574
B(  0-C ,  8-H ) :   0.9476 B(  1-C ,  2-C ) :   1.0336 B(  1-C ,  9-H ) :   0.8943
B(  1-C , 10-H ) :   0.9102 B(  2-C ,  3-O ) :   2.1852 B(  2-C ,  4-C ) :   0.9944
B(  4-C ,  5-C ) :   1.1563 B(  4-C , 11-H ) :   0.9086 B(  4-C , 12-H ) :   0.8838
B(  5-C , 13-H ) :   0.9489 B(  5-C , 14-H ) :   0.9497 B(  5-C , 15-H ) :   0.9565

Dispersion correction           -0.011228642
FINAL SINGLE POINT ENERGY      -271.142647158843

DIPOLE MOMENT
-------------

Method             : SCF
Type of density    : Electron Density
Multiplicity       :   1
Irrep              :   0
Energy             :  -271.1973215611608907 Eh
Relativity type    :
Basis              : AO
                                X                 Y                 Z
Electronic contribution:     -0.426098554      -4.944475234      -1.333592163
Nuclear contribution   :      0.785446744       5.915117786       1.420953812
                        -----------------------------------------
Total Dipole Moment    :      0.359348190       0.970642552       0.087361649
                        -----------------------------------------
Magnitude (a.u.)       :      1.038705995
Magnitude (Debye)      :      2.640180820

Rotational constants in cm-1:             0.196462             0.078825             0.060084
Rotational constants in MHz :          5889.786834          2363.099654          1801.276824

                             ****ORCA TERMINATED NORMALLY****
TOTAL RUN TIME: 0 days 0 hours 0 minutes 5 seconds 700 msec
