                         Program Version 6.0.0  -   RELEASE  -
|  1> ! r2scan-3c def2/J RI DEFGRID2 scfconv6 printgap
|  2> %output
|  3>     printlevel normal
|  4> end
|  5> * xyz 0 1
|  6> C -2.5865762075 -1.7448221018 1.7046206016
|  7> C -3.4112223404 -0.7906523538 0.8493999829
|  8> C -2.7803423601 -0.3970664186 -0.4951406158
|  9> H -3.3989073881 0.4081928732 -0.9102737475
| 10> C -2.7511127738 -1.5269797367 -1.5156712995
| 11> N -1.4631711661 0.2422929281 -0.2903374536
| 12> C -0.285468425 -0.5030031819 -0.2222251029
| 13> O -0.261796604 -1.7159399909 -0.3031724165
| 14> C 0.9141519792 0.2928091582 -0.0463151286
| 15> C 0.904121097 1.6408335581 0.0946434321
| 16> N -0.3127142733 2.2511911325 0.058891931
| 17> C -1.5103684327 1.6080028664 -0.1168699882
| 18> O -2.5491813342 2.2470122911 -0.1224397934
| 19> C 2.1116354649 2.4804578113 0.2927542326
| 20> Br 2.5370936014 -0.6930772451 0.0085204838
| 21> H -2.3272547204 -2.6442035476 1.1536732766
| 22> H -1.6622323975 -1.2765211229 2.0383391001
| 23> H -3.1561271393 -2.030187656 2.5852197756
| 24> H -4.3758546361 -1.2474517718 0.6267322853
| 25> H -3.5984005245 0.126626155 1.4135997995
| 26> H -2.2479938995 -2.4088489361 -1.1349086312
| 27> H -3.7759701216 -1.7833242224 -1.7680069719
| 28> H -2.2408682575 -1.2045141795 -2.4204631317
| 29> H -0.3750933826 3.257624137 0.1773215358
| 30> H 2.8449581641 2.2666462036 -0.4827756375
| 31> H 2.5788920346 2.2370823381 1.2461096533
| 32> H 1.861708968 3.5356217179 0.2754691334
| 33> *
| 34>
| 35>                          ****END OF INPUT****

CARTESIAN COORDINATES (ANGSTROEM)
---------------------------------
  C     -2.586576   -1.744822    1.704621
  C     -3.411222   -0.790652    0.849400
  C     -2.780342   -0.397066   -0.495141
  H     -3.398907    0.408193   -0.910274
  C     -2.751113   -1.526980   -1.515671
  N     -1.463171    0.242293   -0.290337
  C     -0.285468   -0.503003   -0.222225
  O     -0.261797   -1.715940   -0.303172
  C      0.914152    0.292809   -0.046315
  C      0.904121    1.640834    0.094643
  N     -0.312714    2.251191    0.058892
  C     -1.510368    1.608003   -0.116870
  O     -2.549181    2.247012   -0.122440
  C      2.111635    2.480458    0.292754
  Br     2.537094   -0.693077    0.008520
  H     -2.327255   -2.644204    1.153673
  H     -1.662232   -1.276521    2.038339
  H     -3.156127   -2.030188    2.585220
  H     -4.375855   -1.247452    0.626732
  H     -3.598401    0.126626    1.413600
  H     -2.247994   -2.408849   -1.134909
  H     -3.775970   -1.783324   -1.768007
  H     -2.240868   -1.204514   -2.420463
  H     -0.375093    3.257624    0.177322
  H      2.844958    2.266646   -0.482776
  H      2.578892    2.237082    1.246110
  H      1.861709    3.535622    0.275469

 Total Charge           Charge          ....    0
 Multiplicity           Mult            ....    1
 Number of Electrons    NEL             ....  132
 Basis Dimension        Dim             ....  368

ORBITAL ENERGIES
----------------

  NO   OCC          E(Eh)            E(eV)
   0   2.0000    -482.234973    -13122.2807
   1   2.0000     -62.306193     -1695.4377
   2   2.0000     -56.086772     -1526.1987
   3   2.0000     -56.083999     -1526.1232
   4   2.0000     -56.083809     -1526.1180
   5   2.0000     -18.932926      -515.1911
   6   2.0000     -18.925244      -514.9821
   7   2.0000     -14.241308      -387.5257
   8   2.0000     -14.228498      -387.1771
   9   2.0000     -10.182118      -277.0695
  10   2.0000     -10.151859      -276.2461
  11   2.0000     -10.129534      -275.6386
  12   2.0000     -10.097706      -274.7726
  13   2.0000     -10.078833      -274.2590
  14   2.0000     -10.070054      -274.0201
  15   2.0000     -10.029766      -272.9238
  16   2.0000     -10.016568      -272.5647
  17   2.0000     -10.011904      -272.4378
  18   2.0000      -8.638018      -235.0524
  19   2.0000      -6.446136      -175.4083
  20   2.0000      -6.431838      -175.0192
  21   2.0000      -6.430991      -174.9962
  22   2.0000      -2.543578       -69.2143
  23   2.0000      -2.540074       -69.1189
  24   2.0000      -2.539495       -69.1032
  25   2.0000      -2.528843       -68.8133
  26   2.0000      -2.528827       -68.8129
  27   2.0000      -1.054106       -28.6837
  28   2.0000      -1.014760       -27.6130
  29   2.0000      -0.958699       -26.0875
  30   2.0000      -0.919072       -25.0092
  31   2.0000      -0.814576       -22.1657
  32   2.0000      -0.773800       -21.0562
  33   2.0000      -0.749282       -20.3890
  34   2.0000      -0.706826       -19.2337
  35   2.0000      -0.692234       -18.8367
  36   2.0000      -0.641757       -17.4631
  37   2.0000      -0.638311       -17.3693
  38   2.0000      -0.604768       -16.4566
  39   2.0000      -0.560965       -15.2646
  40   2.0000      -0.552504       -15.0344
  41   2.0000      -0.516105       -14.0439
  42   2.0000      -0.475335       -12.9345
  43   2.0000      -0.449982       -12.2446
  44   2.0000      -0.437917       -11.9163
  45   2.0000      -0.436744       -11.8844
  46   2.0000      -0.426637       -11.6094
  47   2.0000      -0.411519       -11.1980
  48   2.0000      -0.409512       -11.1434
  49   2.0000      -0.404271       -11.0008
  50   2.0000      -0.393458       -10.7065
  51   2.0000      -0.380730       -10.3602
  52   2.0000      -0.379176       -10.3179
  53   2.0000      -0.360942        -9.8217
  54   2.0000      -0.355285        -9.6678
  55   2.0000      -0.349890        -9.5210
  56   2.0000      -0.337216        -9.1761
  57   2.0000      -0.318192        -8.6584
  58   2.0000      -0.308240        -8.3876
  59   2.0000      -0.297564        -8.0971
  60   2.0000      -0.291554        -7.9336
  61   2.0000      -0.269034        -7.3208
  62   2.0000      -0.258840        -7.0434
  63   2.0000      -0.249838        -6.7984
  64   2.0000      -0.232220        -6.3190
  65   2.0000      -0.217596        -5.9211
  66   0.0000      -0.072038        -1.9603
  67   0.0000      -0.032204        -0.8763
  68   0.0000      -0.025290        -0.6882
  69   0.0000       0.038183         1.0390
  70   0.0000       0.066604         1.8124

MULLIKEN ATOMIC CHARGES
-----------------------
   0 C :   -0.472536
   1 C :   -0.324344
   2 C :   -0.065754
   3 H :    0.200484
   4 C :   -0.488553
   5 N :    0.177871
   6 C :    0.192197
   7 O :   -0.416665
   8 C :   -0.139677
   9 C :    0.160359
  10 N :   -0.034286
  11 C :    0.253187
  12 O :   -0.455350
  13 C :   -0.583235
  14 Br:   -0.078232
  15 H :    0.170853
  16 H :    0.140666
  17 H :    0.145808
  18 H :    0.149661
  19 H :    0.166238
  20 H :    0.196281
  21 H :    0.147806
  22 H :    0.149767
  23 H :    0.275866
  24 H :    0.190963
  25 H :    0.195291
  26 H :    0.145333
Sum of atomic charges:    0.0000000

LOEWDIN ATOMIC CHARGES
----------------------
   0 C :   -0.406884
   1 C :   -0.263383
   2 C :    0.042489
   3 H :    0.220499
   4 C :   -0.364103
   5 N :   -0.620043
   6 C :    0.352957
   7 O :   -0.472739
   8 C :   -0.196286
   9 C :    0.151796
  10 N :   -0.517045
  11 C :    0.458803
  12 O :   -0.424589
  13 C :   -0.351654
  14 Br:    0.262851
  15 H :    0.162110
  16 H :    0.156375
  17 H :    0.149251
  18 H :    0.161121
  19 H :    0.165800
  20 H :    0.181675
  21 H :    0.155723
  22 H :    0.163271
  23 H :    0.298479
  24 H :    0.184900
  25 H :    0.185184
  26 H :    0.163443

  Mayer bond orders larger than 0.100000
B(  0-C ,  1-C ) :   0.8795 B(  0-C , 15-H ) :   0.9888 B(  0-C , 16-H ) :   0.9689
B(  0-C , 17-H ) :   0.9632 B(  1-C ,  2-C ) :   0.9241 B(  1-C , 18-H ) :   0.9851
B(  1-C , 19-H ) :   0.9668 B(  2-C ,  3-H ) :   0.9513 B(  2-C ,  4-C ) :   0.8764
B(  2-C ,  5-N ) :   0.8252 B(  4-C , 20-H ) :   0.9713 B(  4-C , 21-H ) :   0.9636
B(  4-C , 22-H ) :   0.9770 B(  5-N ,  6-C ) :   1.1053 B(  5-N , 11-C ) :   1.1193
B(  6-C ,  7-O ) :   1.8898 B(  6-C ,  8-C ) :   0.9615 B(  6-C , 14-Br) :  -0.1064
B(  8-C ,  9-C ) :   1.4718 B(  8-C , 14-Br) :   1.1931 B(  9-C , 10-N ) :   1.1531
B(  9-C , 13-C ) :   0.8627 B( 10-N , 11-C ) :   1.0475 B( 10-N , 23-H ) :   0.9046
B( 11-C , 12-O ) :   1.8998 B( 13-C , 24-H ) :   0.9503 B( 13-C , 25-H ) :   0.9464
B( 13-C , 26-H ) :   0.9932

Dispersion correction           -0.011600614
FINAL SINGLE POINT ENERGY     -3184.782476184019

DIPOLE MOMENT
-------------

Method             : SCF
Type of density    : Electron Density
Multiplicity       :   1
Irrep              :   0
Energy             : -3184.7922762477805918 Eh
Relativity type    :
Basis              : AO
                                X                 Y                 Z
Electronic contribution:     42.791601272      -4.352016289      -2.360898593
Nuclear contribution   :    -42.252660675       5.740703007       2.540242507
                        -----------------------------------------
Total Dipole Moment    :      0.538940598       1.388686719       0.179343914
                        -----------------------------------------
Magnitude (a.u.)       :      1.500357294
Magnitude (Debye)      :      3.813605170

Rotational constants in cm-1:             0.027262             0.012315             0.009504
Rotational constants in MHz :           817.301693           369.190130           284.920865

                             ****ORCA TERMINATED NORMALLY****
TOTAL RUN TIME: 0 days 0 hours 1 minutes 19 seconds 126 msec
