                         Program Version 6.0.0  -   RELEASE  -
|  1> ! r2scan-3c def2/J RI DEFGRID2 scfconv6 printgap
|  2> %output
|  3>     printlevel normal
|  4> end
|  5> %cpcm
|  6>     smd true
|  7>     smdsolvent "water"
|  8> end
|  9> * xyz 0 1
| 10> C -2.5865762075 -1.7448221018 1.7046206016
| 11> C -3.4112223404 -0.7906523538 0.8493999829
| 12> C -2.7803423601 -0.3970664186 -0.4951406158
| 13> H -3.3989073881 0.4081928732 -0.9102737475
| 14> C -2.7511127738 -1.5269797367 -1.5156712995
| 15> N -1.4631711661 0.2422929281 -0.2903374536
| 16> C -0.285468425 -0.5030031819 -0.2222251029
| 17> O -0.261796604 -1.7159399909 -0.3031724165
| 18> C 0.9141519792 0.2928091582 -0.0463151286
| 19> C 0.904121097 1.6408335581 0.0946434321
| 20> N -0.3127142733 2.2511911325 0.058891931
| 21> C -1.5103684327 1.6080028664 -0.1168699882
| 22> O -2.5491813342 2.2470122911 -0.1224397934
| 23> C 2.1116354649 2.4804578113 0.2927542326
| 24> Br 2.5370936014 -0.6930772451 0.0085204838
| 25> H -2.3272547204 -2.6442035476 1.1536732766
| 26> H -1.6622323975 -1.2765211229 2.0383391001
| 27> H -3.1561271393 -2.030187656 2.5852197756
| 28> H -4.3758546361 -1.2474517718 0.6267322853
| 29> H -3.5984005245 0.126626155 1.4135997995
| 30> H -2.2479938995 -2.4088489361 -1.1349086312
| 31> H -3.7759701216 -1.7833242224 -1.7680069719
| 32> H -2.2408682575 -1.2045141795 -2.4204631317
| 33> H -0.3750933826 3.257624137 0.1773215358
| 34> H 2.8449581641 2.2666462036 -0.4827756375
| 35> H 2.5788920346 2.2370823381 1.2461096533
| 36> H 1.861708968 3.5356217179 0.2754691334
| 37> *
| 38>
| 39>                          ****END OF INPUT****

CARTESIAN COORDINATES (ANGSTROEM)
---------------------------------
  C     -2.586576   -1.744822    1.704621
  C     -3.411222   -0.790652    0.849400
  C     -2.780342   -0.397066   -0.495141
  H     -3.398907    0.408193   -0.910274
  C     -2.751113   -1.526980   -1.515671
  N     -1.463171    0.242293   -0.290337
  C     -0.285468   -0.503003   -0.222225
  O     -0.261797   -1.715940   -0.303172
  C      0.914152    0.292809   -0.046315
  C      0.904121    1.640834    0.094643
  N     -0.312714    2.251191    0.058892
  C     -1.510368    1.608003   -0.116870
  O     -2.549181    2.247012   -0.122440
  C      2.111635    2.480458    0.292754
  Br     2.537094   -0.693077    0.008520
  H     -2.327255   -2.644204    1.153673
  H     -1.662232   -1.276521    2.038339
  H     -3.156127   -2.030188    2.585220
  H     -4.375855   -1.247452    0.626732
  H     -3.598401    0.126626    1.413600
  H     -2.247994   -2.408849   -1.134909
  H     -3.775970   -1.783324   -1.768007
  H     -2.240868   -1.204514   -2.420463
  H     -0.375093    3.257624    0.177322
  H      2.844958    2.266646   -0.482776
  H      2.578892    2.237082    1.246110
  H      1.861709    3.535622    0.275469

 Total Charge           Charge          ....    0
 Multiplicity           Mult            ....    1
 Number of Electrons    NEL             ....  132
 Basis Dimension        Dim             ....  368

ORBITAL ENERGIES
----------------

  NO   OCC          E(Eh)            E(eV)
   0   2.0000    -482.233808    -13122.2490
   1   2.0000     -62.305090     -1695.4077
   2   2.0000     -56.085629     -1526.1676
   3   2.0000     -56.082909     -1526.0935
   4   2.0000     -56.082728     -1526.0886
   5   2.0000     -18.938934      -515.3546
   6   2.0000     -18.931407      -515.1498
   7   2.0000     -14.228608      -387.1801
   8   2.0000     -14.228269      -387.1709
   9   2.0000     -10.183384      -277.1040
  10   2.0000     -10.155553      -276.3466
  11   2.0000     -10.120106      -275.3821
  12   2.0000     -10.091241      -274.5966
  13   2.0000     -10.075621      -274.1716
  14   2.0000     -10.041288      -273.2374
  15   2.0000     -10.025187      -272.7992
  16   2.0000     -10.012823      -272.4628
  17   2.0000     -10.009840      -272.3816
  18   2.0000      -8.636972      -235.0240
  19   2.0000      -6.444891      -175.3744
  20   2.0000      -6.430883      -174.9932
  21   2.0000      -6.430064      -174.9709
  22   2.0000      -2.542396       -69.1821
  23   2.0000      -2.538955       -69.0885
  24   2.0000      -2.538397       -69.0733
  25   2.0000      -2.527955       -68.7891
  26   2.0000      -2.527942       -68.7888
  27   2.0000      -1.055203       -28.7135
  28   2.0000      -1.021556       -27.7979
  29   2.0000      -0.952542       -25.9200
  30   2.0000      -0.916920       -24.9507
  31   2.0000      -0.807998       -21.9867
  32   2.0000      -0.767774       -20.8922
  33   2.0000      -0.738161       -20.0864
  34   2.0000      -0.700979       -19.0746
  35   2.0000      -0.685113       -18.6429
  36   2.0000      -0.637079       -17.3358
  37   2.0000      -0.628885       -17.1128
  38   2.0000      -0.599841       -16.3225
  39   2.0000      -0.554984       -15.1019
  40   2.0000      -0.546720       -14.8770
  41   2.0000      -0.504598       -13.7308
  42   2.0000      -0.470005       -12.7895
  43   2.0000      -0.445162       -12.1135
  44   2.0000      -0.438312       -11.9271
  45   2.0000      -0.430955       -11.7269
  46   2.0000      -0.416664       -11.3380
  47   2.0000      -0.413313       -11.2468
  48   2.0000      -0.398766       -10.8510
  49   2.0000      -0.395715       -10.7679
  50   2.0000      -0.384549       -10.4641
  51   2.0000      -0.378037       -10.2869
  52   2.0000      -0.372758       -10.1432
  53   2.0000      -0.356830        -9.7098
  54   2.0000      -0.353450        -9.6179
  55   2.0000      -0.347679        -9.4608
  56   2.0000      -0.327306        -8.9065
  57   2.0000      -0.315535        -8.5861
  58   2.0000      -0.307303        -8.3621
  59   2.0000      -0.295860        -8.0508
  60   2.0000      -0.290877        -7.9152
  61   2.0000      -0.269305        -7.3282
  62   2.0000      -0.264625        -7.2008
  63   2.0000      -0.253140        -6.8883
  64   2.0000      -0.239643        -6.5210
  65   2.0000      -0.214013        -5.8236
  66   0.0000      -0.064970        -1.7679
  67   0.0000      -0.028584        -0.7778
  68   0.0000      -0.025766        -0.7011
  69   0.0000       0.055877         1.5205
  70   0.0000       0.077116         2.0984

MULLIKEN ATOMIC CHARGES
-----------------------
   0 C :   -0.535118
   1 C :   -0.301418
   2 C :   -0.059120
   3 H :    0.204724
   4 C :   -0.540995
   5 N :    0.201652
   6 C :    0.189588
   7 O :   -0.485037
   8 C :   -0.147141
   9 C :    0.204823
  10 N :   -0.043304
  11 C :    0.282331
  12 O :   -0.535254
  13 C :   -0.615836
  14 Br:   -0.109864
  15 H :    0.172517
  16 H :    0.157713
  17 H :    0.161206
  18 H :    0.170737
  19 H :    0.164825
  20 H :    0.187677
  21 H :    0.169466
  22 H :    0.170692
  23 H :    0.336386
  24 H :    0.197641
  25 H :    0.210113
  26 H :    0.190997
Sum of atomic charges:   -0.0000000

LOEWDIN ATOMIC CHARGES
----------------------
   0 C :   -0.415818
   1 C :   -0.262475
   2 C :    0.045070
   3 H :    0.221868
   4 C :   -0.369319
   5 N :   -0.608006
   6 C :    0.355065
   7 O :   -0.534417
   8 C :   -0.204198
   9 C :    0.177188
  10 N :   -0.477789
  11 C :    0.466574
  12 O :   -0.481611
  13 C :   -0.347137
  14 Br:    0.243240
  15 H :    0.158877
  16 H :    0.158883
  17 H :    0.154068
  18 H :    0.167933
  19 H :    0.166050
  20 H :    0.176106
  21 H :    0.163440
  22 H :    0.167344
  23 H :    0.317553
  24 H :    0.187779
  25 H :    0.191294
  26 H :    0.182439

  Mayer bond orders larger than 0.100000
B(  0-C ,  1-C ) :   0.8571 B(  0-C , 15-H ) :   0.9900 B(  0-C , 16-H ) :   0.9703
B(  0-C , 17-H ) :   0.9591 B(  1-C ,  2-C ) :   0.9347 B(  1-C , 18-H ) :   0.9842
B(  1-C , 19-H ) :   0.9600 B(  2-C ,  3-H ) :   0.9465 B(  2-C ,  4-C ) :   0.8598
B(  2-C ,  5-N ) :   0.8151 B(  4-C , 20-H ) :   0.9735 B(  4-C , 21-H ) :   0.9593
B(  4-C , 22-H ) :   0.9782 B(  5-N ,  6-C ) :   1.1119 B(  5-N , 11-C ) :   1.1321
B(  6-C ,  7-O ) :   1.8485 B(  6-C ,  8-C ) :   0.9783 B(  8-C ,  9-C ) :   1.4488
B(  8-C , 14-Br) :   1.1354 B(  9-C , 10-N ) :   1.1602 B(  9-C , 13-C ) :   0.8358
B( 10-N , 11-C ) :   1.0732 B( 10-N , 23-H ) :   0.8795 B( 11-C , 12-O ) :   1.8329
B( 13-C , 24-H ) :   0.9478 B( 13-C , 25-H ) :   0.9403 B( 13-C , 26-H ) :   0.9827

Dispersion correction           -0.011600614
FINAL SINGLE POINT ENERGY     -3184.799681616420

DIPOLE MOMENT
-------------

Method             : SCF
Type of density    : Electron Density
Multiplicity       :   1
Irrep              :   0
Energy             : -3184.8094816801822162 Eh
Relativity type    :
Basis              : AO
                                X                 Y                 Z
Electronic contribution:     43.002122116      -3.542511029      -2.271545768
Nuclear contribution   :    -42.252660675       5.740703007       2.540242507
                        -----------------------------------------
Total Dipole Moment    :      0.749461441       2.198191978       0.268696739
                        -----------------------------------------
Magnitude (a.u.)       :      2.337934636
Magnitude (Debye)      :      5.942557582

Rotational constants in cm-1:             0.027262             0.012315             0.009504
Rotational constants in MHz :           817.301693           369.190130           284.920865

                             ****ORCA TERMINATED NORMALLY****
TOTAL RUN TIME: 0 days 0 hours 1 minutes 43 seconds 615 msec
