                         Program Version 6.0.0  -   RELEASE  -
|  1> ! pbe def2-sv(p) def2/J RI DEFGRID1 loosescf d4 GCP(DFT/SV(P)) printgap
|  2> %output
|  3>     printlevel normal
|  4> end
|  5> * xyz 0 1
|  6> C -2.1254882321 -0.5394327381 0.9202304908
|  7> C -2.0749173593 0.5837477345 -0.1090994647
|  8> C -0.8420546371 0.4910003118 -1.0042885996
|  9> O 0.347740155 0.7741668806 -0.253962698
| 10> C 1.2116427479 -0.2029702691 -0.0055994272
| 11> O 1.0811260323 -1.3415148906 -0.4056411642
| 12> C 2.3614626519 0.2886223561 0.8233095591
| 13> H -1.2620940875 -0.494740523 1.5813314209
| 14> H -3.0242708825 -0.4580821984 1.5249618053
| 15> H -2.1226040564 -1.5093514186 0.4272438063
| 16> H -2.0649376133 1.5498397496 0.3973034957
| 17> H -2.9552250969 0.5372465366 -0.7499964374
| 18> H -0.7499720749 -0.5073689874 -1.4430530911
| 19> H -0.8800858941 1.2441885814 -1.7941558803
| 20> H 3.1160805798 -0.487234193 0.896839195
| 21> H 1.997281932 0.5453851647 1.8149745955
| 22> H 2.7741029849 1.1862174644 0.3723963668
| 23> *
| 24>
| 25>                          ****END OF INPUT****

CARTESIAN COORDINATES (ANGSTROEM)
---------------------------------
  C     -2.125488   -0.539433    0.920230
  C     -2.074917    0.583748   -0.109099
  C     -0.842055    0.491000   -1.004289
  O      0.347740    0.774167   -0.253963
  C      1.211643   -0.202970   -0.005599
  O      1.081126   -1.341515   -0.405641
  C      2.361463    0.288622    0.823310
  H     -1.262094   -0.494741    1.581331
  H     -3.024271   -0.458082    1.524962
  H     -2.122604   -1.509351    0.427244
  H     -2.064938    1.549840    0.397303
  H     -2.955225    0.537247   -0.749996
  H     -0.749972   -0.507369   -1.443053
  H     -0.880086    1.244189   -1.794156
  H      3.116081   -0.487234    0.896839
  H      1.997282    0.545385    1.814975
  H      2.774103    1.186217    0.372396

 Total Charge           Charge          ....    0
 Multiplicity           Mult            ....    1
 Number of Electrons    NEL             ....   56
 Basis Dimension        Dim             ....  118

ORBITAL ENERGIES
----------------

  NO   OCC          E(Eh)            E(eV)
   0   2.0000     -18.796161      -511.4695
   1   2.0000     -18.729997      -509.6691
   2   2.0000     -10.008022      -272.3321
   3   2.0000      -9.941618      -270.5252
   4   2.0000      -9.895543      -269.2714
   5   2.0000      -9.893419      -269.2136
   6   2.0000      -9.879116      -268.8244
   7   2.0000      -1.003020       -27.2936
   8   2.0000      -0.907868       -24.7044
   9   2.0000      -0.723249       -19.6806
  10   2.0000      -0.677791       -18.4436
  11   2.0000      -0.623312       -16.9612
  12   2.0000      -0.549083       -14.9413
  13   2.0000      -0.498356       -13.5610
  14   2.0000      -0.445805       -12.1310
  15   2.0000      -0.435597       -11.8532
  16   2.0000      -0.410935       -11.1821
  17   2.0000      -0.396728       -10.7955
  18   2.0000      -0.396064       -10.7775
  19   2.0000      -0.363106        -9.8806
  20   2.0000      -0.359483        -9.7820
  21   2.0000      -0.342388        -9.3168
  22   2.0000      -0.316431        -8.6105
  23   2.0000      -0.314044        -8.5456
  24   2.0000      -0.310082        -8.4378
  25   2.0000      -0.287389        -7.8202
  26   2.0000      -0.251193        -6.8353
  27   2.0000      -0.217306        -5.9132
  28   0.0000      -0.017965        -0.4889
  29   0.0000       0.037161         1.0112
  30   0.0000       0.055509         1.5105
  31   0.0000       0.077635         2.1125
  32   0.0000       0.085403         2.3239

MULLIKEN ATOMIC CHARGES
-----------------------
   0 C :   -0.293508
   1 C :   -0.197878
   2 C :    0.002577
   3 O :   -0.249987
   4 C :    0.081848
   5 O :   -0.208072
   6 C :   -0.246174
   7 H :    0.114666
   8 H :    0.107071
   9 H :    0.110789
  10 H :    0.096916
  11 H :    0.095825
  12 H :    0.109230
  13 H :    0.099065
  14 H :    0.123521
  15 H :    0.128389
  16 H :    0.125722
Sum of atomic charges:   -0.0000000

LOEWDIN ATOMIC CHARGES
----------------------
   0 C :   -0.342825
   1 C :   -0.246030
   2 C :   -0.109183
   3 O :   -0.072354
   4 C :    0.027914
   5 O :   -0.171386
   6 C :   -0.358615
   7 H :    0.119966
   8 H :    0.121009
   9 H :    0.123512
  10 H :    0.120969
  11 H :    0.124759
  12 H :    0.119683
  13 H :    0.115929
  14 H :    0.138961
  15 H :    0.145193
  16 H :    0.142497

  Mayer bond orders larger than 0.100000
B(  0-C ,  1-C ) :   1.1535 B(  0-C ,  7-H ) :   0.9486 B(  0-C ,  8-H ) :   0.9519
B(  0-C ,  9-H ) :   0.9548 B(  1-C ,  2-C ) :   1.1292 B(  1-C , 10-H ) :   0.9231
B(  1-C , 11-H ) :   0.9205 B(  2-C ,  3-O ) :   0.9226 B(  2-C , 12-H ) :   0.9010
B(  2-C , 13-H ) :   0.9315 B(  3-O ,  4-C ) :   1.1782 B(  4-C ,  5-O ) :   2.0655
B(  4-C ,  6-C ) :   1.0799 B(  6-C , 14-H ) :   0.9430 B(  6-C , 15-H ) :   0.9282
B(  6-C , 16-H ) :   0.9303

Dispersion correction           -0.012282143
FINAL SINGLE POINT ENERGY      -346.244132248885

DIPOLE MOMENT
-------------

Method             : SCF
Type of density    : Electron Density
Multiplicity       :   1
Irrep              :   0
Energy             :  -346.3089943475212067 Eh
Relativity type    :
Basis              : AO
                                X                 Y                 Z
Electronic contribution:      4.551106430      -0.798669689      -2.661929666
Nuclear contribution   :     -4.830757434       1.498378917       2.830845739
                        -----------------------------------------
Total Dipole Moment    :     -0.279651004       0.699709228       0.168916074
                        -----------------------------------------
Magnitude (a.u.)       :      0.772224273
Magnitude (Debye)      :      1.962838112

Rotational constants in cm-1:             0.156732             0.052832             0.050464
Rotational constants in MHz :          4698.696211          1583.851384          1512.867159

                             ****ORCA TERMINATED NORMALLY****
TOTAL RUN TIME: 0 days 0 hours 0 minutes 9 seconds 54 msec
