                         Program Version 6.0.0  -   RELEASE  -
|  1> ! r2scan-3c def2/J RI DEFGRID2 scfconv6 printgap
|  2> %output
|  3>     printlevel normal
|  4> end
|  5> * xyz 0 1
|  6> C -1.0453403426 -0.1304726415 0.7496547021
|  7> C 0.2412703137 0.5854527777 0.3233453993
|  8> C 1.1282473977 -0.3595332973 -0.5021346836
|  9> O 1.625938019 -1.3623375733 0.3561706161
| 10> O -0.0467335447 1.7642886618 -0.3877814772
| 11> O -1.8064985222 -0.3806852547 -0.4156751552
| 12> H -1.601452194 0.5143926631 1.4406976987
| 13> H -0.7701889422 -1.0617181489 1.2560508578
| 14> H 0.7972639792 0.8865508711 1.2170037871
| 15> H 1.9445160286 0.2302680632 -0.9378026733
| 16> H 0.5259290724 -0.794996906 -1.3095629237
| 17> H 2.195380787 -1.9586465157 -0.1496053254
| 18> H -0.7258509948 1.5491485892 -1.0467110993
| 19> H -2.6206119861 -0.8399141413 -0.1726358543
| 20> *
| 21>
| 22>                          ****END OF INPUT****

CARTESIAN COORDINATES (ANGSTROEM)
---------------------------------
  C     -1.045340   -0.130473    0.749655
  C      0.241270    0.585453    0.323345
  C      1.128247   -0.359533   -0.502135
  O      1.625938   -1.362338    0.356171
  O     -0.046734    1.764289   -0.387781
  O     -1.806499   -0.380685   -0.415675
  H     -1.601452    0.514393    1.440698
  H     -0.770189   -1.061718    1.256051
  H      0.797264    0.886551    1.217004
  H      1.944516    0.230268   -0.937803
  H      0.525929   -0.794997   -1.309563
  H      2.195381   -1.958647   -0.149605
  H     -0.725851    1.549149   -1.046711
  H     -2.620612   -0.839914   -0.172636

 Total Charge           Charge          ....    0
 Multiplicity           Mult            ....    1
 Number of Electrons    NEL             ....   50
 Basis Dimension        Dim             ....  169

ORBITAL ENERGIES
----------------

  NO   OCC          E(Eh)            E(eV)
   0   2.0000     -18.961978      -515.9816
   1   2.0000     -18.952580      -515.7259
   2   2.0000     -18.946382      -515.5573
   3   2.0000     -10.081088      -274.3203
   4   2.0000     -10.076918      -274.2069
   5   2.0000     -10.070667      -274.0368
   6   2.0000      -1.006171       -27.3793
   7   2.0000      -0.988571       -26.9004
   8   2.0000      -0.978116       -26.6159
   9   2.0000      -0.722148       -19.6506
  10   2.0000      -0.642263       -17.4769
  11   2.0000      -0.565088       -15.3768
  12   2.0000      -0.501890       -13.6571
  13   2.0000      -0.483925       -13.1683
  14   2.0000      -0.453070       -12.3287
  15   2.0000      -0.427708       -11.6385
  16   2.0000      -0.417622       -11.3641
  17   2.0000      -0.386948       -10.5294
  18   2.0000      -0.359226        -9.7750
  19   2.0000      -0.335549        -9.1308
  20   2.0000      -0.308031        -8.3820
  21   2.0000      -0.292183        -7.9507
  22   2.0000      -0.252512        -6.8712
  23   2.0000      -0.238050        -6.4777
  24   2.0000      -0.233610        -6.3569
  25   0.0000       0.041938         1.1412
  26   0.0000       0.054413         1.4807
  27   0.0000       0.103837         2.8255
  28   0.0000       0.116985         3.1833
  29   0.0000       0.133344         3.6285

MULLIKEN ATOMIC CHARGES
-----------------------
   0 C :   -0.158859
   1 C :    0.034848
   2 C :   -0.160533
   3 O :   -0.441013
   4 O :   -0.422988
   5 O :   -0.460200
   6 H :    0.132532
   7 H :    0.143947
   8 H :    0.145548
   9 H :    0.135439
  10 H :    0.140387
  11 H :    0.296127
  12 H :    0.316372
  13 H :    0.298394
Sum of atomic charges:   -0.0000000

LOEWDIN ATOMIC CHARGES
----------------------
   0 C :    0.025501
   1 C :    0.089972
   2 C :    0.028508
   3 O :   -0.626230
   4 O :   -0.573592
   5 O :   -0.632625
   6 H :    0.163829
   7 H :    0.175699
   8 H :    0.192217
   9 H :    0.165208
  10 H :    0.169947
  11 H :    0.269100
  12 H :    0.280825
  13 H :    0.271641

  Mayer bond orders larger than 0.100000
B(  0-C ,  1-C ) :   0.9878 B(  0-C ,  5-O ) :   0.9552 B(  0-C ,  6-H ) :   0.9612
B(  0-C ,  7-H ) :   0.9556 B(  1-C ,  2-C ) :   0.9710 B(  1-C ,  4-O ) :   0.9672
B(  1-C ,  8-H ) :   0.9433 B(  2-C ,  3-O ) :   0.9319 B(  2-C ,  9-H ) :   0.9615
B(  2-C , 10-H ) :   0.9572 B(  3-O , 11-H ) :   0.8976 B(  4-O , 12-H ) :   0.8690
B(  5-O , 13-H ) :   0.8988

Dispersion correction           -0.003030024
FINAL SINGLE POINT ENERGY      -344.723809278037

DIPOLE MOMENT
-------------

Method             : SCF
Type of density    : Electron Density
Multiplicity       :   1
Irrep              :   0
Energy             :  -344.7312905418709192 Eh
Relativity type    :
Basis              : AO
                                X                 Y                 Z
Electronic contribution:     -0.119946787       0.623087361      -0.404914603
Nuclear contribution   :     -0.242623199      -1.383410652       0.272402305
                        -----------------------------------------
Total Dipole Moment    :     -0.362569986      -0.760323290      -0.132512299
                        -----------------------------------------
Magnitude (a.u.)       :      0.852706286
Magnitude (Debye)      :      2.167407132

Rotational constants in cm-1:             0.153660             0.091727             0.069152
Rotational constants in MHz :          4606.605156          2749.900036          2073.119441

                             ****ORCA TERMINATED NORMALLY****
TOTAL RUN TIME: 0 days 0 hours 0 minutes 20 seconds 697 msec
