                         Program Version 6.0.0  -   RELEASE  -
|  1> ! r2scan-3c def2/J RI DEFGRID2 scfconv6 printgap
|  2> %output
|  3>     printlevel normal
|  4> end
|  5> %cpcm
|  6>     smd true
|  7>     smdsolvent "water"
|  8> end
|  9> * xyz 0 1
| 10> C -1.0453403426 -0.1304726415 0.7496547021
| 11> C 0.2412703137 0.5854527777 0.3233453993
| 12> C 1.1282473977 -0.3595332973 -0.5021346836
| 13> O 1.625938019 -1.3623375733 0.3561706161
| 14> O -0.0467335447 1.7642886618 -0.3877814772
| 15> O -1.8064985222 -0.3806852547 -0.4156751552
| 16> H -1.601452194 0.5143926631 1.4406976987
| 17> H -0.7701889422 -1.0617181489 1.2560508578
| 18> H 0.7972639792 0.8865508711 1.2170037871
| 19> H 1.9445160286 0.2302680632 -0.9378026733
| 20> H 0.5259290724 -0.794996906 -1.3095629237
| 21> H 2.195380787 -1.9586465157 -0.1496053254
| 22> H -0.7258509948 1.5491485892 -1.0467110993
| 23> H -2.6206119861 -0.8399141413 -0.1726358543
| 24> *
| 25>
| 26>                          ****END OF INPUT****

CARTESIAN COORDINATES (ANGSTROEM)
---------------------------------
  C     -1.045340   -0.130473    0.749655
  C      0.241270    0.585453    0.323345
  C      1.128247   -0.359533   -0.502135
  O      1.625938   -1.362338    0.356171
  O     -0.046734    1.764289   -0.387781
  O     -1.806499   -0.380685   -0.415675
  H     -1.601452    0.514393    1.440698
  H     -0.770189   -1.061718    1.256051
  H      0.797264    0.886551    1.217004
  H      1.944516    0.230268   -0.937803
  H      0.525929   -0.794997   -1.309563
  H      2.195381   -1.958647   -0.149605
  H     -0.725851    1.549149   -1.046711
  H     -2.620612   -0.839914   -0.172636

 Total Charge           Charge          ....    0
 Multiplicity           Mult            ....    1
 Number of Electrons    NEL             ....   50
 Basis Dimension        Dim             ....  169

ORBITAL ENERGIES
----------------

  NO   OCC          E(Eh)            E(eV)
   0   2.0000     -18.957165      -515.8507
   1   2.0000     -18.955987      -515.8186
   2   2.0000     -18.954445      -515.7767
   3   2.0000     -10.081071      -274.3199
   4   2.0000     -10.071476      -274.0588
   5   2.0000     -10.069161      -273.9958
   6   2.0000      -1.007303       -27.4101
   7   2.0000      -0.988329       -26.8938
   8   2.0000      -0.981397       -26.7052
   9   2.0000      -0.721431       -19.6311
  10   2.0000      -0.638806       -17.3828
  11   2.0000      -0.565926       -15.3996
  12   2.0000      -0.498072       -13.5532
  13   2.0000      -0.480439       -13.0734
  14   2.0000      -0.452303       -12.3078
  15   2.0000      -0.426741       -11.6122
  16   2.0000      -0.418645       -11.3919
  17   2.0000      -0.390241       -10.6190
  18   2.0000      -0.361087        -9.8257
  19   2.0000      -0.336908        -9.1677
  20   2.0000      -0.312638        -8.5073
  21   2.0000      -0.297863        -8.1053
  22   2.0000      -0.251980        -6.8567
  23   2.0000      -0.244361        -6.6494
  24   2.0000      -0.237609        -6.4657
  25   0.0000       0.053954         1.4682
  26   0.0000       0.069709         1.8969
  27   0.0000       0.119331         3.2472
  28   0.0000       0.121957         3.3186
  29   0.0000       0.141111         3.8398

MULLIKEN ATOMIC CHARGES
-----------------------
   0 C :   -0.162976
   1 C :    0.045052
   2 C :   -0.172712
   3 O :   -0.512390
   4 O :   -0.495325
   5 O :   -0.517689
   6 H :    0.152527
   7 H :    0.149208
   8 H :    0.161529
   9 H :    0.146205
  10 H :    0.151003
  11 H :    0.350372
  12 H :    0.355851
  13 H :    0.349345
Sum of atomic charges:    0.0000000

LOEWDIN ATOMIC CHARGES
----------------------
   0 C :    0.030528
   1 C :    0.082807
   2 C :    0.031107
   3 O :   -0.650586
   4 O :   -0.607590
   5 O :   -0.649051
   6 H :    0.171430
   7 H :    0.178936
   8 H :    0.196886
   9 H :    0.170328
  10 H :    0.174120
  11 H :    0.288602
  12 H :    0.292637
  13 H :    0.289845

  Mayer bond orders larger than 0.100000
B(  0-C ,  1-C ) :   0.9709 B(  0-C ,  5-O ) :   0.9436 B(  0-C ,  6-H ) :   0.9627
B(  0-C ,  7-H ) :   0.9555 B(  1-C ,  2-C ) :   0.9468 B(  1-C ,  4-O ) :   0.9412
B(  1-C ,  8-H ) :   0.9409 B(  2-C ,  3-O ) :   0.9250 B(  2-C ,  9-H ) :   0.9633
B(  2-C , 10-H ) :   0.9594 B(  3-O , 11-H ) :   0.8698 B(  4-O , 12-H ) :   0.8491
B(  5-O , 13-H ) :   0.8725

Dispersion correction           -0.003030024
FINAL SINGLE POINT ENERGY      -344.742800964926

DIPOLE MOMENT
-------------

Method             : SCF
Type of density    : Electron Density
Multiplicity       :   1
Irrep              :   0
Energy             :  -344.7502822287598292 Eh
Relativity type    :
Basis              : AO
                                X                 Y                 Z
Electronic contribution:     -0.227801977       0.388595177      -0.452917004
Nuclear contribution   :     -0.242623199      -1.383410652       0.272402305
                        -----------------------------------------
Total Dipole Moment    :     -0.470425176      -0.994815474      -0.180514699
                        -----------------------------------------
Magnitude (a.u.)       :      1.115142696
Magnitude (Debye)      :      2.834467473

Rotational constants in cm-1:             0.153660             0.091727             0.069152
Rotational constants in MHz :          4606.605156          2749.900036          2073.119441

                             ****ORCA TERMINATED NORMALLY****
TOTAL RUN TIME: 0 days 0 hours 0 minutes 23 seconds 872 msec
