                         Program Version 6.0.0  -   RELEASE  -
|  1> ! pbe def2-sv(p) def2/J RI DEFGRID1 loosescf d4 GCP(DFT/SV(P)) printgap
|  2> %output
|  3>     printlevel normal
|  4> end
|  5> * xyz 0 1
|  6> C -2.1231106819 1.0472236193 -0.585222476
|  7> C -1.5327306421 -0.0285901879 0.3229325878
|  8> C -2.618912005 -0.9714386936 0.8325628917
|  9> C -0.4644880086 -0.8317683961 -0.4258736425
| 10> O 0.642875225 -0.0079189417 -0.8100199956
| 11> C 1.6429784263 0.1477588585 0.0507723913
| 12> O 1.6732475728 -0.3753683034 1.1458628112
| 13> C 2.7249594258 1.01781245 -0.5153152454
| 14> H -1.3348794988 1.6751493774 -0.9932180498
| 15> H -2.8134141484 1.6740443063 -0.0273373137
| 16> H -2.6606886063 0.5866216118 -1.4105271271
| 17> H -1.0447383682 0.4505169553 1.1797648614
| 18> H -3.0876848098 -1.4915464879 0.0009339802
| 19> H -3.3811323587 -0.40753477 1.3627048433
| 20> H -2.1995703741 -1.7088191817 1.5123323867
| 21> H -0.0934322018 -1.6461860368 0.2043482182
| 22> H -0.8610383156 -1.2279805272 -1.3616950307
| 23> H 2.2865047522 1.8236159152 -1.09481065
| 24> H 3.3401130078 0.4129655159 -1.1779599957
| 25> H 3.3423223408 1.4031588506 0.2894007283
| 26> *
| 27>
| 28>                          ****END OF INPUT****

CARTESIAN COORDINATES (ANGSTROEM)
---------------------------------
  C     -2.123111    1.047224   -0.585222
  C     -1.532731   -0.028590    0.322933
  C     -2.618912   -0.971439    0.832563
  C     -0.464488   -0.831768   -0.425874
  O      0.642875   -0.007919   -0.810020
  C      1.642978    0.147759    0.050772
  O      1.673248   -0.375368    1.145863
  C      2.724959    1.017812   -0.515315
  H     -1.334879    1.675149   -0.993218
  H     -2.813414    1.674044   -0.027337
  H     -2.660689    0.586622   -1.410527
  H     -1.044738    0.450517    1.179765
  H     -3.087685   -1.491546    0.000934
  H     -3.381132   -0.407535    1.362705
  H     -2.199570   -1.708819    1.512332
  H     -0.093432   -1.646186    0.204348
  H     -0.861038   -1.227981   -1.361695
  H      2.286505    1.823616   -1.094811
  H      3.340113    0.412966   -1.177960
  H      3.342322    1.403159    0.289401

 Total Charge           Charge          ....    0
 Multiplicity           Mult            ....    1
 Number of Electrons    NEL             ....   64
 Basis Dimension        Dim             ....  136

ORBITAL ENERGIES
----------------

  NO   OCC          E(Eh)            E(eV)
   0   2.0000     -18.797216      -511.4983
   1   2.0000     -18.731081      -509.6986
   2   2.0000     -10.008315      -272.3401
   3   2.0000      -9.941052      -270.5098
   4   2.0000      -9.901111      -269.4229
   5   2.0000      -9.893955      -269.2282
   6   2.0000      -9.881456      -268.8881
   7   2.0000      -9.877389      -268.7774
   8   2.0000      -1.004553       -27.3353
   9   2.0000      -0.908438       -24.7199
  10   2.0000      -0.737159       -20.0591
  11   2.0000      -0.685315       -18.6484
  12   2.0000      -0.623860       -16.9761
  13   2.0000      -0.617188       -16.7945
  14   2.0000      -0.532393       -14.4872
  15   2.0000      -0.490468       -13.3463
  16   2.0000      -0.450018       -12.2456
  17   2.0000      -0.428271       -11.6539
  18   2.0000      -0.421410       -11.4672
  19   2.0000      -0.401805       -10.9337
  20   2.0000      -0.394548       -10.7362
  21   2.0000      -0.369450       -10.0533
  22   2.0000      -0.356375        -9.6975
  23   2.0000      -0.354829        -9.6554
  24   2.0000      -0.345442        -9.3999
  25   2.0000      -0.341066        -9.2809
  26   2.0000      -0.310494        -8.4490
  27   2.0000      -0.303665        -8.2631
  28   2.0000      -0.295764        -8.0481
  29   2.0000      -0.284490        -7.7414
  30   2.0000      -0.251443        -6.8421
  31   2.0000      -0.217510        -5.9188
  32   0.0000      -0.019594        -0.5332
  33   0.0000       0.035484         0.9656
  34   0.0000       0.050234         1.3669
  35   0.0000       0.066710         1.8153
  36   0.0000       0.083237         2.2650

MULLIKEN ATOMIC CHARGES
-----------------------
   0 C :   -0.246081
   1 C :   -0.208755
   2 C :   -0.253342
   3 C :    0.047978
   4 O :   -0.240112
   5 C :    0.083113
   6 O :   -0.212203
   7 C :   -0.244116
   8 H :    0.108034
   9 H :    0.103335
  10 H :    0.090116
  11 H :    0.093640
  12 H :    0.094994
  13 H :    0.106587
  14 H :    0.110437
  15 H :    0.100566
  16 H :    0.085308
  17 H :    0.121738
  18 H :    0.133775
  19 H :    0.124986
Sum of atomic charges:   -0.0000000

LOEWDIN ATOMIC CHARGES
----------------------
   0 C :   -0.332088
   1 C :   -0.172657
   2 C :   -0.327176
   3 C :   -0.101185
   4 O :   -0.067430
   5 C :    0.030568
   6 O :   -0.172276
   7 C :   -0.358535
   8 H :    0.118798
   9 H :    0.119560
  10 H :    0.115726
  11 H :    0.124484
  12 H :    0.117080
  13 H :    0.122788
  14 H :    0.122406
  15 H :    0.117073
  16 H :    0.114757
  17 H :    0.138562
  18 H :    0.149273
  19 H :    0.140273

  Mayer bond orders larger than 0.100000
B(  0-C ,  1-C ) :   1.0993 B(  0-C ,  8-H ) :   0.9481 B(  0-C ,  9-H ) :   0.9527
B(  0-C , 10-H ) :   0.9498 B(  1-C ,  2-C ) :   1.1094 B(  1-C ,  3-C ) :   1.0863
B(  1-C , 11-H ) :   0.8969 B(  2-C , 12-H ) :   0.9488 B(  2-C , 13-H ) :   0.9507
B(  2-C , 14-H ) :   0.9494 B(  3-C ,  4-O ) :   0.9351 B(  3-C , 15-H ) :   0.9073
B(  3-C , 16-H ) :   0.9231 B(  4-O ,  5-C ) :   1.1866 B(  5-C ,  6-O ) :   2.0481
B(  5-C ,  7-C ) :   1.0829 B(  7-C , 17-H ) :   0.9343 B(  7-C , 18-H ) :   0.9240
B(  7-C , 19-H ) :   0.9409

Dispersion correction           -0.015493979
FINAL SINGLE POINT ENERGY      -385.458686232038

DIPOLE MOMENT
-------------

Method             : SCF
Type of density    : Electron Density
Multiplicity       :   1
Irrep              :   0
Energy             :  -385.5335152523383044 Eh
Relativity type    :
Basis              : AO
                                X                 Y                 Z
Electronic contribution:      7.652473438      -1.253984831       0.839013995
Nuclear contribution   :     -7.947239347       1.442851123      -1.417340026
                        -----------------------------------------
Total Dipole Moment    :     -0.294765909       0.188866292      -0.578326031
                        -----------------------------------------
Magnitude (a.u.)       :      0.676031372
Magnitude (Debye)      :      1.718335189

Rotational constants in cm-1:             0.134613             0.037140             0.032897
Rotational constants in MHz :          4035.608692          1113.423776           986.235191

                             ****ORCA TERMINATED NORMALLY****
TOTAL RUN TIME: 0 days 0 hours 0 minutes 11 seconds 931 msec
