                         Program Version 6.0.0  -   RELEASE  -
|  1> ! r2scan-3c def2/J RI DEFGRID2 scfconv6 printgap
|  2> %output
|  3>     printlevel normal
|  4> end
|  5> * xyz 0 1
|  6> C -2.7393444516 -0.3351921901 0.0041049637
|  7> C -1.3280213858 -0.0277338609 0.488179444
|  8> C -0.3066580184 -0.1620505 -0.6526763189
|  9> C 1.0666479468 0.1828399439 -0.1340257682
| 10> O 1.4801297001 1.3268089235 -0.1201842623
| 11> C 1.8674962172 -0.9728079402 0.384365586
| 12> H -3.4464497921 -0.2368573833 0.8235424735
| 13> H -2.7971171037 -1.3495756297 -0.3826418645
| 14> H -3.0305024486 0.3521982569 -0.7862148316
| 15> H -1.0632925712 -0.7116828045 1.2966752068
| 16> H -1.2843475338 0.9896169396 0.8830504235
| 17> H -0.3238265671 -1.1800781506 -1.0390058611
| 18> H -0.573995518 0.5384128381 -1.4453111851
| 19> H 1.2518876456 -1.5966957956 1.0261387115
| 20> H 2.7431719013 -0.6208004337 0.9224339617
| 21> H 2.1876117113 -1.5764237577 -0.4627685681
| 22> *
| 23>
| 24>                          ****END OF INPUT****

CARTESIAN COORDINATES (ANGSTROEM)
---------------------------------
  C     -2.739344   -0.335192    0.004105
  C     -1.328021   -0.027734    0.488179
  C     -0.306658   -0.162050   -0.652676
  C      1.066648    0.182840   -0.134026
  O      1.480130    1.326809   -0.120184
  C      1.867496   -0.972808    0.384366
  H     -3.446450   -0.236857    0.823542
  H     -2.797117   -1.349576   -0.382642
  H     -3.030502    0.352198   -0.786215
  H     -1.063293   -0.711683    1.296675
  H     -1.284348    0.989617    0.883050
  H     -0.323827   -1.180078   -1.039006
  H     -0.573996    0.538413   -1.445311
  H      1.251888   -1.596696    1.026139
  H      2.743172   -0.620800    0.922434
  H      2.187612   -1.576424   -0.462769

 Total Charge           Charge          ....    0
 Multiplicity           Mult            ....    1
 Number of Electrons    NEL             ....   48
 Basis Dimension        Dim             ....  169

ORBITAL ENERGIES
----------------

  NO   OCC          E(Eh)            E(eV)
   0   2.0000     -18.935030      -515.2484
   1   2.0000     -10.116928      -275.2956
   2   2.0000     -10.042921      -273.2818
   3   2.0000     -10.037056      -273.1222
   4   2.0000     -10.034284      -273.0468
   5   2.0000     -10.026419      -272.8327
   6   2.0000      -1.000511       -27.2253
   7   2.0000      -0.775673       -21.1071
   8   2.0000      -0.720984       -19.6190
   9   2.0000      -0.666096       -18.1254
  10   2.0000      -0.573254       -15.5990
  11   2.0000      -0.501486       -13.6461
  12   2.0000      -0.451709       -12.2916
  13   2.0000      -0.433189       -11.7877
  14   2.0000      -0.422263       -11.4904
  15   2.0000      -0.401621       -10.9287
  16   2.0000      -0.387434       -10.5426
  17   2.0000      -0.368537       -10.0284
  18   2.0000      -0.352662        -9.5964
  19   2.0000      -0.336287        -9.1508
  20   2.0000      -0.329390        -8.9631
  21   2.0000      -0.312604        -8.5064
  22   2.0000      -0.305937        -8.3250
  23   2.0000      -0.211081        -5.7438
  24   0.0000      -0.044442        -1.2093
  25   0.0000       0.074560         2.0289
  26   0.0000       0.096432         2.6240
  27   0.0000       0.112863         3.0712
  28   0.0000       0.129030         3.5111

MULLIKEN ATOMIC CHARGES
-----------------------
   0 C :   -0.463050
   1 C :   -0.237215
   2 C :   -0.290405
   3 C :    0.300135
   4 O :   -0.345437
   5 C :   -0.504497
   6 H :    0.150935
   7 H :    0.141545
   8 H :    0.148411
   9 H :    0.133170
  10 H :    0.162255
  11 H :    0.141996
  12 H :    0.164302
  13 H :    0.151416
  14 H :    0.176454
  15 H :    0.169986
Sum of atomic charges:    0.0000000

LOEWDIN ATOMIC CHARGES
----------------------
   0 C :   -0.419274
   1 C :   -0.290552
   2 C :   -0.283778
   3 C :    0.212889
   4 O :   -0.462008
   5 C :   -0.387369
   6 H :    0.153076
   7 H :    0.150066
   8 H :    0.152589
   9 H :    0.151767
  10 H :    0.162364
  11 H :    0.162762
  12 H :    0.178591
  13 H :    0.167828
  14 H :    0.174270
  15 H :    0.176778

  Mayer bond orders larger than 0.100000
B(  0-C ,  1-C ) :   0.8967 B(  0-C ,  6-H ) :   0.9719 B(  0-C ,  7-H ) :   0.9812
B(  0-C ,  8-H ) :   0.9847 B(  1-C ,  2-C ) :   0.9252 B(  1-C ,  9-H ) :   0.9609
B(  1-C , 10-H ) :   0.9697 B(  2-C ,  3-C ) :   0.8988 B(  2-C , 11-H ) :   0.9558
B(  2-C , 12-H ) :   0.9619 B(  3-C ,  4-O ) :   1.9667 B(  3-C ,  5-C ) :   0.9100
B(  5-C , 13-H ) :   0.9493 B(  5-C , 14-H ) :   0.9819 B(  5-C , 15-H ) :   0.9439

Dispersion correction           -0.003688270
FINAL SINGLE POINT ENERGY      -271.703072489274

DIPOLE MOMENT
-------------

Method             : SCF
Type of density    : Electron Density
Multiplicity       :   1
Irrep              :   0
Energy             :  -271.7066611443329407 Eh
Relativity type    :
Basis              : AO
                                X                 Y                 Z
Electronic contribution:      5.400520621       3.957236075      -0.742994471
Nuclear contribution   :     -5.923054959      -5.038786291       0.782429483
                        -----------------------------------------
Total Dipole Moment    :     -0.522534338      -1.081550216       0.039435012
                        -----------------------------------------
Magnitude (a.u.)       :      1.201810353
Magnitude (Debye)      :      3.054759151

Rotational constants in cm-1:             0.241668             0.062621             0.055576
Rotational constants in MHz :          7245.027950          1877.338912          1666.133546

                             ****ORCA TERMINATED NORMALLY****
TOTAL RUN TIME: 0 days 0 hours 0 minutes 22 seconds 610 msec
