                         Program Version 6.0.0  -   RELEASE  -
|  1> ! r2scan-3c def2/J RI DEFGRID2 scfconv6 printgap
|  2> %output
|  3>     printlevel normal
|  4> end
|  5> %cpcm
|  6>     smd true
|  7>     smdsolvent "water"
|  8> end
|  9> * xyz 0 1
| 10> C -2.7393444516 -0.3351921901 0.0041049637
| 11> C -1.3280213858 -0.0277338609 0.488179444
| 12> C -0.3066580184 -0.1620505 -0.6526763189
| 13> C 1.0666479468 0.1828399439 -0.1340257682
| 14> O 1.4801297001 1.3268089235 -0.1201842623
| 15> C 1.8674962172 -0.9728079402 0.384365586
| 16> H -3.4464497921 -0.2368573833 0.8235424735
| 17> H -2.7971171037 -1.3495756297 -0.3826418645
| 18> H -3.0305024486 0.3521982569 -0.7862148316
| 19> H -1.0632925712 -0.7116828045 1.2966752068
| 20> H -1.2843475338 0.9896169396 0.8830504235
| 21> H -0.3238265671 -1.1800781506 -1.0390058611
| 22> H -0.573995518 0.5384128381 -1.4453111851
| 23> H 1.2518876456 -1.5966957956 1.0261387115
| 24> H 2.7431719013 -0.6208004337 0.9224339617
| 25> H 2.1876117113 -1.5764237577 -0.4627685681
| 26> *
| 27>
| 28>                          ****END OF INPUT****

CARTESIAN COORDINATES (ANGSTROEM)
---------------------------------
  C     -2.739344   -0.335192    0.004105
  C     -1.328021   -0.027734    0.488179
  C     -0.306658   -0.162050   -0.652676
  C      1.066648    0.182840   -0.134026
  O      1.480130    1.326809   -0.120184
  C      1.867496   -0.972808    0.384366
  H     -3.446450   -0.236857    0.823542
  H     -2.797117   -1.349576   -0.382642
  H     -3.030502    0.352198   -0.786215
  H     -1.063293   -0.711683    1.296675
  H     -1.284348    0.989617    0.883050
  H     -0.323827   -1.180078   -1.039006
  H     -0.573996    0.538413   -1.445311
  H      1.251888   -1.596696    1.026139
  H      2.743172   -0.620800    0.922434
  H      2.187612   -1.576424   -0.462769

 Total Charge           Charge          ....    0
 Multiplicity           Mult            ....    1
 Number of Electrons    NEL             ....   48
 Basis Dimension        Dim             ....  169

ORBITAL ENERGIES
----------------

  NO   OCC          E(Eh)            E(eV)
   0   2.0000     -18.945505      -515.5334
   1   2.0000     -10.123706      -275.4800
   2   2.0000     -10.029921      -272.9280
   3   2.0000     -10.026862      -272.8448
   4   2.0000     -10.022300      -272.7207
   5   2.0000     -10.011829      -272.4357
   6   2.0000      -1.013733       -27.5851
   7   2.0000      -0.765015       -20.8171
   8   2.0000      -0.710974       -19.3466
   9   2.0000      -0.655132       -17.8271
  10   2.0000      -0.560972       -15.2648
  11   2.0000      -0.498254       -13.5582
  12   2.0000      -0.442043       -12.0286
  13   2.0000      -0.432062       -11.7570
  14   2.0000      -0.415118       -11.2959
  15   2.0000      -0.401358       -10.9215
  16   2.0000      -0.374596       -10.1933
  17   2.0000      -0.360604        -9.8125
  18   2.0000      -0.343230        -9.3398
  19   2.0000      -0.332897        -9.0586
  20   2.0000      -0.320446        -8.7198
  21   2.0000      -0.303850        -8.2682
  22   2.0000      -0.295628        -8.0444
  23   2.0000      -0.222287        -6.0487
  24   0.0000      -0.047474        -1.2918
  25   0.0000       0.086982         2.3669
  26   0.0000       0.110883         3.0173
  27   0.0000       0.126673         3.4469
  28   0.0000       0.143966         3.9175

MULLIKEN ATOMIC CHARGES
-----------------------
   0 C :   -0.506443
   1 C :   -0.240549
   2 C :   -0.297441
   3 C :    0.336766
   4 O :   -0.456843
   5 C :   -0.533885
   6 H :    0.161347
   7 H :    0.157044
   8 H :    0.158467
   9 H :    0.157420
  10 H :    0.158916
  11 H :    0.170639
  12 H :    0.171801
  13 H :    0.184616
  14 H :    0.176346
  15 H :    0.201800
Sum of atomic charges:    0.0000000

LOEWDIN ATOMIC CHARGES
----------------------
   0 C :   -0.425433
   1 C :   -0.288067
   2 C :   -0.279588
   3 C :    0.230657
   4 O :   -0.542485
   5 C :   -0.384277
   6 H :    0.155818
   7 H :    0.154636
   8 H :    0.154541
   9 H :    0.160119
  10 H :    0.159977
  11 H :    0.175977
  12 H :    0.180315
  13 H :    0.183048
  14 H :    0.173542
  15 H :    0.191221

  Mayer bond orders larger than 0.100000
B(  0-C ,  1-C ) :   0.8863 B(  0-C ,  6-H ) :   0.9690 B(  0-C ,  7-H ) :   0.9786
B(  0-C ,  8-H ) :   0.9826 B(  1-C ,  2-C ) :   0.9104 B(  1-C ,  9-H ) :   0.9587
B(  1-C , 10-H ) :   0.9705 B(  2-C ,  3-C ) :   0.9160 B(  2-C , 11-H ) :   0.9450
B(  2-C , 12-H ) :   0.9615 B(  3-C ,  4-O ) :   1.8855 B(  3-C ,  5-C ) :   0.9358
B(  5-C , 13-H ) :   0.9354 B(  5-C , 14-H ) :   0.9771 B(  5-C , 15-H ) :   0.9287

Dispersion correction           -0.003688270
FINAL SINGLE POINT ENERGY      -271.710092594751

DIPOLE MOMENT
-------------

Method             : SCF
Type of density    : Electron Density
Multiplicity       :   1
Irrep              :   0
Energy             :  -271.7136812498096674 Eh
Relativity type    :
Basis              : AO
                                X                 Y                 Z
Electronic contribution:      5.216201048       3.416189696      -0.738190957
Nuclear contribution   :     -5.923054959      -5.038786291       0.782429483
                        -----------------------------------------
Total Dipole Moment    :     -0.706853910      -1.622596594       0.044238526
                        -----------------------------------------
Magnitude (a.u.)       :      1.770429102
Magnitude (Debye)      :      4.500073151

Rotational constants in cm-1:             0.241668             0.062621             0.055576
Rotational constants in MHz :          7245.027950          1877.338912          1666.133546

                             ****ORCA TERMINATED NORMALLY****
TOTAL RUN TIME: 0 days 0 hours 0 minutes 25 seconds 335 msec
