                         Program Version 6.0.0  -   RELEASE  -
|  1> ! pbe def2-sv(p) def2/J RI DEFGRID1 loosescf d4 GCP(DFT/SV(P)) printgap
|  2> %output
|  3>     printlevel normal
|  4> end
|  5> * xyz 0 1
|  6> C 2.7191553708 0.2707085781 -1.475210231
|  7> C 2.2262385967 0.9713370194 -0.210399815
|  8> C 1.3319332783 0.1252640787 0.7111242858
|  9> H 1.3742460056 0.5915439949 1.704227161
| 10> C 1.8607388484 -1.3071976784 0.856001192
| 11> C -0.131676366 0.0836942073 0.3261031079
| 12> C -1.0448352058 -0.3560787527 1.2822203768
| 13> C -2.3950129571 -0.442209762 1.0019795731
| 14> C -2.8674194778 -0.0823212213 -0.2493287801
| 15> C -1.9754055053 0.3693186321 -1.2041372142
| 16> C -0.6217163863 0.4525505732 -0.9191622149
| 17> H 3.4420400644 -0.5026967131 -1.2306285512
| 18> H 1.9043214129 -0.1902248622 -2.0262519177
| 19> H 3.2077485332 0.9932619348 -2.1256686995
| 20> H 3.1035371274 1.2797274571 0.363718503
| 21> H 1.6849350933 1.8811250081 -0.4790244942
| 22> H 2.9119778191 -1.2931737254 1.1332285039
| 23> H 1.3087887509 -1.8384235231 1.6271342114
| 24> H 1.7477904641 -1.8539407733 -0.0760980959
| 25> H -0.6905818583 -0.6285047481 2.2665630394
| 26> H -3.0815626331 -0.7864046882 1.7616957709
| 27> H -3.9215822072 -0.1477594634 -0.474006932
| 28> H -2.3324336545 0.6617307394 -2.1809994024
| 29> H 0.042110182 0.820023901 -1.6842626032
| 30> *
| 31>
| 32>                          ****END OF INPUT****

CARTESIAN COORDINATES (ANGSTROEM)
---------------------------------
  C      2.719155    0.270709   -1.475210
  C      2.226239    0.971337   -0.210400
  C      1.331933    0.125264    0.711124
  H      1.374246    0.591544    1.704227
  C      1.860739   -1.307198    0.856001
  C     -0.131676    0.083694    0.326103
  C     -1.044835   -0.356079    1.282220
  C     -2.395013   -0.442210    1.001980
  C     -2.867419   -0.082321   -0.249329
  C     -1.975406    0.369319   -1.204137
  C     -0.621716    0.452551   -0.919162
  H      3.442040   -0.502697   -1.230629
  H      1.904321   -0.190225   -2.026252
  H      3.207749    0.993262   -2.125669
  H      3.103537    1.279727    0.363719
  H      1.684935    1.881125   -0.479024
  H      2.911978   -1.293174    1.133229
  H      1.308789   -1.838424    1.627134
  H      1.747790   -1.853941   -0.076098
  H     -0.690582   -0.628505    2.266563
  H     -3.081563   -0.786405    1.761696
  H     -3.921582   -0.147759   -0.474007
  H     -2.332434    0.661731   -2.180999
  H      0.042110    0.820024   -1.684263

 Total Charge           Charge          ....    0
 Multiplicity           Mult            ....    1
 Number of Electrons    NEL             ....   74
 Basis Dimension        Dim             ....  168

ORBITAL ENERGIES
----------------

  NO   OCC          E(Eh)            E(eV)
   0   2.0000      -9.898703      -269.3574
   1   2.0000      -9.898013      -269.3386
   2   2.0000      -9.886911      -269.0365
   3   2.0000      -9.886537      -269.0264
   4   2.0000      -9.885743      -269.0047
   5   2.0000      -9.885568      -269.0000
   6   2.0000      -9.884695      -268.9762
   7   2.0000      -9.884582      -268.9732
   8   2.0000      -9.875738      -268.7325
   9   2.0000      -9.874020      -268.6858
  10   2.0000      -0.776836       -21.1388
  11   2.0000      -0.729127       -19.8405
  12   2.0000      -0.670747       -18.2519
  13   2.0000      -0.663330       -18.0501
  14   2.0000      -0.638750       -17.3813
  15   2.0000      -0.580084       -15.7849
  16   2.0000      -0.541141       -14.7252
  17   2.0000      -0.534161       -14.5353
  18   2.0000      -0.493826       -13.4377
  19   2.0000      -0.456533       -12.4229
  20   2.0000      -0.423074       -11.5124
  21   2.0000      -0.406936       -11.0733
  22   2.0000      -0.399288       -10.8652
  23   2.0000      -0.389529       -10.5996
  24   2.0000      -0.373616       -10.1666
  25   2.0000      -0.363184        -9.8827
  26   2.0000      -0.353108        -9.6086
  27   2.0000      -0.336821        -9.1654
  28   2.0000      -0.335038        -9.1168
  29   2.0000      -0.322431        -8.7738
  30   2.0000      -0.311064        -8.4645
  31   2.0000      -0.300459        -8.1759
  32   2.0000      -0.289950        -7.8899
  33   2.0000      -0.275892        -7.5074
  34   2.0000      -0.273565        -7.4441
  35   2.0000      -0.224697        -6.1143
  36   2.0000      -0.215320        -5.8591
  37   0.0000      -0.031695        -0.8625
  38   0.0000      -0.028248        -0.7687
  39   0.0000       0.033423         0.9095
  40   0.0000       0.053932         1.4676
  41   0.0000       0.063112         1.7174

MULLIKEN ATOMIC CHARGES
-----------------------
   0 C :   -0.296258
   1 C :   -0.149959
   2 C :   -0.133798
   3 H :    0.074401
   4 C :   -0.246798
   5 C :    0.114298
   6 C :   -0.128684
   7 C :   -0.043924
   8 C :   -0.048777
   9 C :   -0.044876
  10 C :   -0.139590
  11 H :    0.103205
  12 H :    0.116323
  13 H :    0.103680
  14 H :    0.083356
  15 H :    0.091107
  16 H :    0.101218
  17 H :    0.102310
  18 H :    0.108769
  19 H :    0.041318
  20 H :    0.048536
  21 H :    0.049864
  22 H :    0.046782
  23 H :    0.047496
Sum of atomic charges:   -0.0000000

LOEWDIN ATOMIC CHARGES
----------------------
   0 C :   -0.346447
   1 C :   -0.227176
   2 C :   -0.138136
   3 H :    0.124356
   4 C :   -0.322544
   5 C :   -0.026731
   6 C :   -0.121312
   7 C :   -0.122176
   8 C :   -0.130045
   9 C :   -0.121594
  10 C :   -0.130010
  11 H :    0.119202
  12 H :    0.116936
  13 H :    0.121548
  14 H :    0.118810
  15 H :    0.117327
  16 H :    0.117431
  17 H :    0.118599
  18 H :    0.122288
  19 H :    0.119837
  20 H :    0.122167
  21 H :    0.121979
  22 H :    0.121936
  23 H :    0.123755

  Mayer bond orders larger than 0.100000
B(  0-C ,  1-C ) :   1.1505 B(  0-C , 11-H ) :   0.9415 B(  0-C , 12-H ) :   0.9479
B(  0-C , 13-H ) :   0.9492 B(  1-C ,  2-C ) :   1.1007 B(  1-C , 14-H ) :   0.9166
B(  1-C , 15-H ) :   0.9197 B(  2-C ,  3-H ) :   0.8827 B(  2-C ,  4-C ) :   1.1013
B(  2-C ,  5-C ) :   1.0010 B(  4-C , 16-H ) :   0.9471 B(  4-C , 17-H ) :   0.9450
B(  4-C , 18-H ) :   0.9371 B(  5-C ,  6-C ) :   1.3722 B(  5-C , 10-C ) :   1.4222
B(  6-C ,  7-C ) :   1.3872 B(  6-C , 19-H ) :   0.9590 B(  7-C ,  8-C ) :   1.3664
B(  7-C , 20-H ) :   0.9630 B(  8-C ,  9-C ) :   1.3906 B(  8-C , 21-H ) :   0.9657
B(  9-C , 10-C ) :   1.3599 B(  9-C , 22-H ) :   0.9612 B( 10-C , 23-H ) :   0.9438

Dispersion correction           -0.025314834
FINAL SINGLE POINT ENERGY      -388.576277700152

DIPOLE MOMENT
-------------

Method             : SCF
Type of density    : Electron Density
Multiplicity       :   1
Irrep              :   0
Energy             :  -388.6459270447145400 Eh
Relativity type    :
Basis              : AO
                                X                 Y                 Z
Electronic contribution:     -9.868862059       0.954430472       1.377481637
Nuclear contribution   :     10.039635495      -0.951034019      -1.332547027
                        -----------------------------------------
Total Dipole Moment    :      0.170773435       0.003396453       0.044934610
                        -----------------------------------------
Magnitude (a.u.)       :      0.176618859
Magnitude (Debye)      :      0.448929462

Rotational constants in cm-1:             0.087922             0.029798             0.024427
Rotational constants in MHz :          2635.829553           893.319028           732.304375

                             ****ORCA TERMINATED NORMALLY****
TOTAL RUN TIME: 0 days 0 hours 0 minutes 12 seconds 638 msec
