                         Program Version 6.0.0  -   RELEASE  -
|  1> ! pbe def2-sv(p) def2/J RI DEFGRID1 loosescf d4 GCP(DFT/SV(P)) printgap
|  2> %output
|  3>     printlevel normal
|  4> end
|  5> * xyz 0 1
|  6> C -2.1065140036 0.1928473163 1.3249815168
|  7> C -1.7651048348 -0.5732667402 0.0494556262
|  8> C -2.9141326428 -0.5082800583 -0.9528317626
|  9> C -0.4962616014 -0.0095688049 -0.586390493
| 10> O 0.6097113227 -0.2563731437 0.2916700513
| 11> C 1.7888339482 0.2506122462 -0.0438039002
| 12> O 1.9674162046 0.8990664319 -1.0555656552
| 13> C 2.842139313 -0.0637194842 0.9752397404
| 14> H -2.9763225799 -0.2456608671 1.8059702874
| 15> H -2.3256080489 1.2328634773 1.0935197414
| 16> H -1.2707956453 0.1592500906 2.0188603111
| 17> H -1.567521675 -1.6182375704 0.3072619631
| 18> H -3.818477721 -0.9134187703 -0.5082761306
| 19> H -2.680734848 -1.0812747652 -1.8464064747
| 20> H -3.1033585433 0.5222060437 -1.2436956127
| 21> H -0.2860316008 -0.4869827351 -1.5495416728
| 22> H -0.5781844599 1.0698050145 -0.7546420437
| 23> H 2.5319511432 -0.9090391948 1.5796606285
| 24> H 2.9733426094 0.8075786726 1.6134367323
| 25> H 3.7844927705 -0.2618394332 0.4738606415
| 26> *
| 27>
| 28>                          ****END OF INPUT****

CARTESIAN COORDINATES (ANGSTROEM)
---------------------------------
  C     -2.106514    0.192847    1.324982
  C     -1.765105   -0.573267    0.049456
  C     -2.914133   -0.508280   -0.952832
  C     -0.496262   -0.009569   -0.586390
  O      0.609711   -0.256373    0.291670
  C      1.788834    0.250612   -0.043804
  O      1.967416    0.899066   -1.055566
  C      2.842139   -0.063719    0.975240
  H     -2.976323   -0.245661    1.805970
  H     -2.325608    1.232863    1.093520
  H     -1.270796    0.159250    2.018860
  H     -1.567522   -1.618238    0.307262
  H     -3.818478   -0.913419   -0.508276
  H     -2.680735   -1.081275   -1.846406
  H     -3.103359    0.522206   -1.243696
  H     -0.286032   -0.486983   -1.549542
  H     -0.578184    1.069805   -0.754642
  H      2.531951   -0.909039    1.579661
  H      2.973343    0.807579    1.613437
  H      3.784493   -0.261839    0.473861

 Total Charge           Charge          ....    0
 Multiplicity           Mult            ....    1
 Number of Electrons    NEL             ....   64
 Basis Dimension        Dim             ....  136

ORBITAL ENERGIES
----------------

  NO   OCC          E(Eh)            E(eV)
   0   2.0000     -18.798440      -511.5316
   1   2.0000     -18.728707      -509.6340
   2   2.0000     -10.006817      -272.2993
   3   2.0000      -9.942122      -270.5389
   4   2.0000      -9.904141      -269.5054
   5   2.0000      -9.893572      -269.2178
   6   2.0000      -9.883939      -268.9557
   7   2.0000      -9.878488      -268.8073
   8   2.0000      -1.005287       -27.3553
   9   2.0000      -0.906410       -24.6647
  10   2.0000      -0.740525       -20.1507
  11   2.0000      -0.684704       -18.6317
  12   2.0000      -0.623710       -16.9720
  13   2.0000      -0.619009       -16.8441
  14   2.0000      -0.521126       -14.1806
  15   2.0000      -0.506842       -13.7919
  16   2.0000      -0.447580       -12.1793
  17   2.0000      -0.432980       -11.7820
  18   2.0000      -0.417805       -11.3691
  19   2.0000      -0.407808       -11.0970
  20   2.0000      -0.384409       -10.4603
  21   2.0000      -0.381977       -10.3941
  22   2.0000      -0.362433        -9.8623
  23   2.0000      -0.354102        -9.6356
  24   2.0000      -0.345343        -9.3973
  25   2.0000      -0.323752        -8.8097
  26   2.0000      -0.316388        -8.6094
  27   2.0000      -0.304358        -8.2820
  28   2.0000      -0.295566        -8.0428
  29   2.0000      -0.287478        -7.8227
  30   2.0000      -0.255468        -6.9516
  31   2.0000      -0.215289        -5.8583
  32   0.0000      -0.018505        -0.5035
  33   0.0000       0.032172         0.8754
  34   0.0000       0.050887         1.3847
  35   0.0000       0.066332         1.8050
  36   0.0000       0.078630         2.1396

MULLIKEN ATOMIC CHARGES
-----------------------
   0 C :   -0.251267
   1 C :   -0.180020
   2 C :   -0.253256
   3 C :    0.028504
   4 O :   -0.237147
   5 C :    0.082944
   6 O :   -0.218398
   7 C :   -0.245620
   8 H :    0.102736
   9 H :    0.092799
  10 H :    0.109457
  11 H :    0.083242
  12 H :    0.107231
  13 H :    0.104661
  14 H :    0.099761
  15 H :    0.099142
  16 H :    0.093102
  17 H :    0.117488
  18 H :    0.135494
  19 H :    0.129148
Sum of atomic charges:   -0.0000000

LOEWDIN ATOMIC CHARGES
----------------------
   0 C :   -0.331798
   1 C :   -0.169547
   2 C :   -0.327199
   3 C :   -0.095021
   4 O :   -0.067414
   5 C :    0.027813
   6 O :   -0.174113
   7 C :   -0.359734
   8 H :    0.119539
   9 H :    0.117130
  10 H :    0.120320
  11 H :    0.120568
  12 H :    0.122735
  13 H :    0.119780
  14 H :    0.119509
  15 H :    0.114438
  16 H :    0.114671
  17 H :    0.134800
  18 H :    0.149741
  19 H :    0.143782

  Mayer bond orders larger than 0.100000
B(  0-C ,  1-C ) :   1.1051 B(  0-C ,  8-H ) :   0.9526 B(  0-C ,  9-H ) :   0.9497
B(  0-C , 10-H ) :   0.9477 B(  1-C ,  2-C ) :   1.1023 B(  1-C ,  3-C ) :   1.0575
B(  1-C , 11-H ) :   0.8985 B(  2-C , 12-H ) :   0.9515 B(  2-C , 13-H ) :   0.9497
B(  2-C , 14-H ) :   0.9491 B(  3-C ,  4-O ) :   0.9222 B(  3-C , 15-H ) :   0.9307
B(  3-C , 16-H ) :   0.9195 B(  4-O ,  5-C ) :   1.1975 B(  5-C ,  6-O ) :   2.0460
B(  5-C ,  7-C ) :   1.0904 B(  7-C , 17-H ) :   0.9374 B(  7-C , 18-H ) :   0.9249
B(  7-C , 19-H ) :   0.9364

Dispersion correction           -0.015007431
FINAL SINGLE POINT ENERGY      -385.458543095095

DIPOLE MOMENT
-------------

Method             : SCF
Type of density    : Electron Density
Multiplicity       :   1
Irrep              :   0
Energy             :  -385.5334002108799609 Eh
Relativity type    :
Basis              : AO
                                X                 Y                 Z
Electronic contribution:      8.267643416       1.205936310      -2.256041219
Nuclear contribution   :     -8.702918284      -1.608573086       2.793799111
                        -----------------------------------------
Total Dipole Moment    :     -0.435274867      -0.402636776       0.537757893
                        -----------------------------------------
Magnitude (a.u.)       :      0.800477442
Magnitude (Debye)      :      2.034651960

Rotational constants in cm-1:             0.149163             0.033013             0.029223
Rotational constants in MHz :          4471.791213           989.690174           876.086879

                             ****ORCA TERMINATED NORMALLY****
TOTAL RUN TIME: 0 days 0 hours 0 minutes 11 seconds 916 msec
