                         Program Version 6.0.0  -   RELEASE  -
|  1> ! r2scan-3c def2/J RI DEFGRID2 scfconv6 printgap
|  2> %output
|  3>     printlevel normal
|  4> end
|  5> * xyz 0 1
|  6> C -1.9171526171 0.2553773885 -0.6075540011
|  7> C -1.1055577205 0.2426812061 0.6823436828
|  8> C 0.0675156858 -0.7385339735 0.5991037271
|  9> O 0.9941354953 -0.4551726079 -0.4343201084
| 10> C 1.8283329445 0.6573509327 -0.1900130071
| 11> H -2.7036588965 1.003706288 -0.5577105656
| 12> H -1.270439312 0.4812321652 -1.4523622236
| 13> H -2.3711898159 -0.7176790854 -0.7784663496
| 14> H -1.735411602 -0.0598682672 1.5197560711
| 15> H -0.7294684965 1.2455073128 0.8924434126
| 16> H 0.5941662054 -0.773603682 1.564220417
| 17> H -0.3047785134 -1.7384823176 0.3627069909
| 18> H 2.5611712196 0.6638914337 -0.9935354845
| 19> H 2.3388585273 0.5559033349 0.774164571
| 20> H 1.2682929907 1.5969746063 -0.2030715912
| 21> *
| 22>
| 23>                          ****END OF INPUT****

CARTESIAN COORDINATES (ANGSTROEM)
---------------------------------
  C     -1.917153    0.255377   -0.607554
  C     -1.105558    0.242681    0.682344
  C      0.067516   -0.738534    0.599104
  O      0.994135   -0.455173   -0.434320
  C      1.828333    0.657351   -0.190013
  H     -2.703659    1.003706   -0.557711
  H     -1.270439    0.481232   -1.452362
  H     -2.371190   -0.717679   -0.778466
  H     -1.735412   -0.059868    1.519756
  H     -0.729468    1.245507    0.892443
  H      0.594166   -0.773604    1.564220
  H     -0.304779   -1.738482    0.362707
  H      2.561171    0.663891   -0.993535
  H      2.338859    0.555903    0.774165
  H      1.268293    1.596975   -0.203072

 Total Charge           Charge          ....    0
 Multiplicity           Mult            ....    1
 Number of Electrons    NEL             ....   42
 Basis Dimension        Dim             ....  150

ORBITAL ENERGIES
----------------

  NO   OCC          E(Eh)            E(eV)
   0   2.0000     -18.948054      -515.6028
   1   2.0000     -10.071802      -274.0677
   2   2.0000     -10.068234      -273.9706
   3   2.0000     -10.026622      -272.8382
   4   2.0000     -10.013404      -272.4786
   5   2.0000      -0.992522       -27.0079
   6   2.0000      -0.746586       -20.3156
   7   2.0000      -0.673004       -18.3134
   8   2.0000      -0.616537       -16.7768
   9   2.0000      -0.543989       -14.8027
  10   2.0000      -0.455281       -12.3888
  11   2.0000      -0.446008       -12.1365
  12   2.0000      -0.422716       -11.5027
  13   2.0000      -0.396246       -10.7824
  14   2.0000      -0.385953       -10.5023
  15   2.0000      -0.348386        -9.4801
  16   2.0000      -0.329329        -8.9615
  17   2.0000      -0.318722        -8.6729
  18   2.0000      -0.306502        -8.3403
  19   2.0000      -0.272797        -7.4232
  20   2.0000      -0.218497        -5.9456
  21   0.0000       0.073298         1.9946
  22   0.0000       0.094309         2.5663
  23   0.0000       0.120928         3.2906
  24   0.0000       0.126059         3.4303
  25   0.0000       0.135687         3.6922

MULLIKEN ATOMIC CHARGES
-----------------------
   0 C :   -0.480306
   1 C :   -0.224197
   2 C :   -0.155808
   3 O :   -0.253522
   4 C :   -0.291288
   5 H :    0.144441
   6 H :    0.164379
   7 H :    0.140293
   8 H :    0.138168
   9 H :    0.135996
  10 H :    0.128734
  11 H :    0.141182
  12 H :    0.148148
  13 H :    0.132003
  14 H :    0.131777
Sum of atomic charges:    0.0000000

LOEWDIN ATOMIC CHARGES
----------------------
   0 C :   -0.422000
   1 C :   -0.306241
   2 C :    0.001793
   3 O :   -0.793248
   4 C :   -0.075595
   5 H :    0.149219
   6 H :    0.159805
   7 H :    0.151187
   8 H :    0.157142
   9 H :    0.153290
  10 H :    0.162001
  11 H :    0.179588
  12 H :    0.175068
  13 H :    0.155856
  14 H :    0.152133

  Mayer bond orders larger than 0.100000
B(  0-C ,  1-C ) :   0.9106 B(  0-C ,  5-H ) :   0.9721 B(  0-C ,  6-H ) :   0.9807
B(  0-C ,  7-H ) :   0.9782 B(  1-C ,  2-C ) :   0.9237 B(  1-C ,  8-H ) :   0.9580
B(  1-C ,  9-H ) :   0.9741 B(  2-C ,  3-O ) :   0.8963 B(  2-C , 10-H ) :   0.9712
B(  2-C , 11-H ) :   0.9726 B(  3-O ,  4-C ) :   0.8959 B(  4-C , 12-H ) :   0.9748
B(  4-C , 13-H ) :   0.9692 B(  4-C , 14-H ) :   0.9601

Dispersion correction           -0.003121957
FINAL SINGLE POINT ENERGY      -233.581453886957

DIPOLE MOMENT
-------------

Method             : SCF
Type of density    : Electron Density
Multiplicity       :   1
Irrep              :   0
Energy             :  -233.5884372733361545 Eh
Relativity type    :
Basis              : AO
                                X                 Y                 Z
Electronic contribution:      2.143905235      -1.817006940      -0.648430393
Nuclear contribution   :     -2.192211335       2.111224030       1.051929008
                        -----------------------------------------
Total Dipole Moment    :     -0.048306100       0.294217090       0.403498615
                        -----------------------------------------
Magnitude (a.u.)       :      0.501705400
Magnitude (Debye)      :      1.275233781

Rotational constants in cm-1:             0.306846             0.099612             0.093386
Rotational constants in MHz :          9199.020825          2986.284675          2799.650173

                             ****ORCA TERMINATED NORMALLY****
TOTAL RUN TIME: 0 days 0 hours 0 minutes 15 seconds 404 msec
