                         Program Version 6.0.0  -   RELEASE  -
|  1> ! r2scan-3c def2/J RI DEFGRID2 scfconv6 printgap
|  2> %output
|  3>     printlevel normal
|  4> end
|  5> %cpcm
|  6>     smd true
|  7>     smdsolvent "water"
|  8> end
|  9> * xyz 0 1
| 10> C -1.9171526171 0.2553773885 -0.6075540011
| 11> C -1.1055577205 0.2426812061 0.6823436828
| 12> C 0.0675156858 -0.7385339735 0.5991037271
| 13> O 0.9941354953 -0.4551726079 -0.4343201084
| 14> C 1.8283329445 0.6573509327 -0.1900130071
| 15> H -2.7036588965 1.003706288 -0.5577105656
| 16> H -1.270439312 0.4812321652 -1.4523622236
| 17> H -2.3711898159 -0.7176790854 -0.7784663496
| 18> H -1.735411602 -0.0598682672 1.5197560711
| 19> H -0.7294684965 1.2455073128 0.8924434126
| 20> H 0.5941662054 -0.773603682 1.564220417
| 21> H -0.3047785134 -1.7384823176 0.3627069909
| 22> H 2.5611712196 0.6638914337 -0.9935354845
| 23> H 2.3388585273 0.5559033349 0.774164571
| 24> H 1.2682929907 1.5969746063 -0.2030715912
| 25> *
| 26>
| 27>                          ****END OF INPUT****

CARTESIAN COORDINATES (ANGSTROEM)
---------------------------------
  C     -1.917153    0.255377   -0.607554
  C     -1.105558    0.242681    0.682344
  C      0.067516   -0.738534    0.599104
  O      0.994135   -0.455173   -0.434320
  C      1.828333    0.657351   -0.190013
  H     -2.703659    1.003706   -0.557711
  H     -1.270439    0.481232   -1.452362
  H     -2.371190   -0.717679   -0.778466
  H     -1.735412   -0.059868    1.519756
  H     -0.729468    1.245507    0.892443
  H      0.594166   -0.773604    1.564220
  H     -0.304779   -1.738482    0.362707
  H      2.561171    0.663891   -0.993535
  H      2.338859    0.555903    0.774165
  H      1.268293    1.596975   -0.203072

 Total Charge           Charge          ....    0
 Multiplicity           Mult            ....    1
 Number of Electrons    NEL             ....   42
 Basis Dimension        Dim             ....  150

ORBITAL ENERGIES
----------------

  NO   OCC          E(Eh)            E(eV)
   0   2.0000     -18.953929      -515.7626
   1   2.0000     -10.066493      -273.9232
   2   2.0000     -10.061260      -273.7808
   3   2.0000     -10.018425      -272.6152
   4   2.0000     -10.008532      -272.3460
   5   2.0000      -0.996906       -27.1272
   6   2.0000      -0.740860       -20.1598
   7   2.0000      -0.669314       -18.2130
   8   2.0000      -0.611272       -16.6336
   9   2.0000      -0.538321       -14.6485
  10   2.0000      -0.451916       -12.2973
  11   2.0000      -0.443138       -12.0584
  12   2.0000      -0.420245       -11.4355
  13   2.0000      -0.390763       -10.6332
  14   2.0000      -0.379984       -10.3399
  15   2.0000      -0.342830        -9.3289
  16   2.0000      -0.325622        -8.8606
  17   2.0000      -0.313085        -8.5195
  18   2.0000      -0.299512        -8.1501
  19   2.0000      -0.275119        -7.4864
  20   2.0000      -0.222038        -6.0420
  21   0.0000       0.074712         2.0330
  22   0.0000       0.104873         2.8537
  23   0.0000       0.127405         3.4669
  24   0.0000       0.131974         3.5912
  25   0.0000       0.143680         3.9097

MULLIKEN ATOMIC CHARGES
-----------------------
   0 C :   -0.521374
   1 C :   -0.232402
   2 C :   -0.160972
   3 O :   -0.324471
   4 C :   -0.309312
   5 H :    0.158030
   6 H :    0.159093
   7 H :    0.155641
   8 H :    0.154051
   9 H :    0.153483
  10 H :    0.147774
  11 H :    0.154049
  12 H :    0.161433
  13 H :    0.152420
  14 H :    0.152556
Sum of atomic charges:   -0.0000000

LOEWDIN ATOMIC CHARGES
----------------------
   0 C :   -0.430757
   1 C :   -0.305063
   2 C :    0.001581
   3 O :   -0.835602
   4 C :   -0.076645
   5 H :    0.153674
   6 H :    0.155609
   7 H :    0.154446
   8 H :    0.163346
   9 H :    0.159091
  10 H :    0.170846
  11 H :    0.183344
  12 H :    0.179227
  13 H :    0.165194
  14 H :    0.161709

  Mayer bond orders larger than 0.100000
B(  0-C ,  1-C ) :   0.8940 B(  0-C ,  5-H ) :   0.9683 B(  0-C ,  6-H ) :   0.9827
B(  0-C ,  7-H ) :   0.9764 B(  1-C ,  2-C ) :   0.9225 B(  1-C ,  8-H ) :   0.9550
B(  1-C ,  9-H ) :   0.9717 B(  2-C ,  3-O ) :   0.8876 B(  2-C , 10-H ) :   0.9638
B(  2-C , 11-H ) :   0.9698 B(  3-O ,  4-C ) :   0.8873 B(  4-C , 12-H ) :   0.9684
B(  4-C , 13-H ) :   0.9637 B(  4-C , 14-H ) :   0.9547

Dispersion correction           -0.003121957
FINAL SINGLE POINT ENERGY      -233.583201307697

DIPOLE MOMENT
-------------

Method             : SCF
Type of density    : Electron Density
Multiplicity       :   1
Irrep              :   0
Energy             :  -233.5901846940768110 Eh
Relativity type    :
Basis              : AO
                                X                 Y                 Z
Electronic contribution:      2.108098209      -1.676367108      -0.410456299
Nuclear contribution   :     -2.192211335       2.111224030       1.051929008
                        -----------------------------------------
Total Dipole Moment    :     -0.084113126       0.434856923       0.641472709
                        -----------------------------------------
Magnitude (a.u.)       :      0.779527291
Magnitude (Debye)      :      1.981400910

Rotational constants in cm-1:             0.306846             0.099612             0.093386
Rotational constants in MHz :          9199.020825          2986.284675          2799.650173

                             ****ORCA TERMINATED NORMALLY****
TOTAL RUN TIME: 0 days 0 hours 0 minutes 20 seconds 312 msec
