                         Program Version 6.0.0  -   RELEASE  -
|  1> ! r2scan-3c def2/J RI DEFGRID2 scfconv6 printgap
|  2> %output
|  3>     printlevel normal
|  4> end
|  5> * xyz 0 1
|  6> C -2.8141955707 -0.1921209801 -0.4625136027
|  7> C -1.6879646397 0.7361881146 -0.0257784228
|  8> C -0.4057875802 -0.012399234 0.2358145169
|  9> O -0.3224713201 -1.1967760988 0.4808186847
| 10> O 0.6426387166 0.8050748472 0.1919228411
| 11> C 1.9485071307 0.2563304817 0.4384048084
| 12> C 2.5513505824 -0.3216395381 -0.8328527603
| 13> H -2.9424114051 -0.9894343644 0.2651235065
| 14> H -3.7434128263 0.3619133413 -0.550755186
| 15> H -2.5820853419 -0.646358322 -1.4223018478
| 16> H -1.9544306022 1.2366418826 0.9082369483
| 17> H -1.4882709079 1.5075329797 -0.7692695376
| 18> H 2.5334807004 1.0986525208 0.808609585
| 19> H 1.8628734894 -0.5160222861 1.2088114762
| 20> H 2.5798742941 0.4358202671 -1.6113898191
| 21> H 3.560158914 -0.6651343333 -0.6287313487
| 22> H 1.9550389212 -1.1632793829 -1.1781115944
| 23> *
| 24>
| 25>                          ****END OF INPUT****

CARTESIAN COORDINATES (ANGSTROEM)
---------------------------------
  C     -2.814196   -0.192121   -0.462514
  C     -1.687965    0.736188   -0.025778
  C     -0.405788   -0.012399    0.235815
  O     -0.322471   -1.196776    0.480819
  O      0.642639    0.805075    0.191923
  C      1.948507    0.256330    0.438405
  C      2.551351   -0.321640   -0.832853
  H     -2.942411   -0.989434    0.265124
  H     -3.743413    0.361913   -0.550755
  H     -2.582085   -0.646358   -1.422302
  H     -1.954431    1.236642    0.908237
  H     -1.488271    1.507533   -0.769270
  H      2.533481    1.098653    0.808610
  H      1.862873   -0.516022    1.208811
  H      2.579874    0.435820   -1.611390
  H      3.560159   -0.665134   -0.628731
  H      1.955039   -1.163279   -1.178112

 Total Charge           Charge          ....    0
 Multiplicity           Mult            ....    1
 Number of Electrons    NEL             ....   56
 Basis Dimension        Dim             ....  193

ORBITAL ENERGIES
----------------

  NO   OCC          E(Eh)            E(eV)
   0   2.0000     -18.995136      -516.8839
   1   2.0000     -18.929245      -515.0909
   2   2.0000     -10.152072      -276.2519
   3   2.0000     -10.090657      -274.5807
   4   2.0000     -10.044254      -273.3180
   5   2.0000     -10.028134      -272.8794
   6   2.0000     -10.022113      -272.7156
   7   2.0000      -1.070169       -29.1208
   8   2.0000      -0.976268       -26.5656
   9   2.0000      -0.762511       -20.7490
  10   2.0000      -0.729724       -19.8568
  11   2.0000      -0.644582       -17.5400
  12   2.0000      -0.592578       -16.1249
  13   2.0000      -0.518515       -14.1095
  14   2.0000      -0.473071       -12.8729
  15   2.0000      -0.452688       -12.3183
  16   2.0000      -0.445987       -12.1359
  17   2.0000      -0.412095       -11.2137
  18   2.0000      -0.406548       -11.0627
  19   2.0000      -0.374475       -10.1900
  20   2.0000      -0.363583        -9.8936
  21   2.0000      -0.352187        -9.5835
  22   2.0000      -0.337948        -9.1960
  23   2.0000      -0.329694        -8.9714
  24   2.0000      -0.318213        -8.6590
  25   2.0000      -0.305142        -8.3033
  26   2.0000      -0.271254        -7.3812
  27   2.0000      -0.237276        -6.4566
  28   0.0000      -0.013375        -0.3639
  29   0.0000       0.077508         2.1091
  30   0.0000       0.089807         2.4438
  31   0.0000       0.114048         3.1034
  32   0.0000       0.124609         3.3908

MULLIKEN ATOMIC CHARGES
-----------------------
   0 C :   -0.459702
   1 C :   -0.272609
   2 C :    0.381299
   3 O :   -0.434343
   4 O :   -0.176684
   5 C :   -0.136257
   6 C :   -0.469330
   7 H :    0.165473
   8 H :    0.145732
   9 H :    0.147160
  10 H :    0.163259
  11 H :    0.161584
  12 H :    0.147778
  13 H :    0.165978
  14 H :    0.151193
  15 H :    0.146597
  16 H :    0.172872
Sum of atomic charges:   -0.0000000

LOEWDIN ATOMIC CHARGES
----------------------
   0 C :   -0.401929
   1 C :   -0.239520
   2 C :    0.362665
   3 O :   -0.436814
   4 O :   -0.597801
   5 C :    0.026558
   6 C :   -0.390841
   7 H :    0.166205
   8 H :    0.150459
   9 H :    0.156896
  10 H :    0.180759
  11 H :    0.177284
  12 H :    0.177522
  13 H :    0.187188
  14 H :    0.156845
  15 H :    0.158996
  16 H :    0.165529

  Mayer bond orders larger than 0.100000
B(  0-C ,  1-C ) :   0.9265 B(  0-C ,  7-H ) :   0.9690 B(  0-C ,  8-H ) :   0.9731
B(  0-C ,  9-H ) :   0.9775 B(  1-C ,  2-C ) :   0.9826 B(  1-C , 10-H ) :   0.9273
B(  1-C , 11-H ) :   0.9659 B(  2-C ,  3-O ) :   1.8309 B(  2-C ,  4-O ) :   1.0762
B(  4-O ,  5-C ) :   0.8198 B(  5-C ,  6-C ) :   0.9380 B(  5-C , 12-H ) :   0.9613
B(  5-C , 13-H ) :   0.9671 B(  6-C , 14-H ) :   0.9737 B(  6-C , 15-H ) :   0.9651
B(  6-C , 16-H ) :   0.9716

Dispersion correction           -0.003947871
FINAL SINGLE POINT ENERGY      -346.937638003212

DIPOLE MOMENT
-------------

Method             : SCF
Type of density    : Electron Density
Multiplicity       :   1
Irrep              :   0
Energy             :  -346.9441333904433691 Eh
Relativity type    :
Basis              : AO
                                X                 Y                 Z
Electronic contribution:      0.464710897       0.047545264       2.619707293
Nuclear contribution   :     -0.200885105       0.613694684      -2.776173973
                        -----------------------------------------
Total Dipole Moment    :      0.263825792       0.661239948      -0.156466680
                        -----------------------------------------
Magnitude (a.u.)       :      0.728919845
Magnitude (Debye)      :      1.852767003

Rotational constants in cm-1:             0.211544             0.046710             0.043959
Rotational constants in MHz :          6341.942655          1400.326336          1317.868874

                             ****ORCA TERMINATED NORMALLY****
TOTAL RUN TIME: 0 days 0 hours 0 minutes 23 seconds 197 msec
