                         Program Version 6.0.0  -   RELEASE  -
|  1> ! r2scan-3c def2/J RI DEFGRID2 scfconv6 printgap
|  2> %output
|  3>     printlevel normal
|  4> end
|  5> %cpcm
|  6>     smd true
|  7>     smdsolvent "water"
|  8> end
|  9> * xyz 0 1
| 10> C -2.8141955707 -0.1921209801 -0.4625136027
| 11> C -1.6879646397 0.7361881146 -0.0257784228
| 12> C -0.4057875802 -0.012399234 0.2358145169
| 13> O -0.3224713201 -1.1967760988 0.4808186847
| 14> O 0.6426387166 0.8050748472 0.1919228411
| 15> C 1.9485071307 0.2563304817 0.4384048084
| 16> C 2.5513505824 -0.3216395381 -0.8328527603
| 17> H -2.9424114051 -0.9894343644 0.2651235065
| 18> H -3.7434128263 0.3619133413 -0.550755186
| 19> H -2.5820853419 -0.646358322 -1.4223018478
| 20> H -1.9544306022 1.2366418826 0.9082369483
| 21> H -1.4882709079 1.5075329797 -0.7692695376
| 22> H 2.5334807004 1.0986525208 0.808609585
| 23> H 1.8628734894 -0.5160222861 1.2088114762
| 24> H 2.5798742941 0.4358202671 -1.6113898191
| 25> H 3.560158914 -0.6651343333 -0.6287313487
| 26> H 1.9550389212 -1.1632793829 -1.1781115944
| 27> *
| 28>
| 29>                          ****END OF INPUT****

CARTESIAN COORDINATES (ANGSTROEM)
---------------------------------
  C     -2.814196   -0.192121   -0.462514
  C     -1.687965    0.736188   -0.025778
  C     -0.405788   -0.012399    0.235815
  O     -0.322471   -1.196776    0.480819
  O      0.642639    0.805075    0.191923
  C      1.948507    0.256330    0.438405
  C      2.551351   -0.321640   -0.832853
  H     -2.942411   -0.989434    0.265124
  H     -3.743413    0.361913   -0.550755
  H     -2.582085   -0.646358   -1.422302
  H     -1.954431    1.236642    0.908237
  H     -1.488271    1.507533   -0.769270
  H      2.533481    1.098653    0.808610
  H      1.862873   -0.516022    1.208811
  H      2.579874    0.435820   -1.611390
  H      3.560159   -0.665134   -0.628731
  H      1.955039   -1.163279   -1.178112

 Total Charge           Charge          ....    0
 Multiplicity           Mult            ....    1
 Number of Electrons    NEL             ....   56
 Basis Dimension        Dim             ....  193

ORBITAL ENERGIES
----------------

  NO   OCC          E(Eh)            E(eV)
   0   2.0000     -19.000775      -517.0374
   1   2.0000     -18.944205      -515.4980
   2   2.0000     -10.162152      -276.5262
   3   2.0000     -10.082949      -274.3710
   4   2.0000     -10.037919      -273.1457
   5   2.0000     -10.017998      -272.6036
   6   2.0000     -10.016708      -272.5685
   7   2.0000      -1.077459       -29.3191
   8   2.0000      -0.989090       -26.9145
   9   2.0000      -0.758832       -20.6489
  10   2.0000      -0.723135       -19.6775
  11   2.0000      -0.640454       -17.4276
  12   2.0000      -0.587145       -15.9770
  13   2.0000      -0.517251       -14.0751
  14   2.0000      -0.473706       -12.8902
  15   2.0000      -0.456475       -12.4213
  16   2.0000      -0.449807       -12.2399
  17   2.0000      -0.413515       -11.2523
  18   2.0000      -0.401992       -10.9388
  19   2.0000      -0.369766       -10.0618
  20   2.0000      -0.360740        -9.8162
  21   2.0000      -0.348201        -9.4750
  22   2.0000      -0.334182        -9.0936
  23   2.0000      -0.325628        -8.8608
  24   2.0000      -0.315218        -8.5775
  25   2.0000      -0.302979        -8.2445
  26   2.0000      -0.277668        -7.5557
  27   2.0000      -0.252610        -6.8739
  28   0.0000      -0.020858        -0.5676
  29   0.0000       0.080109         2.1799
  30   0.0000       0.096121         2.6156
  31   0.0000       0.124748         3.3946
  32   0.0000       0.133493         3.6325

MULLIKEN ATOMIC CHARGES
-----------------------
   0 C :   -0.510673
   1 C :   -0.274287
   2 C :    0.419665
   3 O :   -0.515840
   4 O :   -0.197830
   5 C :   -0.142955
   6 C :   -0.494471
   7 H :    0.161638
   8 H :    0.166404
   9 H :    0.164742
  10 H :    0.194744
  11 H :    0.180993
  12 H :    0.173450
  13 H :    0.170879
  14 H :    0.165336
  15 H :    0.170006
  16 H :    0.168200
Sum of atomic charges:   -0.0000000

LOEWDIN ATOMIC CHARGES
----------------------
   0 C :   -0.408255
   1 C :   -0.235325
   2 C :    0.373932
   3 O :   -0.495022
   4 O :   -0.601642
   5 C :    0.030907
   6 C :   -0.393818
   7 H :    0.162071
   8 H :    0.158860
   9 H :    0.159694
  10 H :    0.192884
  11 H :    0.186448
  12 H :    0.188705
  13 H :    0.188694
  14 H :    0.161793
  15 H :    0.167600
  16 H :    0.162473

  Mayer bond orders larger than 0.100000
B(  0-C ,  1-C ) :   0.8973 B(  0-C ,  7-H ) :   0.9716 B(  0-C ,  8-H ) :   0.9666
B(  0-C ,  9-H ) :   0.9788 B(  1-C ,  2-C ) :   0.9907 B(  1-C , 10-H ) :   0.9165
B(  1-C , 11-H ) :   0.9551 B(  2-C ,  3-O ) :   1.7690 B(  2-C ,  4-O ) :   1.0982
B(  4-O ,  5-C ) :   0.8012 B(  5-C ,  6-C ) :   0.9368 B(  5-C , 12-H ) :   0.9518
B(  5-C , 13-H ) :   0.9635 B(  6-C , 14-H ) :   0.9697 B(  6-C , 15-H ) :   0.9602
B(  6-C , 16-H ) :   0.9696

Dispersion correction           -0.003947871
FINAL SINGLE POINT ENERGY      -346.942550805737

DIPOLE MOMENT
-------------

Method             : SCF
Type of density    : Electron Density
Multiplicity       :   1
Irrep              :   0
Energy             :  -346.9490461929680691 Eh
Relativity type    :
Basis              : AO
                                X                 Y                 Z
Electronic contribution:      0.546984974       0.405287855       2.571073081
Nuclear contribution   :     -0.200885105       0.613694684      -2.776173973
                        -----------------------------------------
Total Dipole Moment    :      0.346099869       1.018982539      -0.205100892
                        -----------------------------------------
Magnitude (a.u.)       :      1.095525860
Magnitude (Debye)      :      2.784605440

Rotational constants in cm-1:             0.211544             0.046710             0.043959
Rotational constants in MHz :          6341.942655          1400.326336          1317.868874

                             ****ORCA TERMINATED NORMALLY****
TOTAL RUN TIME: 0 days 0 hours 0 minutes 25 seconds 86 msec
