                         Program Version 6.0.0  -   RELEASE  -
|  1> ! pbe def2-sv(p) def2/J RI DEFGRID1 loosescf d4 GCP(DFT/SV(P)) printgap
|  2> %output
|  3>     printlevel normal
|  4> end
|  5> * xyz 0 1
|  6> C 4.5054858993 0.2118758475 0.1919270671
|  7> N 3.0716311676 0.3411156379 0.3335702514
|  8> C 2.6340448236 1.3365640089 1.2841221276
|  9> C 2.2520311641 -0.430413488 -0.3790862083
| 10> O 2.6371582708 -1.288564863 -1.1770203876
| 11> C 0.7728419189 -0.228184604 -0.1943154584
| 12> C 0.1035861254 0.7329219131 -0.9506490915
| 13> C -1.2688983879 0.8478783236 -0.8658397709
| 14> C -1.9714993707 -0.0083705851 -0.0203361773
| 15> C -1.3136062999 -0.9776833483 0.7339342048
| 16> C 0.0588666055 -1.0867287049 0.6394919781
| 17> N -3.3886761185 0.1036381391 0.0680028977
| 18> O -3.9487664353 0.9532320392 -0.6065760745
| 19> O -3.9875935966 -0.6559030104 0.8129969689
| 20> H 4.9340937375 1.1625798405 -0.1248881824
| 21> H 4.7109487791 -0.5492014087 -0.5579096267
| 22> H 4.9496947085 -0.0842311811 1.1423854597
| 23> H 2.9618275951 2.3253579711 0.9596140959
| 24> H 3.0759297897 1.125645371 2.2587680477
| 25> H 1.5519356992 1.3297878807 1.374670001
| 26> H 0.6611241114 1.3838732529 -1.6048232343
| 27> H -1.8097547339 1.5842158014 -1.439223682
| 28> H -1.8879643125 -1.6272523516 1.3755109182
| 29> H 0.5833592432 -1.837840291 1.2080969316
| 30> *
| 31>
| 32>                          ****END OF INPUT****

CARTESIAN COORDINATES (ANGSTROEM)
---------------------------------
  C      4.505486    0.211876    0.191927
  N      3.071631    0.341116    0.333570
  C      2.634045    1.336564    1.284122
  C      2.252031   -0.430413   -0.379086
  O      2.637158   -1.288565   -1.177020
  C      0.772842   -0.228185   -0.194315
  C      0.103586    0.732922   -0.950649
  C     -1.268898    0.847878   -0.865840
  C     -1.971499   -0.008371   -0.020336
  C     -1.313606   -0.977683    0.733934
  C      0.058867   -1.086729    0.639492
  N     -3.388676    0.103638    0.068003
  O     -3.948766    0.953232   -0.606576
  O     -3.987594   -0.655903    0.812997
  H      4.934094    1.162580   -0.124888
  H      4.710949   -0.549201   -0.557910
  H      4.949695   -0.084231    1.142385
  H      2.961828    2.325358    0.959614
  H      3.075930    1.125645    2.258768
  H      1.551936    1.329788    1.374670
  H      0.661124    1.383873   -1.604823
  H     -1.809755    1.584216   -1.439224
  H     -1.887964   -1.627252    1.375511
  H      0.583359   -1.837840    1.208097

 Total Charge           Charge          ....    0
 Multiplicity           Mult            ....    1
 Number of Electrons    NEL             ....  102
 Basis Dimension        Dim             ....  216

ORBITAL ENERGIES
----------------

  NO   OCC          E(Eh)            E(eV)
   0   2.0000     -18.774652      -510.8843
   1   2.0000     -18.774536      -510.8811
   2   2.0000     -18.727868      -509.6112
   3   2.0000     -14.210929      -386.6990
   4   2.0000     -14.048508      -382.2793
   5   2.0000      -9.995829      -272.0003
   6   2.0000      -9.959300      -271.0063
   7   2.0000      -9.941133      -270.5120
   8   2.0000      -9.935448      -270.3573
   9   2.0000      -9.930202      -270.2145
  10   2.0000      -9.927426      -270.1390
  11   2.0000      -9.926995      -270.1273
  12   2.0000      -9.924538      -270.0604
  13   2.0000      -9.923798      -270.0403
  14   2.0000      -1.129971       -30.7481
  15   2.0000      -0.957477       -26.0543
  16   2.0000      -0.948852       -25.8196
  17   2.0000      -0.869444       -23.6588
  18   2.0000      -0.819045       -22.2873
  19   2.0000      -0.749118       -20.3845
  20   2.0000      -0.704816       -19.1790
  21   2.0000      -0.680554       -18.5188
  22   2.0000      -0.665171       -18.1002
  23   2.0000      -0.632328       -17.2065
  24   2.0000      -0.578672       -15.7465
  25   2.0000      -0.544337       -14.8122
  26   2.0000      -0.519751       -14.1432
  27   2.0000      -0.499127       -13.5819
  28   2.0000      -0.491205       -13.3664
  29   2.0000      -0.479233       -13.0406
  30   2.0000      -0.463533       -12.6134
  31   2.0000      -0.447675       -12.1819
  32   2.0000      -0.441533       -12.0147
  33   2.0000      -0.426892       -11.6163
  34   2.0000      -0.421195       -11.4613
  35   2.0000      -0.407544       -11.0898
  36   2.0000      -0.400208       -10.8902
  37   2.0000      -0.380031       -10.3412
  38   2.0000      -0.372904       -10.1472
  39   2.0000      -0.367079        -9.9887
  40   2.0000      -0.353164        -9.6101
  41   2.0000      -0.347352        -9.4519
  42   2.0000      -0.344708        -9.3800
  43   2.0000      -0.326558        -8.8861
  44   2.0000      -0.271625        -7.3913
  45   2.0000      -0.265791        -7.2325
  46   2.0000      -0.260602        -7.0913
  47   2.0000      -0.258192        -7.0257
  48   2.0000      -0.231636        -6.3031
  49   2.0000      -0.223431        -6.0799
  50   2.0000      -0.211527        -5.7559
  51   0.0000      -0.119722        -3.2578
  52   0.0000      -0.065773        -1.7898
  53   0.0000      -0.037653        -1.0246
  54   0.0000      -0.019434        -0.5288
  55   0.0000       0.017977         0.4892

MULLIKEN ATOMIC CHARGES
-----------------------
   0 C :   -0.180167
   1 N :   -0.225490
   2 C :   -0.180807
   3 C :    0.147270
   4 O :   -0.225560
   5 C :   -0.015365
   6 C :   -0.068046
   7 C :   -0.113754
   8 C :    0.226486
   9 C :   -0.113967
  10 C :   -0.065422
  11 N :    0.199747
  12 O :   -0.217322
  13 O :   -0.216886
  14 H :    0.113705
  15 H :    0.148350
  16 H :    0.114908
  17 H :    0.115135
  18 H :    0.115422
  19 H :    0.160282
  20 H :    0.063389
  21 H :    0.076070
  22 H :    0.076484
  23 H :    0.065537
Sum of atomic charges:    0.0000000

LOEWDIN ATOMIC CHARGES
----------------------
   0 C :   -0.252368
   1 N :   -0.038190
   2 C :   -0.248207
   3 C :    0.026343
   4 O :   -0.190628
   5 C :   -0.038841
   6 C :   -0.105026
   7 C :   -0.098760
   8 C :   -0.044795
   9 C :   -0.098575
  10 C :   -0.101028
  11 N :    0.252745
  12 O :   -0.189041
  13 O :   -0.188611
  14 H :    0.120065
  15 H :    0.139269
  16 H :    0.120195
  17 H :    0.119521
  18 H :    0.120338
  19 H :    0.136437
  20 H :    0.133925
  21 H :    0.144771
  22 H :    0.144973
  23 H :    0.135486

  Mayer bond orders larger than 0.100000
B(  0-C ,  1-N ) :   0.9945 B(  0-C , 14-H ) :   0.9512 B(  0-C , 15-H ) :   0.9284
B(  0-C , 16-H ) :   0.9518 B(  1-N ,  2-C ) :   1.0122 B(  1-N ,  3-C ) :   1.2207
B(  1-N ,  4-O ) :   0.1085 B(  2-C , 17-H ) :   0.9469 B(  2-C , 18-H ) :   0.9459
B(  2-C , 19-H ) :   0.9287 B(  3-C ,  4-O ) :   2.0259 B(  3-C ,  5-C ) :   0.8854
B(  5-C ,  6-C ) :   1.3615 B(  5-C , 10-C ) :   1.3663 B(  6-C ,  7-C ) :   1.3283
B(  6-C , 20-H ) :   0.9675 B(  7-C ,  8-C ) :   1.3573 B(  7-C , 21-H ) :   0.9511
B(  8-C ,  9-C ) :   1.3554 B(  8-C , 11-N ) :   0.8880 B(  9-C , 10-C ) :   1.3259
B(  9-C , 22-H ) :   0.9515 B( 10-C , 23-H ) :   0.9685 B( 11-N , 12-O ) :   1.5372
B( 11-N , 13-O ) :   1.5375 B( 12-O , 13-O ) :   0.2992

Dispersion correction           -0.027870593
FINAL SINGLE POINT ENERGY      -682.686458361597

DIPOLE MOMENT
-------------

Method             : SCF
Type of density    : Electron Density
Multiplicity       :   1
Irrep              :   0
Energy             :  -682.7619622779000110 Eh
Relativity type    :
Basis              : AO
                                X                 Y                 Z
Electronic contribution:    -16.472770525      -3.569104642      -3.392725428
Nuclear contribution   :     18.431029849       4.503122283       4.296104223
                        -----------------------------------------
Total Dipole Moment    :      1.958259324       0.934017641       0.903378795
                        -----------------------------------------
Magnitude (a.u.)       :      2.350162075
Magnitude (Debye)      :      5.973637263

Rotational constants in cm-1:             0.068066             0.010529             0.010359
Rotational constants in MHz :          2040.555910           315.636829           310.556296

                             ****ORCA TERMINATED NORMALLY****
TOTAL RUN TIME: 0 days 0 hours 0 minutes 16 seconds 652 msec
