                         Program Version 6.0.0  -   RELEASE  -
|  1> ! wb97x-v def2-tzvp def2/J RIJCOSX DEFGRID2 scfconv7 GCP(DFT/TZ) printgap
|  2> %output
|  3>     printlevel normal
|  4> end
|  5> * xyz 0 1
|  6> C 3.0794616970062667 -0.4639342549123185 0.17854706499232323
|  7> C 1.8917381919447662 0.2884433448539812 -0.4148851616926468
|  8> C 0.5577583400601887 -0.20694673355057414 0.14549747734843702
|  9> C -0.6171336801720985 0.5532699572074908 -0.45339664493905024
| 10> S -2.2004999906731033 -0.09847372160213214 0.25859632899430723
| 11> H 4.026941879551638 -0.10043261844740552 -0.23189867579900778
| 12> H 3.010182894555714 -1.53632144953536 -0.0355050487260289
| 13> H 3.116102097758436 -0.34201203027824856 1.266820268049638
| 14> H 1.889181732328445 0.17509683798393044 -1.5064366638056035
| 15> H 1.993317733185534 1.3618496015862493 -0.21029417612185014
| 16> H 0.5563548397794813 -0.09123149350448423 1.2371049899800473
| 17> H 0.45144908831301356 -1.2792071959656814 -0.06423364749105219
| 18> H -0.5433671961589679 1.6199111293807558 -0.22288498201464882
| 19> H -0.644600628646743 0.42680224573242215 -1.5394440943064058
| 20> H -3.0339003887432496 0.7186629340606571 -0.41194306373636064
| 21> *
| 22>
| 23>                          ****END OF INPUT****

CARTESIAN COORDINATES (ANGSTROEM)
---------------------------------
  C      3.079462   -0.463934    0.178547
  C      1.891738    0.288443   -0.414885
  C      0.557758   -0.206947    0.145497
  C     -0.617134    0.553270   -0.453397
  S     -2.200500   -0.098474    0.258596
  H      4.026942   -0.100433   -0.231899
  H      3.010183   -1.536321   -0.035505
  H      3.116102   -0.342012    1.266820
  H      1.889182    0.175097   -1.506437
  H      1.993318    1.361850   -0.210294
  H      0.556355   -0.091231    1.237105
  H      0.451449   -1.279207   -0.064234
  H     -0.543367    1.619911   -0.222885
  H     -0.644601    0.426802   -1.539444
  H     -3.033900    0.718663   -0.411943

 Total Charge           Charge          ....    0
 Multiplicity           Mult            ....    1
 Number of Electrons    NEL             ....   50
 Basis Dimension        Dim             ....  221

ORBITAL ENERGIES
----------------

  NO   OCC          E(Eh)            E(eV)
   0   2.0000     -94.117511     -2561.0677
   1   2.0000     -12.079858      -328.7096
   2   2.0000     -12.051161      -327.9288
   3   2.0000     -12.048444      -327.8548
   4   2.0000     -12.038323      -327.5794
   5   2.0000      -9.628769      -262.0121
   6   2.0000      -7.606299      -206.9779
   7   2.0000      -7.605343      -206.9519
   8   2.0000      -7.604799      -206.9371
   9   2.0000      -1.320653       -35.9368
  10   2.0000      -1.262116       -34.3439
  11   2.0000      -1.190698       -32.4005
  12   2.0000      -1.104271       -30.0487
  13   2.0000      -1.052309       -28.6348
  14   2.0000      -0.907788       -24.7022
  15   2.0000      -0.883770       -24.0486
  16   2.0000      -0.862477       -23.4692
  17   2.0000      -0.856830       -23.3155
  18   2.0000      -0.828983       -22.5578
  19   2.0000      -0.795791       -21.6546
  20   2.0000      -0.795316       -21.6416
  21   2.0000      -0.776154       -21.1202
  22   2.0000      -0.752838       -20.4858
  23   2.0000      -0.742703       -20.2100
  24   2.0000      -0.640278       -17.4228
  25   0.0000      -0.199215        -5.4209
  26   0.0000      -0.112241        -3.0542
  27   0.0000      -0.034031        -0.9260
  28   0.0000      -0.013758        -0.3744
  29   0.0000      -0.004779        -0.1300

MULLIKEN ATOMIC CHARGES
-----------------------
   0 C :   -0.332697
   1 C :   -0.163214
   2 C :   -0.199981
   3 C :   -0.157935
   4 S :   -0.218885
   5 H :    0.115939
   6 H :    0.106873
   7 H :    0.106858
   8 H :    0.089327
   9 H :    0.089314
  10 H :    0.102948
  11 H :    0.103025
  12 H :    0.112941
  13 H :    0.112787
  14 H :    0.132699
Sum of atomic charges:    0.0000000

LOEWDIN ATOMIC CHARGES
----------------------
   0 C :   -0.306622
   1 C :   -0.290942
   2 C :   -0.301427
   3 C :   -0.459036
   4 S :    0.208450
   5 H :    0.116482
   6 H :    0.116996
   7 H :    0.116972
   8 H :    0.130876
   9 H :    0.130876
  10 H :    0.135009
  11 H :    0.134990
  12 H :    0.118966
  13 H :    0.118933
  14 H :    0.029476

  Mayer bond orders larger than 0.100000
B(  0-C ,  1-C ) :   0.9905 B(  0-C ,  5-H ) :   0.9843 B(  0-C ,  6-H ) :   0.9805
B(  0-C ,  7-H ) :   0.9805 B(  1-C ,  2-C ) :   0.9801 B(  1-C ,  8-H ) :   0.9718
B(  1-C ,  9-H ) :   0.9719 B(  2-C ,  3-C ) :   1.0037 B(  2-C , 10-H ) :   0.9674
B(  2-C , 11-H ) :   0.9674 B(  3-C ,  4-S ) :   1.0836 B(  3-C , 12-H ) :   0.9687
B(  3-C , 13-H ) :   0.9688 B(  4-S , 14-H ) :   0.9738

FINAL SINGLE POINT ENERGY      -556.595064058808

DIPOLE MOMENT
-------------

Method             : SCF
Type of density    : Electron Density
Multiplicity       :   1
Irrep              :   0
Energy             :  -556.6054668217084327 Eh
Relativity type    :
Basis              : AO
                                X                 Y                 Z
Electronic contribution:     -9.839276443      -0.528393800       1.241795429
Nuclear contribution   :     10.283105506       0.912024973      -1.622153094
                        -----------------------------------------
Total Dipole Moment    :      0.443829063       0.383631173      -0.380357665
                        -----------------------------------------
Magnitude (a.u.)       :      0.699163119
Magnitude (Debye)      :      1.777131419

Rotational constants in cm-1:             0.531329             0.044202             0.042093
Rotational constants in MHz :         15928.835302          1325.148271          1261.912994

                             ****ORCA TERMINATED NORMALLY****
TOTAL RUN TIME: 0 days 0 hours 1 minutes 7 seconds 521 msec
