                         Program Version 6.0.0  -   RELEASE  -
|  1> ! wb97x-v def2-tzvp def2/J RIJCOSX DEFGRID2 scfconv7 GCP(DFT/TZ) printgap
|  2> %output
|  3>     printlevel normal
|  4> end
|  5> %cpcm
|  6>     smd true
|  7>     smdsolvent "water"
|  8> end
|  9> * xyz 0 1
| 10> C 3.0794616970062667 -0.4639342549123185 0.17854706499232323
| 11> C 1.8917381919447662 0.2884433448539812 -0.4148851616926468
| 12> C 0.5577583400601887 -0.20694673355057414 0.14549747734843702
| 13> C -0.6171336801720985 0.5532699572074908 -0.45339664493905024
| 14> S -2.2004999906731033 -0.09847372160213214 0.25859632899430723
| 15> H 4.026941879551638 -0.10043261844740552 -0.23189867579900778
| 16> H 3.010182894555714 -1.53632144953536 -0.0355050487260289
| 17> H 3.116102097758436 -0.34201203027824856 1.266820268049638
| 18> H 1.889181732328445 0.17509683798393044 -1.5064366638056035
| 19> H 1.993317733185534 1.3618496015862493 -0.21029417612185014
| 20> H 0.5563548397794813 -0.09123149350448423 1.2371049899800473
| 21> H 0.45144908831301356 -1.2792071959656814 -0.06423364749105219
| 22> H -0.5433671961589679 1.6199111293807558 -0.22288498201464882
| 23> H -0.644600628646743 0.42680224573242215 -1.5394440943064058
| 24> H -3.0339003887432496 0.7186629340606571 -0.41194306373636064
| 25> *
| 26>
| 27>                          ****END OF INPUT****

CARTESIAN COORDINATES (ANGSTROEM)
---------------------------------
  C      3.079462   -0.463934    0.178547
  C      1.891738    0.288443   -0.414885
  C      0.557758   -0.206947    0.145497
  C     -0.617134    0.553270   -0.453397
  S     -2.200500   -0.098474    0.258596
  H      4.026942   -0.100433   -0.231899
  H      3.010183   -1.536321   -0.035505
  H      3.116102   -0.342012    1.266820
  H      1.889182    0.175097   -1.506437
  H      1.993318    1.361850   -0.210294
  H      0.556355   -0.091231    1.237105
  H      0.451449   -1.279207   -0.064234
  H     -0.543367    1.619911   -0.222885
  H     -0.644601    0.426802   -1.539444
  H     -3.033900    0.718663   -0.411943

 Total Charge           Charge          ....    0
 Multiplicity           Mult            ....    1
 Number of Electrons    NEL             ....   50
 Basis Dimension        Dim             ....  221

ORBITAL ENERGIES
----------------

  NO   OCC          E(Eh)            E(eV)
   0   2.0000     -94.115951     -2561.0252
   1   2.0000     -12.069243      -328.4208
   2   2.0000     -12.038824      -327.5930
   3   2.0000     -12.034356      -327.4715
   4   2.0000     -12.025413      -327.2281
   5   2.0000      -9.627355      -261.9736
   6   2.0000      -7.604898      -206.9398
   7   2.0000      -7.603964      -206.9144
   8   2.0000      -7.603630      -206.9053
   9   2.0000      -1.309353       -35.6293
  10   2.0000      -1.253064       -34.0976
  11   2.0000      -1.182574       -32.1795
  12   2.0000      -1.093810       -29.7641
  13   2.0000      -1.039872       -28.2964
  14   2.0000      -0.894955       -24.3530
  15   2.0000      -0.873094       -23.7581
  16   2.0000      -0.851782       -23.1782
  17   2.0000      -0.844258       -22.9734
  18   2.0000      -0.819349       -22.2956
  19   2.0000      -0.784535       -21.3483
  20   2.0000      -0.782898       -21.3037
  21   2.0000      -0.765217       -20.8226
  22   2.0000      -0.739169       -20.1138
  23   2.0000      -0.738253       -20.0889
  24   2.0000      -0.639655       -17.4059
  25   0.0000      -0.194475        -5.2919
  26   0.0000      -0.104864        -2.8535
  27   0.0000      -0.021985        -0.5983
  28   0.0000      -0.000159        -0.0043
  29   0.0000       0.007492         0.2039

MULLIKEN ATOMIC CHARGES
-----------------------
   0 C :   -0.383683
   1 C :   -0.179762
   2 C :   -0.202786
   3 C :   -0.178455
   4 S :   -0.295753
   5 H :    0.129688
   6 H :    0.120251
   7 H :    0.120248
   8 H :    0.103364
   9 H :    0.103397
  10 H :    0.110126
  11 H :    0.110066
  12 H :    0.137814
  13 H :    0.137621
  14 H :    0.167863
Sum of atomic charges:    0.0000000

LOEWDIN ATOMIC CHARGES
----------------------
   0 C :   -0.313958
   1 C :   -0.290274
   2 C :   -0.302844
   3 C :   -0.453204
   4 S :    0.172551
   5 H :    0.118104
   6 H :    0.118564
   7 H :    0.118549
   8 H :    0.134043
   9 H :    0.134055
  10 H :    0.135706
  11 H :    0.135647
  12 H :    0.125715
  13 H :    0.125692
  14 H :    0.041654

  Mayer bond orders larger than 0.100000
B(  0-C ,  1-C ) :   0.9817 B(  0-C ,  5-H ) :   0.9816 B(  0-C ,  6-H ) :   0.9787
B(  0-C ,  7-H ) :   0.9788 B(  1-C ,  2-C ) :   0.9835 B(  1-C ,  8-H ) :   0.9718
B(  1-C ,  9-H ) :   0.9719 B(  2-C ,  3-C ) :   0.9952 B(  2-C , 10-H ) :   0.9650
B(  2-C , 11-H ) :   0.9651 B(  3-C ,  4-S ) :   1.0583 B(  3-C , 12-H ) :   0.9689
B(  3-C , 13-H ) :   0.9690 B(  4-S , 14-H ) :   0.9691

FINAL SINGLE POINT ENERGY      -556.596654922803

DIPOLE MOMENT
-------------

Method             : SCF
Type of density    : Electron Density
Multiplicity       :   1
Irrep              :   0
Energy             :  -556.6070576857031256 Eh
Relativity type    :
Basis              : AO
                                X                 Y                 Z
Electronic contribution:     -9.731472712      -0.370493558       1.090821128
Nuclear contribution   :     10.283105506       0.912024973      -1.622153094
                        -----------------------------------------
Total Dipole Moment    :      0.551632794       0.541531416      -0.531331966
                        -----------------------------------------
Magnitude (a.u.)       :      0.938013151
Magnitude (Debye)      :      2.384239952

Rotational constants in cm-1:             0.531329             0.044202             0.042093
Rotational constants in MHz :         15928.835302          1325.148271          1261.912994

                             ****ORCA TERMINATED NORMALLY****
TOTAL RUN TIME: 0 days 0 hours 1 minutes 10 seconds 896 msec
