                         Program Version 6.0.0  -   RELEASE  -
|  1> ! r2scan-3c def2/J RI DEFGRID2 scfconv6 printgap
|  2> %output
|  3>     printlevel normal
|  4> end
|  5> * xyz 0 1
|  6> C 1.8116063758 -0.6657517138 -0.5288243789
|  7> C 1.3860140012 0.5577559681 0.2750470254
|  8> C -0.0349057962 0.4308883974 0.827717625
|  9> C -1.1213588116 0.5014958153 -0.2594582085
| 10> C -2.0270972991 -0.7252751396 -0.2605489774
| 11> H 2.822319214 -0.5380950922 -0.9092041866
| 12> H 1.1473231543 -0.8269339865 -1.3740188012
| 13> H 1.7898481484 -1.5549686954 0.097490574
| 14> H 2.0783480472 0.6893047334 1.1100059613
| 15> H 1.4518690683 1.4503955619 -0.3512587383
| 16> H -0.1958933154 1.2253909134 1.5587441642
| 17> H -0.1146099193 -0.518617635 1.3608275384
| 18> H -1.7343137643 1.3926961909 -0.1121390565
| 19> H -0.6534999569 0.5957270961 -1.2408579953
| 20> H -2.7800618685 -0.6434787465 -1.0413919444
| 21> H -2.5353681689 -0.8249735947 0.6960728642
| 22> H -1.4458767857 -1.6275660777 -0.4369832387
| 23> *
| 24>
| 25>                          ****END OF INPUT****

CARTESIAN COORDINATES (ANGSTROEM)
---------------------------------
  C      1.811606   -0.665752   -0.528824
  C      1.386014    0.557756    0.275047
  C     -0.034906    0.430888    0.827718
  C     -1.121359    0.501496   -0.259458
  C     -2.027097   -0.725275   -0.260549
  H      2.822319   -0.538095   -0.909204
  H      1.147323   -0.826934   -1.374019
  H      1.789848   -1.554969    0.097491
  H      2.078348    0.689305    1.110006
  H      1.451869    1.450396   -0.351259
  H     -0.195893    1.225391    1.558744
  H     -0.114610   -0.518618    1.360828
  H     -1.734314    1.392696   -0.112139
  H     -0.653500    0.595727   -1.240858
  H     -2.780062   -0.643479   -1.041392
  H     -2.535368   -0.824974    0.696073
  H     -1.445877   -1.627566   -0.436983

 Total Charge           Charge          ....    0
 Multiplicity           Mult            ....    1
 Number of Electrons    NEL             ....   42
 Basis Dimension        Dim             ....  155

ORBITAL ENERGIES
----------------

  NO   OCC          E(Eh)            E(eV)
   0   2.0000     -10.021563      -272.7006
   1   2.0000     -10.020692      -272.6769
   2   2.0000     -10.018420      -272.6151
   3   2.0000     -10.013519      -272.4817
   4   2.0000     -10.013496      -272.4811
   5   2.0000      -0.766991       -20.8709
   6   2.0000      -0.713009       -19.4020
   7   2.0000      -0.641977       -17.4691
   8   2.0000      -0.571860       -15.5611
   9   2.0000      -0.530661       -14.4400
  10   2.0000      -0.434893       -11.8340
  11   2.0000      -0.415692       -11.3116
  12   2.0000      -0.398085       -10.8324
  13   2.0000      -0.379855       -10.3364
  14   2.0000      -0.357469        -9.7272
  15   2.0000      -0.336711        -9.1624
  16   2.0000      -0.320429        -8.7193
  17   2.0000      -0.315601        -8.5879
  18   2.0000      -0.290823        -7.9137
  19   2.0000      -0.280665        -7.6373
  20   2.0000      -0.279390        -7.6026
  21   0.0000       0.090317         2.4576
  22   0.0000       0.106394         2.8951
  23   0.0000       0.117991         3.2107
  24   0.0000       0.126373         3.4388
  25   0.0000       0.137501         3.7416

MULLIKEN ATOMIC CHARGES
-----------------------
   0 C :   -0.477124
   1 C :   -0.261103
   2 C :   -0.247928
   3 C :   -0.252449
   4 C :   -0.487028
   5 H :    0.146308
   6 H :    0.143769
   7 H :    0.144765
   8 H :    0.137100
   9 H :    0.140507
  10 H :    0.144534
  11 H :    0.146792
  12 H :    0.141500
  13 H :    0.146495
  14 H :    0.141849
  15 H :    0.145624
  16 H :    0.146391
Sum of atomic charges:    0.0000000

LOEWDIN ATOMIC CHARGES
----------------------
   0 C :   -0.428071
   1 C :   -0.317438
   2 C :   -0.314271
   3 C :   -0.321353
   4 C :   -0.426590
   5 H :    0.150272
   6 H :    0.148816
   7 H :    0.149405
   8 H :    0.150609
   9 H :    0.150883
  10 H :    0.154763
  11 H :    0.154312
  12 H :    0.151730
  13 H :    0.150899
  14 H :    0.148580
  15 H :    0.148967
  16 H :    0.148487

  Mayer bond orders larger than 0.100000
B(  0-C ,  1-C ) :   0.9014 B(  0-C ,  5-H ) :   0.9714 B(  0-C ,  6-H ) :   0.9762
B(  0-C ,  7-H ) :   0.9832 B(  1-C ,  2-C ) :   0.8914 B(  1-C ,  8-H ) :   0.9724
B(  1-C ,  9-H ) :   0.9793 B(  2-C ,  3-C ) :   0.8281 B(  2-C , 10-H ) :   0.9658
B(  2-C , 11-H ) :   1.0021 B(  3-C ,  4-C ) :   0.8942 B(  3-C , 12-H ) :   0.9639
B(  3-C , 13-H ) :   0.9944 B(  4-C , 14-H ) :   0.9740 B(  4-C , 15-H ) :   0.9816
B(  4-C , 16-H ) :   0.9820

Dispersion correction           -0.003788510
FINAL SINGLE POINT ENERGY      -197.682818959257

DIPOLE MOMENT
-------------

Method             : SCF
Type of density    : Electron Density
Multiplicity       :   1
Irrep              :   0
Energy             :  -197.6870087376880178 Eh
Relativity type    :
Basis              : AO
                                X                 Y                 Z
Electronic contribution:      0.170056658       1.153179283       0.620612581
Nuclear contribution   :     -0.159408670      -1.108079873      -0.602968018
                        -----------------------------------------
Total Dipole Moment    :      0.010647988       0.045099410       0.017644563
                        -----------------------------------------
Magnitude (a.u.)       :      0.049584948
Magnitude (Debye)      :      0.126034921

Rotational constants in cm-1:             0.281239             0.092636             0.079995
Rotational constants in MHz :          8431.347749          2777.156799          2398.181819

                             ****ORCA TERMINATED NORMALLY****
TOTAL RUN TIME: 0 days 0 hours 0 minutes 12 seconds 359 msec
