                         Program Version 6.0.0  -   RELEASE  -
|  1> ! r2scan-3c def2/J RI DEFGRID2 scfconv6 printgap
|  2> %output
|  3>     printlevel normal
|  4> end
|  5> %cpcm
|  6>     smd true
|  7>     smdsolvent "water"
|  8> end
|  9> * xyz 0 1
| 10> C 1.8116063758 -0.6657517138 -0.5288243789
| 11> C 1.3860140012 0.5577559681 0.2750470254
| 12> C -0.0349057962 0.4308883974 0.827717625
| 13> C -1.1213588116 0.5014958153 -0.2594582085
| 14> C -2.0270972991 -0.7252751396 -0.2605489774
| 15> H 2.822319214 -0.5380950922 -0.9092041866
| 16> H 1.1473231543 -0.8269339865 -1.3740188012
| 17> H 1.7898481484 -1.5549686954 0.097490574
| 18> H 2.0783480472 0.6893047334 1.1100059613
| 19> H 1.4518690683 1.4503955619 -0.3512587383
| 20> H -0.1958933154 1.2253909134 1.5587441642
| 21> H -0.1146099193 -0.518617635 1.3608275384
| 22> H -1.7343137643 1.3926961909 -0.1121390565
| 23> H -0.6534999569 0.5957270961 -1.2408579953
| 24> H -2.7800618685 -0.6434787465 -1.0413919444
| 25> H -2.5353681689 -0.8249735947 0.6960728642
| 26> H -1.4458767857 -1.6275660777 -0.4369832387
| 27> *
| 28>
| 29>                          ****END OF INPUT****

CARTESIAN COORDINATES (ANGSTROEM)
---------------------------------
  C      1.811606   -0.665752   -0.528824
  C      1.386014    0.557756    0.275047
  C     -0.034906    0.430888    0.827718
  C     -1.121359    0.501496   -0.259458
  C     -2.027097   -0.725275   -0.260549
  H      2.822319   -0.538095   -0.909204
  H      1.147323   -0.826934   -1.374019
  H      1.789848   -1.554969    0.097491
  H      2.078348    0.689305    1.110006
  H      1.451869    1.450396   -0.351259
  H     -0.195893    1.225391    1.558744
  H     -0.114610   -0.518618    1.360828
  H     -1.734314    1.392696   -0.112139
  H     -0.653500    0.595727   -1.240858
  H     -2.780062   -0.643479   -1.041392
  H     -2.535368   -0.824974    0.696073
  H     -1.445877   -1.627566   -0.436983

 Total Charge           Charge          ....    0
 Multiplicity           Mult            ....    1
 Number of Electrons    NEL             ....   42
 Basis Dimension        Dim             ....  155

ORBITAL ENERGIES
----------------

  NO   OCC          E(Eh)            E(eV)
   0   2.0000     -10.014632      -272.5120
   1   2.0000     -10.013511      -272.4815
   2   2.0000     -10.011321      -272.4219
   3   2.0000     -10.006919      -272.3021
   4   2.0000     -10.006298      -272.2852
   5   2.0000      -0.760170       -20.6853
   6   2.0000      -0.706469       -19.2240
   7   2.0000      -0.635571       -17.2948
   8   2.0000      -0.565467       -15.3872
   9   2.0000      -0.524007       -14.2590
  10   2.0000      -0.427859       -11.6426
  11   2.0000      -0.408734       -11.1222
  12   2.0000      -0.391533       -10.6542
  13   2.0000      -0.373203       -10.1554
  14   2.0000      -0.350842        -9.5469
  15   2.0000      -0.330022        -8.9804
  16   2.0000      -0.313733        -8.5371
  17   2.0000      -0.308748        -8.4015
  18   2.0000      -0.283792        -7.7224
  19   2.0000      -0.273600        -7.4450
  20   2.0000      -0.272499        -7.4151
  21   0.0000       0.097683         2.6581
  22   0.0000       0.112570         3.0632
  23   0.0000       0.125216         3.4073
  24   0.0000       0.132274         3.5993
  25   0.0000       0.144064         3.9202

MULLIKEN ATOMIC CHARGES
-----------------------
   0 C :   -0.514101
   1 C :   -0.267963
   2 C :   -0.264579
   3 C :   -0.263345
   4 C :   -0.521006
   5 H :    0.155489
   6 H :    0.155008
   7 H :    0.155085
   8 H :    0.144211
   9 H :    0.147124
  10 H :    0.152788
  11 H :    0.154147
  12 H :    0.149750
  13 H :    0.156592
  14 H :    0.151021
  15 H :    0.154853
  16 H :    0.154927
Sum of atomic charges:   -0.0000000

LOEWDIN ATOMIC CHARGES
----------------------
   0 C :   -0.436150
   1 C :   -0.319824
   2 C :   -0.317439
   3 C :   -0.324125
   4 C :   -0.434444
   5 H :    0.152127
   6 H :    0.151739
   7 H :    0.151824
   8 H :    0.152079
   9 H :    0.152564
  10 H :    0.156494
  11 H :    0.155985
  12 H :    0.153456
  13 H :    0.153753
  14 H :    0.150517
  15 H :    0.151027
  16 H :    0.150417

  Mayer bond orders larger than 0.100000
B(  0-C ,  1-C ) :   0.8944 B(  0-C ,  5-H ) :   0.9692 B(  0-C ,  6-H ) :   0.9740
B(  0-C ,  7-H ) :   0.9804 B(  1-C ,  2-C ) :   0.8881 B(  1-C ,  8-H ) :   0.9727
B(  1-C ,  9-H ) :   0.9787 B(  2-C ,  3-C ) :   0.8208 B(  2-C , 10-H ) :   0.9657
B(  2-C , 11-H ) :   1.0009 B(  3-C ,  4-C ) :   0.8882 B(  3-C , 12-H ) :   0.9640
B(  3-C , 13-H ) :   0.9931 B(  4-C , 14-H ) :   0.9722 B(  4-C , 15-H ) :   0.9787
B(  4-C , 16-H ) :   0.9798

Dispersion correction           -0.003788510
FINAL SINGLE POINT ENERGY      -197.679841169270

DIPOLE MOMENT
-------------

Method             : SCF
Type of density    : Electron Density
Multiplicity       :   1
Irrep              :   0
Energy             :  -197.6840309477005064 Eh
Relativity type    :
Basis              : AO
                                X                 Y                 Z
Electronic contribution:      0.172201902       1.160783170       0.618189611
Nuclear contribution   :     -0.159408670      -1.108079873      -0.602968018
                        -----------------------------------------
Total Dipole Moment    :      0.012793232       0.052703297       0.015221593
                        -----------------------------------------
Magnitude (a.u.)       :      0.056329399
Magnitude (Debye)      :      0.143177953

Rotational constants in cm-1:             0.281239             0.092636             0.079995
Rotational constants in MHz :          8431.347749          2777.156799          2398.181819

                             ****ORCA TERMINATED NORMALLY****
TOTAL RUN TIME: 0 days 0 hours 0 minutes 16 seconds 14 msec
