                         Program Version 6.0.0  -   RELEASE  -
|  1> ! r2scan-3c def2/J RI DEFGRID2 scfconv6 printgap
|  2> %output
|  3>     printlevel normal
|  4> end
|  5> * xyz 0 1
|  6> C -1.4119911819 1.5895593558 0.0178100755
|  7> C -1.3850811416 0.0879410505 -0.2480659623
|  8> C -0.119981852 -0.6180144319 0.2564084299
|  9> H -0.0255163046 -0.4514222058 1.3356541477
| 10> C -0.240411129 -2.1208193182 0.0046929507
| 11> C 1.1609966534 -0.0729702436 -0.4010954512
| 12> O 1.8018619894 0.9393778236 0.3479177562
| 13> H -1.2435890816 1.7946433935 1.0728565993
| 14> H -0.6599741073 2.1070759527 -0.5731681982
| 15> H -2.3826678011 1.9971035517 -0.2552192217
| 16> H -1.4835793301 -0.0910234411 -1.321471745
| 17> H -2.2469866429 -0.3703434178 0.241700193
| 18> H -1.1441425887 -2.5110329853 0.4660336371
| 19> H 0.6135429957 -2.6494665027 0.4204315075
| 20> H -0.2847547085 -2.3210752826 -1.063538302
| 21> H 0.9441888692 0.2849406322 -1.4168603002
| 22> H 1.9072705603 -0.8676501096 -0.4756942813
| 23> H 1.1950902266 1.6839045856 0.4586468248
| 24> *
| 25>
| 26>                          ****END OF INPUT****

CARTESIAN COORDINATES (ANGSTROEM)
---------------------------------
  C     -1.411991    1.589559    0.017810
  C     -1.385081    0.087941   -0.248066
  C     -0.119982   -0.618014    0.256408
  H     -0.025516   -0.451422    1.335654
  C     -0.240411   -2.120819    0.004693
  C      1.160997   -0.072970   -0.401095
  O      1.801862    0.939378    0.347918
  H     -1.243589    1.794643    1.072857
  H     -0.659974    2.107076   -0.573168
  H     -2.382668    1.997104   -0.255219
  H     -1.483579   -0.091023   -1.321472
  H     -2.246987   -0.370343    0.241700
  H     -1.144143   -2.511033    0.466034
  H      0.613543   -2.649467    0.420432
  H     -0.284755   -2.321075   -1.063538
  H      0.944189    0.284941   -1.416860
  H      1.907271   -0.867650   -0.475694
  H      1.195090    1.683905    0.458647

 Total Charge           Charge          ....    0
 Multiplicity           Mult            ....    1
 Number of Electrons    NEL             ....   50
 Basis Dimension        Dim             ....  179

ORBITAL ENERGIES
----------------

  NO   OCC          E(Eh)            E(eV)
   0   2.0000     -18.942949      -515.4638
   1   2.0000     -10.070196      -274.0240
   2   2.0000     -10.033004      -273.0119
   3   2.0000     -10.030158      -272.9345
   4   2.0000     -10.027427      -272.8601
   5   2.0000     -10.019447      -272.6430
   6   2.0000      -0.980103       -26.6700
   7   2.0000      -0.777689       -21.1620
   8   2.0000      -0.707453       -19.2508
   9   2.0000      -0.638673       -17.3792
  10   2.0000      -0.598831       -16.2950
  11   2.0000      -0.538012       -14.6400
  12   2.0000      -0.480739       -13.0816
  13   2.0000      -0.423780       -11.5316
  14   2.0000      -0.416741       -11.3401
  15   2.0000      -0.401843       -10.9347
  16   2.0000      -0.388927       -10.5832
  17   2.0000      -0.376703       -10.2506
  18   2.0000      -0.343964        -9.3597
  19   2.0000      -0.338442        -9.2095
  20   2.0000      -0.328945        -8.9511
  21   2.0000      -0.302441        -8.2298
  22   2.0000      -0.297410        -8.0929
  23   2.0000      -0.275593        -7.4993
  24   2.0000      -0.230425        -6.2702
  25   0.0000       0.058768         1.5991
  26   0.0000       0.085358         2.3227
  27   0.0000       0.110536         3.0078
  28   0.0000       0.115120         3.1326
  29   0.0000       0.128249         3.4898

MULLIKEN ATOMIC CHARGES
-----------------------
   0 C :   -0.533569
   1 C :   -0.253350
   2 C :   -0.010739
   3 H :    0.164828
   4 C :   -0.500820
   5 C :   -0.236244
   6 O :   -0.419029
   7 H :    0.161909
   8 H :    0.149196
   9 H :    0.153815
  10 H :    0.147644
  11 H :    0.142670
  12 H :    0.145398
  13 H :    0.152425
  14 H :    0.148568
  15 H :    0.142514
  16 H :    0.140944
  17 H :    0.303839
Sum of atomic charges:    0.0000000

LOEWDIN ATOMIC CHARGES
----------------------
   0 C :   -0.428178
   1 C :   -0.309710
   2 C :   -0.234825
   3 H :    0.167332
   4 C :   -0.412592
   5 C :    0.008667
   6 O :   -0.621429
   7 H :    0.151921
   8 H :    0.147004
   9 H :    0.154290
  10 H :    0.155734
  11 H :    0.155112
  12 H :    0.153876
  13 H :    0.154353
  14 H :    0.154889
  15 H :    0.159883
  16 H :    0.179870
  17 H :    0.263801

  Mayer bond orders larger than 0.100000
B(  0-C ,  1-C ) :   0.8570 B(  0-C ,  7-H ) :   0.9858 B(  0-C ,  8-H ) :   0.9751
B(  0-C ,  9-H ) :   0.9671 B(  1-C ,  2-C ) :   0.9116 B(  1-C , 10-H ) :   0.9822
B(  1-C , 11-H ) :   0.9775 B(  2-C ,  3-H ) :   0.9695 B(  2-C ,  4-C ) :   0.9043
B(  2-C ,  5-C ) :   0.8317 B(  4-C , 12-H ) :   0.9751 B(  4-C , 13-H ) :   0.9767
B(  4-C , 14-H ) :   0.9840 B(  5-C ,  6-O ) :   0.9482 B(  5-C , 15-H ) :   0.9881
B(  5-C , 16-H ) :   0.9767 B(  6-O , 17-H ) :   0.8824

Dispersion correction           -0.004426442
FINAL SINGLE POINT ENERGY      -272.895694501473

DIPOLE MOMENT
-------------

Method             : SCF
Type of density    : Electron Density
Multiplicity       :   1
Irrep              :   0
Energy             :  -272.9012780255971506 Eh
Relativity type    :
Basis              : AO
                                X                 Y                 Z
Electronic contribution:      3.787350377       1.287712357       0.881787764
Nuclear contribution   :     -4.486875391      -1.294183751      -1.036788606
                        -----------------------------------------
Total Dipole Moment    :     -0.699525014      -0.006471394      -0.155000842
                        -----------------------------------------
Magnitude (a.u.)       :      0.716521029
Magnitude (Debye)      :      1.821251719

Rotational constants in cm-1:             0.110872             0.110011             0.060801
Rotational constants in MHz :          3323.852732          3298.040407          1822.759167

                             ****ORCA TERMINATED NORMALLY****
TOTAL RUN TIME: 0 days 0 hours 0 minutes 22 seconds 977 msec
