                         Program Version 6.0.0  -   RELEASE  -
|  1> ! r2scan-3c def2/J RI DEFGRID2 scfconv6 printgap
|  2> %output
|  3>     printlevel normal
|  4> end
|  5> %cpcm
|  6>     smd true
|  7>     smdsolvent "water"
|  8> end
|  9> * xyz 0 1
| 10> C -1.4119911819 1.5895593558 0.0178100755
| 11> C -1.3850811416 0.0879410505 -0.2480659623
| 12> C -0.119981852 -0.6180144319 0.2564084299
| 13> H -0.0255163046 -0.4514222058 1.3356541477
| 14> C -0.240411129 -2.1208193182 0.0046929507
| 15> C 1.1609966534 -0.0729702436 -0.4010954512
| 16> O 1.8018619894 0.9393778236 0.3479177562
| 17> H -1.2435890816 1.7946433935 1.0728565993
| 18> H -0.6599741073 2.1070759527 -0.5731681982
| 19> H -2.3826678011 1.9971035517 -0.2552192217
| 20> H -1.4835793301 -0.0910234411 -1.321471745
| 21> H -2.2469866429 -0.3703434178 0.241700193
| 22> H -1.1441425887 -2.5110329853 0.4660336371
| 23> H 0.6135429957 -2.6494665027 0.4204315075
| 24> H -0.2847547085 -2.3210752826 -1.063538302
| 25> H 0.9441888692 0.2849406322 -1.4168603002
| 26> H 1.9072705603 -0.8676501096 -0.4756942813
| 27> H 1.1950902266 1.6839045856 0.4586468248
| 28> *
| 29>
| 30>                          ****END OF INPUT****

CARTESIAN COORDINATES (ANGSTROEM)
---------------------------------
  C     -1.411991    1.589559    0.017810
  C     -1.385081    0.087941   -0.248066
  C     -0.119982   -0.618014    0.256408
  H     -0.025516   -0.451422    1.335654
  C     -0.240411   -2.120819    0.004693
  C      1.160997   -0.072970   -0.401095
  O      1.801862    0.939378    0.347918
  H     -1.243589    1.794643    1.072857
  H     -0.659974    2.107076   -0.573168
  H     -2.382668    1.997104   -0.255219
  H     -1.483579   -0.091023   -1.321472
  H     -2.246987   -0.370343    0.241700
  H     -1.144143   -2.511033    0.466034
  H      0.613543   -2.649467    0.420432
  H     -0.284755   -2.321075   -1.063538
  H      0.944189    0.284941   -1.416860
  H      1.907271   -0.867650   -0.475694
  H      1.195090    1.683905    0.458647

 Total Charge           Charge          ....    0
 Multiplicity           Mult            ....    1
 Number of Electrons    NEL             ....   50
 Basis Dimension        Dim             ....  179

ORBITAL ENERGIES
----------------

  NO   OCC          E(Eh)            E(eV)
   0   2.0000     -18.949005      -515.6287
   1   2.0000     -10.064929      -273.8806
   2   2.0000     -10.023956      -272.7657
   3   2.0000     -10.016068      -272.5511
   4   2.0000     -10.010043      -272.3871
   5   2.0000     -10.008515      -272.3455
   6   2.0000      -0.984859       -26.7994
   7   2.0000      -0.766545       -20.8587
   8   2.0000      -0.694218       -18.8906
   9   2.0000      -0.632980       -17.2243
  10   2.0000      -0.585948       -15.9444
  11   2.0000      -0.528958       -14.3937
  12   2.0000      -0.476027       -12.9534
  13   2.0000      -0.416863       -11.3434
  14   2.0000      -0.405830       -11.0432
  15   2.0000      -0.393413       -10.7053
  16   2.0000      -0.377078       -10.2608
  17   2.0000      -0.368480       -10.0268
  18   2.0000      -0.337650        -9.1879
  19   2.0000      -0.328407        -8.9364
  20   2.0000      -0.316341        -8.6081
  21   2.0000      -0.293564        -7.9883
  22   2.0000      -0.286628        -7.7995
  23   2.0000      -0.269920        -7.3449
  24   2.0000      -0.235256        -6.4016
  25   0.0000       0.071102         1.9348
  26   0.0000       0.098428         2.6784
  27   0.0000       0.120093         3.2679
  28   0.0000       0.128249         3.4898
  29   0.0000       0.139601         3.7987

MULLIKEN ATOMIC CHARGES
-----------------------
   0 C :   -0.558234
   1 C :   -0.273280
   2 C :    0.004167
   3 H :    0.163666
   4 C :   -0.540914
   5 C :   -0.238457
   6 O :   -0.510505
   7 H :    0.168684
   8 H :    0.166230
   9 H :    0.161028
  10 H :    0.156557
  11 H :    0.152137
  12 H :    0.159032
  13 H :    0.160552
  14 H :    0.161552
  15 H :    0.156795
  16 H :    0.152779
  17 H :    0.358213
Sum of atomic charges:    0.0000000

LOEWDIN ATOMIC CHARGES
----------------------
   0 C :   -0.433158
   1 C :   -0.310729
   2 C :   -0.231197
   3 H :    0.167389
   4 C :   -0.419749
   5 C :    0.006501
   6 O :   -0.660545
   7 H :    0.155304
   8 H :    0.153341
   9 H :    0.155075
  10 H :    0.158335
  11 H :    0.157206
  12 H :    0.157109
  13 H :    0.155966
  14 H :    0.158414
  15 H :    0.168116
  16 H :    0.182457
  17 H :    0.280165

  Mayer bond orders larger than 0.100000
B(  0-C ,  1-C ) :   0.8605 B(  0-C ,  7-H ) :   0.9806 B(  0-C ,  8-H ) :   0.9715
B(  0-C ,  9-H ) :   0.9662 B(  1-C ,  2-C ) :   0.9090 B(  1-C , 10-H ) :   0.9822
B(  1-C , 11-H ) :   0.9774 B(  2-C ,  3-H ) :   0.9699 B(  2-C ,  4-C ) :   0.8944
B(  2-C ,  5-C ) :   0.8452 B(  4-C , 12-H ) :   0.9734 B(  4-C , 13-H ) :   0.9735
B(  4-C , 14-H ) :   0.9818 B(  5-C ,  6-O ) :   0.9314 B(  5-C , 15-H ) :   0.9776
B(  5-C , 16-H ) :   0.9746 B(  6-O , 17-H ) :   0.8559

Dispersion correction           -0.004426442
FINAL SINGLE POINT ENERGY      -272.901835205273

DIPOLE MOMENT
-------------

Method             : SCF
Type of density    : Electron Density
Multiplicity       :   1
Irrep              :   0
Energy             :  -272.9074187293970226 Eh
Relativity type    :
Basis              : AO
                                X                 Y                 Z
Electronic contribution:      3.579752025       1.321711183       0.791151175
Nuclear contribution   :     -4.486875391      -1.294183751      -1.036788606
                        -----------------------------------------
Total Dipole Moment    :     -0.907123366       0.027527432      -0.245637431
                        -----------------------------------------
Magnitude (a.u.)       :      0.940195888
Magnitude (Debye)      :      2.389788029

Rotational constants in cm-1:             0.110872             0.110011             0.060801
Rotational constants in MHz :          3323.852732          3298.040407          1822.759167

                             ****ORCA TERMINATED NORMALLY****
TOTAL RUN TIME: 0 days 0 hours 0 minutes 27 seconds 222 msec
