                         Program Version 6.0.0  -   RELEASE  -
|  1> ! pbe def2-sv(p) def2/J RI DEFGRID1 loosescf d4 GCP(DFT/SV(P)) printgap
|  2> %output
|  3>     printlevel normal
|  4> end
|  5> * xyz 0 1
|  6> C -2.6422564434 0.2840044608 0.9884961632
|  7> C -2.1641347537 0.4451303841 -0.4498334699
|  8> C -0.8616463492 -0.3006413088 -0.7010416554
|  9> O 0.1790609477 0.3292820492 0.0604383789
| 10> C 1.4017281086 -0.1768451582 -0.0318735607
| 11> O 1.6694509803 -1.1383856962 -0.7242457512
| 12> C 2.3818793772 0.5781769056 0.8144728216
| 13> H -3.5607202255 0.842608883 1.144671846
| 14> H -2.8307540048 -0.7633988692 1.2120648422
| 15> H -1.8876607467 0.6549884048 1.6768961139
| 16> H -2.0063869229 1.5013642839 -0.6698846018
| 17> H -2.9126432146 0.055428371 -1.1396876859
| 18> H -0.9325707305 -1.3494258864 -0.3933239522
| 19> H -0.5793654463 -0.2748773532 -1.7589860845
| 20> H 3.3830174864 0.1997089581 0.6374546042
| 21> H 2.1165780888 0.4521227434 1.8610225568
| 22> H 2.323719049 1.6362789665 0.5759710538
| 23> *
| 24>
| 25>                          ****END OF INPUT****

CARTESIAN COORDINATES (ANGSTROEM)
---------------------------------
  C     -2.642256    0.284004    0.988496
  C     -2.164135    0.445130   -0.449833
  C     -0.861646   -0.300641   -0.701042
  O      0.179061    0.329282    0.060438
  C      1.401728   -0.176845   -0.031874
  O      1.669451   -1.138386   -0.724246
  C      2.381879    0.578177    0.814473
  H     -3.560720    0.842609    1.144672
  H     -2.830754   -0.763399    1.212065
  H     -1.887661    0.654988    1.676896
  H     -2.006387    1.501364   -0.669885
  H     -2.912643    0.055428   -1.139688
  H     -0.932571   -1.349426   -0.393324
  H     -0.579365   -0.274877   -1.758986
  H      3.383017    0.199709    0.637455
  H      2.116578    0.452123    1.861023
  H      2.323719    1.636279    0.575971

 Total Charge           Charge          ....    0
 Multiplicity           Mult            ....    1
 Number of Electrons    NEL             ....   56
 Basis Dimension        Dim             ....  118

ORBITAL ENERGIES
----------------

  NO   OCC          E(Eh)            E(eV)
   0   2.0000     -18.797058      -511.4939
   1   2.0000     -18.731821      -509.7188
   2   2.0000     -10.004635      -272.2400
   3   2.0000      -9.942600      -270.5519
   4   2.0000      -9.896211      -269.2896
   5   2.0000      -9.891564      -269.1631
   6   2.0000      -9.880211      -268.8542
   7   2.0000      -1.004365       -27.3302
   8   2.0000      -0.906703       -24.6727
   9   2.0000      -0.725549       -19.7432
  10   2.0000      -0.677129       -18.4256
  11   2.0000      -0.620568       -16.8865
  12   2.0000      -0.548387       -14.9224
  13   2.0000      -0.503851       -13.7105
  14   2.0000      -0.445405       -12.1201
  15   2.0000      -0.434481       -11.8228
  16   2.0000      -0.411066       -11.1857
  17   2.0000      -0.401002       -10.9118
  18   2.0000      -0.389134       -10.5889
  19   2.0000      -0.370997       -10.0954
  20   2.0000      -0.359369        -9.7789
  21   2.0000      -0.338382        -9.2079
  22   2.0000      -0.322494        -8.7755
  23   2.0000      -0.311547        -8.4776
  24   2.0000      -0.304998        -8.2994
  25   2.0000      -0.291612        -7.9352
  26   2.0000      -0.255496        -6.9524
  27   2.0000      -0.215637        -5.8678
  28   0.0000      -0.017701        -0.4817
  29   0.0000       0.036367         0.9896
  30   0.0000       0.056259         1.5309
  31   0.0000       0.076813         2.0902
  32   0.0000       0.079382         2.1601

MULLIKEN ATOMIC CHARGES
-----------------------
   0 C :   -0.290306
   1 C :   -0.174568
   2 C :   -0.005239
   3 O :   -0.246402
   4 C :    0.080145
   5 O :   -0.215420
   6 C :   -0.241035
   7 H :    0.108196
   8 H :    0.099712
   9 H :    0.111272
  10 H :    0.097683
  11 H :    0.095096
  12 H :    0.097151
  13 H :    0.104594
  14 H :    0.123779
  15 H :    0.129559
  16 H :    0.125782
Sum of atomic charges:    0.0000000

LOEWDIN ATOMIC CHARGES
----------------------
   0 C :   -0.343446
   1 C :   -0.245189
   2 C :   -0.101719
   3 O :   -0.074271
   4 C :    0.027605
   5 O :   -0.170919
   6 C :   -0.358946
   7 H :    0.121252
   8 H :    0.118285
   9 H :    0.120931
  10 H :    0.123256
  11 H :    0.125333
  12 H :    0.114317
  13 H :    0.115614
  14 H :    0.139595
  15 H :    0.145633
  16 H :    0.142670

  Mayer bond orders larger than 0.100000
B(  0-C ,  1-C ) :   1.1471 B(  0-C ,  7-H ) :   0.9541 B(  0-C ,  8-H ) :   0.9552
B(  0-C ,  9-H ) :   0.9542 B(  1-C ,  2-C ) :   1.1064 B(  1-C , 10-H ) :   0.9215
B(  1-C , 11-H ) :   0.9201 B(  2-C ,  3-O ) :   0.9153 B(  2-C , 12-H ) :   0.9275
B(  2-C , 13-H ) :   0.9299 B(  3-O ,  4-C ) :   1.1852 B(  4-C ,  5-O ) :   2.0569
B(  4-C ,  6-C ) :   1.0908 B(  6-C , 14-H ) :   0.9420 B(  6-C , 15-H ) :   0.9277
B(  6-C , 16-H ) :   0.9305

Dispersion correction           -0.011660734
FINAL SINGLE POINT ENERGY      -346.244669072257

DIPOLE MOMENT
-------------

Method             : SCF
Type of density    : Electron Density
Multiplicity       :   1
Irrep              :   0
Energy             :  -346.3095554619699783 Eh
Relativity type    :
Basis              : AO
                                X                 Y                 Z
Electronic contribution:      5.936170684      -2.200633208      -2.614505564
Nuclear contribution   :     -6.433551047       2.760099144       2.941818711
                        -----------------------------------------
Total Dipole Moment    :     -0.497380363       0.559465936       0.327313146
                        -----------------------------------------
Magnitude (a.u.)       :      0.817020964
Magnitude (Debye)      :      2.076702251

Rotational constants in cm-1:             0.191451             0.045909             0.040217
Rotational constants in MHz :          5739.554021          1376.330319          1205.666984

                             ****ORCA TERMINATED NORMALLY****
TOTAL RUN TIME: 0 days 0 hours 0 minutes 8 seconds 114 msec
