                         Program Version 6.0.0  -   RELEASE  -
|  1> ! r2scan-3c def2/J RI DEFGRID2 scfconv6 printgap
|  2> %output
|  3>     printlevel normal
|  4> end
|  5> * xyz 0 1
|  6> C 2.5310143268 1.5660190533 0.4099013838
|  7> C 2.1280118198 0.2797825143 -0.3112239129
|  8> C 3.3779671359 -0.5478852215 -0.6107962766
|  9> C 1.1340491014 -0.5443119221 0.5246438393
| 10> C -0.3261741772 -0.3113325972 0.2363535481
| 11> C -0.8258670204 0.888929549 -0.2527507396
| 12> C -2.1807836305 1.0504502841 -0.4903496119
| 13> C -3.0645260137 0.0161748951 -0.2399368826
| 14> C -2.5813023163 -1.1847492263 0.2520157202
| 15> C -1.227844195 -1.3429342972 0.4847232827
| 16> H 3.0967549259 1.3273706593 1.3086470649
| 17> H 1.6605611447 2.1469065483 0.7034598981
| 18> H 3.1562651118 2.1828785875 -0.2321415726
| 19> H 1.6566909403 0.5361840279 -1.266092358
| 20> H 4.0940805387 0.0395890678 -1.1809028519
| 21> H 3.8544052811 -0.8642430128 0.3148219872
| 22> H 3.1245652374 -1.432820161 -1.1901385654
| 23> H 1.3111967432 -0.3429409498 1.5857522799
| 24> H 1.3342884349 -1.6070108905 0.3694646963
| 25> H -0.1614676601 1.7130174962 -0.4587164151
| 26> H -2.5466127208 1.9919359218 -0.8737055104
| 27> H -4.1203038666 0.1432635269 -0.4273986244
| 28> H -3.2604941895 -2.0010353598 0.4504137074
| 29> H -0.8605612972 -2.2856085587 0.865786597
| 30> *
| 31>
| 32>                          ****END OF INPUT****

CARTESIAN COORDINATES (ANGSTROEM)
---------------------------------
  C      2.531014    1.566019    0.409901
  C      2.128012    0.279783   -0.311224
  C      3.377967   -0.547885   -0.610796
  C      1.134049   -0.544312    0.524644
  C     -0.326174   -0.311333    0.236354
  C     -0.825867    0.888930   -0.252751
  C     -2.180784    1.050450   -0.490350
  C     -3.064526    0.016175   -0.239937
  C     -2.581302   -1.184749    0.252016
  C     -1.227844   -1.342934    0.484723
  H      3.096755    1.327371    1.308647
  H      1.660561    2.146907    0.703460
  H      3.156265    2.182879   -0.232142
  H      1.656691    0.536184   -1.266092
  H      4.094081    0.039589   -1.180903
  H      3.854405   -0.864243    0.314822
  H      3.124565   -1.432820   -1.190139
  H      1.311197   -0.342941    1.585752
  H      1.334288   -1.607011    0.369465
  H     -0.161468    1.713017   -0.458716
  H     -2.546613    1.991936   -0.873706
  H     -4.120304    0.143264   -0.427399
  H     -3.260494   -2.001035    0.450414
  H     -0.860561   -2.285609    0.865787

 Total Charge           Charge          ....    0
 Multiplicity           Mult            ....    1
 Number of Electrons    NEL             ....   74
 Basis Dimension        Dim             ....  260

ORBITAL ENERGIES
----------------

  NO   OCC          E(Eh)            E(eV)
   0   2.0000     -10.041279      -273.2371
   1   2.0000     -10.037222      -273.1267
   2   2.0000     -10.031094      -272.9599
   3   2.0000     -10.030780      -272.9514
   4   2.0000     -10.030756      -272.9508
   5   2.0000     -10.028994      -272.9028
   6   2.0000     -10.028381      -272.8861
   7   2.0000     -10.028224      -272.8818
   8   2.0000     -10.017897      -272.6008
   9   2.0000     -10.017356      -272.5861
  10   2.0000      -0.827269       -22.5111
  11   2.0000      -0.779006       -21.1978
  12   2.0000      -0.724654       -19.7188
  13   2.0000      -0.712310       -19.3829
  14   2.0000      -0.652584       -17.7577
  15   2.0000      -0.646109       -17.5815
  16   2.0000      -0.574753       -15.6398
  17   2.0000      -0.557159       -15.1611
  18   2.0000      -0.527170       -14.3450
  19   2.0000      -0.483855       -13.1664
  20   2.0000      -0.433348       -11.7920
  21   2.0000      -0.427011       -11.6196
  22   2.0000      -0.419735       -11.4216
  23   2.0000      -0.405929       -11.0459
  24   2.0000      -0.393338       -10.7033
  25   2.0000      -0.381391       -10.3782
  26   2.0000      -0.372163       -10.1271
  27   2.0000      -0.356999        -9.7144
  28   2.0000      -0.347517        -9.4564
  29   2.0000      -0.329633        -8.9698
  30   2.0000      -0.323866        -8.8128
  31   2.0000      -0.309391        -8.4189
  32   2.0000      -0.299398        -8.1470
  33   2.0000      -0.293366        -7.9829
  34   2.0000      -0.287516        -7.8237
  35   2.0000      -0.233605        -6.3567
  36   2.0000      -0.222807        -6.0629
  37   0.0000      -0.029099        -0.7918
  38   0.0000      -0.025818        -0.7025
  39   0.0000       0.077615         2.1120
  40   0.0000       0.088469         2.4074
  41   0.0000       0.100372         2.7313

MULLIKEN ATOMIC CHARGES
-----------------------
   0 C :   -0.506097
   1 C :   -0.025454
   2 C :   -0.494629
   3 C :   -0.331801
   4 C :    0.165042
   5 C :   -0.189687
   6 C :   -0.180918
   7 C :   -0.153207
   8 C :   -0.152384
   9 C :   -0.237173
  10 H :    0.153758
  11 H :    0.144345
  12 H :    0.149763
  13 H :    0.164539
  14 H :    0.145108
  15 H :    0.149788
  16 H :    0.149958
  17 H :    0.172589
  18 H :    0.152783
  19 H :    0.145483
  20 H :    0.143910
  21 H :    0.145308
  22 H :    0.144338
  23 H :    0.144639
Sum of atomic charges:    0.0000000

LOEWDIN ATOMIC CHARGES
----------------------
   0 C :   -0.417386
   1 C :   -0.243266
   2 C :   -0.415398
   3 C :   -0.271003
   4 C :   -0.081413
   5 C :   -0.168562
   6 C :   -0.162064
   7 C :   -0.174734
   8 C :   -0.162351
   9 C :   -0.164103
  10 H :    0.153666
  11 H :    0.152439
  12 H :    0.153610
  13 H :    0.160614
  14 H :    0.153553
  15 H :    0.154229
  16 H :    0.153022
  17 H :    0.174750
  18 H :    0.168235
  19 H :    0.169930
  20 H :    0.166038
  21 H :    0.165930
  22 H :    0.166326
  23 H :    0.167938

  Mayer bond orders larger than 0.100000
B(  0-C ,  1-C ) :   0.9003 B(  0-C , 10-H ) :   0.9867 B(  0-C , 11-H ) :   0.9699
B(  0-C , 12-H ) :   0.9759 B(  1-C ,  2-C ) :   0.9012 B(  1-C ,  3-C ) :   0.8175
B(  1-C , 13-H ) :   0.9731 B(  2-C , 14-H ) :   0.9770 B(  2-C , 15-H ) :   0.9853
B(  2-C , 16-H ) :   0.9794 B(  3-C ,  4-C ) :   0.8010 B(  3-C , 17-H ) :   0.9558
B(  3-C , 18-H ) :   1.0150 B(  4-C ,  5-C ) :   1.4231 B(  4-C ,  9-C ) :   1.4026
B(  5-C ,  6-C ) :   1.4344 B(  5-C , 19-H ) :   0.9481 B(  6-C ,  7-C ) :   1.4262
B(  6-C , 20-H ) :   0.9485 B(  7-C ,  8-C ) :   1.4205 B(  7-C , 21-H ) :   0.9495
B(  8-C ,  9-C ) :   1.4462 B(  8-C , 22-H ) :   0.9479 B(  9-C , 23-H ) :   0.9499

Dispersion correction           -0.008078280
FINAL SINGLE POINT ENERGY      -389.375734870245

DIPOLE MOMENT
-------------

Method             : SCF
Type of density    : Electron Density
Multiplicity       :   1
Irrep              :   0
Energy             :  -389.3760658665869414 Eh
Relativity type    :
Basis              : AO
                                X                 Y                 Z
Electronic contribution:    -11.391041813      -1.462318936       0.035614572
Nuclear contribution   :     11.576383887       1.451800574      -0.028848312
                        -----------------------------------------
Total Dipole Moment    :      0.185342073      -0.010518362       0.006766261
                        -----------------------------------------
Magnitude (a.u.)       :      0.185763566
Magnitude (Debye)      :      0.472173460

Rotational constants in cm-1:             0.105963             0.024054             0.020989
Rotational constants in MHz :          3176.699615           721.131509           629.246043

                             ****ORCA TERMINATED NORMALLY****
TOTAL RUN TIME: 0 days 0 hours 0 minutes 31 seconds 629 msec
