                         Program Version 6.0.0  -   RELEASE  -
|  1> ! r2scan-3c def2/J RI DEFGRID2 scfconv6 printgap
|  2> %output
|  3>     printlevel normal
|  4> end
|  5> %cpcm
|  6>     smd true
|  7>     smdsolvent "water"
|  8> end
|  9> * xyz 0 1
| 10> C 2.5310143268 1.5660190533 0.4099013838
| 11> C 2.1280118198 0.2797825143 -0.3112239129
| 12> C 3.3779671359 -0.5478852215 -0.6107962766
| 13> C 1.1340491014 -0.5443119221 0.5246438393
| 14> C -0.3261741772 -0.3113325972 0.2363535481
| 15> C -0.8258670204 0.888929549 -0.2527507396
| 16> C -2.1807836305 1.0504502841 -0.4903496119
| 17> C -3.0645260137 0.0161748951 -0.2399368826
| 18> C -2.5813023163 -1.1847492263 0.2520157202
| 19> C -1.227844195 -1.3429342972 0.4847232827
| 20> H 3.0967549259 1.3273706593 1.3086470649
| 21> H 1.6605611447 2.1469065483 0.7034598981
| 22> H 3.1562651118 2.1828785875 -0.2321415726
| 23> H 1.6566909403 0.5361840279 -1.266092358
| 24> H 4.0940805387 0.0395890678 -1.1809028519
| 25> H 3.8544052811 -0.8642430128 0.3148219872
| 26> H 3.1245652374 -1.432820161 -1.1901385654
| 27> H 1.3111967432 -0.3429409498 1.5857522799
| 28> H 1.3342884349 -1.6070108905 0.3694646963
| 29> H -0.1614676601 1.7130174962 -0.4587164151
| 30> H -2.5466127208 1.9919359218 -0.8737055104
| 31> H -4.1203038666 0.1432635269 -0.4273986244
| 32> H -3.2604941895 -2.0010353598 0.4504137074
| 33> H -0.8605612972 -2.2856085587 0.865786597
| 34> *
| 35>
| 36>                          ****END OF INPUT****

CARTESIAN COORDINATES (ANGSTROEM)
---------------------------------
  C      2.531014    1.566019    0.409901
  C      2.128012    0.279783   -0.311224
  C      3.377967   -0.547885   -0.610796
  C      1.134049   -0.544312    0.524644
  C     -0.326174   -0.311333    0.236354
  C     -0.825867    0.888930   -0.252751
  C     -2.180784    1.050450   -0.490350
  C     -3.064526    0.016175   -0.239937
  C     -2.581302   -1.184749    0.252016
  C     -1.227844   -1.342934    0.484723
  H      3.096755    1.327371    1.308647
  H      1.660561    2.146907    0.703460
  H      3.156265    2.182879   -0.232142
  H      1.656691    0.536184   -1.266092
  H      4.094081    0.039589   -1.180903
  H      3.854405   -0.864243    0.314822
  H      3.124565   -1.432820   -1.190139
  H      1.311197   -0.342941    1.585752
  H      1.334288   -1.607011    0.369465
  H     -0.161468    1.713017   -0.458716
  H     -2.546613    1.991936   -0.873706
  H     -4.120304    0.143264   -0.427399
  H     -3.260494   -2.001035    0.450414
  H     -0.860561   -2.285609    0.865787

 Total Charge           Charge          ....    0
 Multiplicity           Mult            ....    1
 Number of Electrons    NEL             ....   74
 Basis Dimension        Dim             ....  260

ORBITAL ENERGIES
----------------

  NO   OCC          E(Eh)            E(eV)
   0   2.0000     -10.040751      -273.2227
   1   2.0000     -10.030248      -272.9369
   2   2.0000     -10.030025      -272.9309
   3   2.0000     -10.028289      -272.8836
   4   2.0000     -10.027611      -272.8652
   5   2.0000     -10.027471      -272.8614
   6   2.0000     -10.026934      -272.8467
   7   2.0000     -10.022453      -272.7248
   8   2.0000     -10.007089      -272.3067
   9   2.0000     -10.007045      -272.3055
  10   2.0000      -0.827703       -22.5229
  11   2.0000      -0.771644       -20.9975
  12   2.0000      -0.721619       -19.6362
  13   2.0000      -0.712104       -19.3773
  14   2.0000      -0.643297       -17.5050
  15   2.0000      -0.640149       -17.4193
  16   2.0000      -0.572352       -15.5745
  17   2.0000      -0.554101       -15.0778
  18   2.0000      -0.519519       -14.1368
  19   2.0000      -0.480047       -13.0627
  20   2.0000      -0.427607       -11.6358
  21   2.0000      -0.422388       -11.4938
  22   2.0000      -0.412970       -11.2375
  23   2.0000      -0.399101       -10.8601
  24   2.0000      -0.387895       -10.5552
  25   2.0000      -0.376330       -10.2405
  26   2.0000      -0.366808        -9.9814
  27   2.0000      -0.348003        -9.4696
  28   2.0000      -0.344120        -9.3640
  29   2.0000      -0.323823        -8.8117
  30   2.0000      -0.319491        -8.6938
  31   2.0000      -0.304490        -8.2856
  32   2.0000      -0.290432        -7.9030
  33   2.0000      -0.284971        -7.7544
  34   2.0000      -0.280789        -7.6407
  35   2.0000      -0.236980        -6.4486
  36   2.0000      -0.224642        -6.1128
  37   0.0000      -0.031239        -0.8500
  38   0.0000      -0.027590        -0.7508
  39   0.0000       0.086329         2.3491
  40   0.0000       0.097352         2.6491
  41   0.0000       0.109960         2.9922

MULLIKEN ATOMIC CHARGES
-----------------------
   0 C :   -0.545938
   1 C :   -0.005077
   2 C :   -0.535215
   3 C :   -0.321776
   4 C :    0.107557
   5 C :   -0.202908
   6 C :   -0.223690
   7 C :   -0.188076
   8 C :   -0.191823
   9 C :   -0.258933
  10 H :    0.165695
  11 H :    0.155084
  12 H :    0.160014
  13 H :    0.168356
  14 H :    0.156603
  15 H :    0.161306
  16 H :    0.159560
  17 H :    0.187461
  18 H :    0.171180
  19 H :    0.176970
  20 H :    0.175162
  21 H :    0.177020
  22 H :    0.175920
  23 H :    0.175548
Sum of atomic charges:    0.0000000

LOEWDIN ATOMIC CHARGES
----------------------
   0 C :   -0.424081
   1 C :   -0.240179
   2 C :   -0.422998
   3 C :   -0.272295
   4 C :   -0.089056
   5 C :   -0.177562
   6 C :   -0.174745
   7 C :   -0.189344
   8 C :   -0.175377
   9 C :   -0.174169
  10 H :    0.156390
  11 H :    0.155130
  12 H :    0.155930
  13 H :    0.161510
  14 H :    0.155901
  15 H :    0.157190
  16 H :    0.155252
  17 H :    0.180356
  18 H :    0.174241
  19 H :    0.180460
  20 H :    0.176334
  21 H :    0.175837
  22 H :    0.176622
  23 H :    0.178654

  Mayer bond orders larger than 0.100000
B(  0-C ,  1-C ) :   0.8904 B(  0-C , 10-H ) :   0.9853 B(  0-C , 11-H ) :   0.9677
B(  0-C , 12-H ) :   0.9738 B(  1-C ,  2-C ) :   0.8915 B(  1-C ,  3-C ) :   0.8013
B(  1-C , 13-H ) :   0.9775 B(  2-C , 14-H ) :   0.9763 B(  2-C , 15-H ) :   0.9829
B(  2-C , 16-H ) :   0.9760 B(  3-C ,  4-C ) :   0.8039 B(  3-C , 17-H ) :   0.9527
B(  3-C , 18-H ) :   1.0118 B(  4-C ,  5-C ) :   1.3913 B(  4-C ,  9-C ) :   1.3780
B(  5-C ,  6-C ) :   1.3978 B(  5-C , 19-H ) :   0.9514 B(  6-C ,  7-C ) :   1.3865
B(  6-C , 20-H ) :   0.9610 B(  7-C ,  8-C ) :   1.3791 B(  7-C , 21-H ) :   0.9576
B(  8-C ,  9-C ) :   1.4101 B(  8-C , 22-H ) :   0.9587 B(  9-C , 23-H ) :   0.9589

Dispersion correction           -0.008078280
FINAL SINGLE POINT ENERGY      -389.376522270890

DIPOLE MOMENT
-------------

Method             : SCF
Type of density    : Electron Density
Multiplicity       :   1
Irrep              :   0
Energy             :  -389.3768532672313540 Eh
Relativity type    :
Basis              : AO
                                X                 Y                 Z
Electronic contribution:    -11.301261919      -1.473545957       0.062730980
Nuclear contribution   :     11.576383887       1.451800574      -0.028848312
                        -----------------------------------------
Total Dipole Moment    :      0.275121968      -0.021745383       0.033882668
                        -----------------------------------------
Magnitude (a.u.)       :      0.278052142
Magnitude (Debye)      :      0.706752380

Rotational constants in cm-1:             0.105963             0.024054             0.020989
Rotational constants in MHz :          3176.699615           721.131509           629.246043

                             ****ORCA TERMINATED NORMALLY****
TOTAL RUN TIME: 0 days 0 hours 0 minutes 38 seconds 834 msec
