                         Program Version 6.0.0  -   RELEASE  -
|  1> ! r2scan-3c def2/J RI DEFGRID2 scfconv6 printgap
|  2> %output
|  3>     printlevel normal
|  4> end
|  5> * xyz 0 1
|  6> C -2.9700668633 -0.0021990105 0.1899153312
|  7> C -1.6453454614 0.7460721732 0.2425288716
|  8> C -0.4823288365 -0.1260978485 -0.155623714
|  9> O -0.5658112235 -1.2533545338 -0.5956444802
| 10> O 0.6727615973 0.502216329 0.0339001116
| 11> C 1.8930754975 -0.1851288444 -0.2929250759
| 12> C 3.005253158 0.3675106265 0.5789069244
| 13> H -3.7866999636 0.6639460029 0.4500315382
| 14> H -3.1382067945 -0.398583568 -0.8081006709
| 15> H -2.9602816511 -0.8387136599 0.8838369475
| 16> H -1.4466218498 1.1316356714 1.2433095711
| 17> H -1.6563787206 1.5991348078 -0.4388883511
| 18> H 1.741170971 -1.2575551253 -0.1333357376
| 19> H 2.0985951409 -0.0158777442 -1.3545680284
| 20> H 3.9391854249 -0.1206784515 0.3207408452
| 21> H 3.1024142994 1.4372868872 0.4199163625
| 22> H 2.7854636792 0.1876120563 1.6273501885
| 23> *
| 24>
| 25>                          ****END OF INPUT****

CARTESIAN COORDINATES (ANGSTROEM)
---------------------------------
  C     -2.970067   -0.002199    0.189915
  C     -1.645345    0.746072    0.242529
  C     -0.482329   -0.126098   -0.155624
  O     -0.565811   -1.253355   -0.595644
  O      0.672762    0.502216    0.033900
  C      1.893075   -0.185129   -0.292925
  C      3.005253    0.367511    0.578907
  H     -3.786700    0.663946    0.450032
  H     -3.138207   -0.398584   -0.808101
  H     -2.960282   -0.838714    0.883837
  H     -1.446622    1.131636    1.243310
  H     -1.656379    1.599135   -0.438888
  H      1.741171   -1.257555   -0.133336
  H      2.098595   -0.015878   -1.354568
  H      3.939185   -0.120678    0.320741
  H      3.102414    1.437287    0.419916
  H      2.785464    0.187612    1.627350

 Total Charge           Charge          ....    0
 Multiplicity           Mult            ....    1
 Number of Electrons    NEL             ....   56
 Basis Dimension        Dim             ....  193

ORBITAL ENERGIES
----------------

  NO   OCC          E(Eh)            E(eV)
   0   2.0000     -18.994814      -516.8752
   1   2.0000     -18.928505      -515.0708
   2   2.0000     -10.151534      -276.2373
   3   2.0000     -10.090456      -274.5753
   4   2.0000     -10.044468      -273.3239
   5   2.0000     -10.031733      -272.9773
   6   2.0000     -10.021115      -272.6884
   7   2.0000      -1.069970       -29.1154
   8   2.0000      -0.975294       -26.5391
   9   2.0000      -0.763665       -20.7804
  10   2.0000      -0.732723       -19.9384
  11   2.0000      -0.641411       -17.4537
  12   2.0000      -0.587575       -15.9887
  13   2.0000      -0.528740       -14.3877
  14   2.0000      -0.469926       -12.7873
  15   2.0000      -0.462910       -12.5964
  16   2.0000      -0.436915       -11.8891
  17   2.0000      -0.424736       -11.5576
  18   2.0000      -0.387383       -10.5412
  19   2.0000      -0.375030       -10.2051
  20   2.0000      -0.374147       -10.1811
  21   2.0000      -0.343577        -9.3492
  22   2.0000      -0.340789        -9.2733
  23   2.0000      -0.331657        -9.0249
  24   2.0000      -0.316790        -8.6203
  25   2.0000      -0.309421        -8.4198
  26   2.0000      -0.270400        -7.3579
  27   2.0000      -0.236183        -6.4269
  28   0.0000      -0.012010        -0.3268
  29   0.0000       0.077271         2.1026
  30   0.0000       0.092797         2.5251
  31   0.0000       0.107548         2.9265
  32   0.0000       0.129337         3.5194

MULLIKEN ATOMIC CHARGES
-----------------------
   0 C :   -0.458241
   1 C :   -0.252908
   2 C :    0.359053
   3 O :   -0.429933
   4 O :   -0.166059
   5 C :   -0.152576
   6 C :   -0.440852
   7 H :    0.144474
   8 H :    0.158221
   9 H :    0.151725
  10 H :    0.158442
  11 H :    0.158931
  12 H :    0.174799
  13 H :    0.144391
  14 H :    0.146617
  15 H :    0.152241
  16 H :    0.151675
Sum of atomic charges:   -0.0000000

LOEWDIN ATOMIC CHARGES
----------------------
   0 C :   -0.402547
   1 C :   -0.240708
   2 C :    0.362016
   3 O :   -0.434717
   4 O :   -0.600325
   5 C :    0.032328
   6 C :   -0.387141
   7 H :    0.150118
   8 H :    0.163186
   9 H :    0.159786
  10 H :    0.178504
  11 H :    0.179761
  12 H :    0.189182
  13 H :    0.174078
  14 H :    0.159178
  15 H :    0.158816
  16 H :    0.158484

  Mayer bond orders larger than 0.100000
B(  0-C ,  1-C ) :   0.9378 B(  0-C ,  7-H ) :   0.9721 B(  0-C ,  8-H ) :   0.9716
B(  0-C ,  9-H ) :   0.9751 B(  1-C ,  2-C ) :   0.9977 B(  1-C , 10-H ) :   0.9481
B(  1-C , 11-H ) :   0.9340 B(  2-C ,  3-O ) :   1.8393 B(  2-C ,  4-O ) :   1.0955
B(  4-O ,  5-C ) :   0.7836 B(  5-C ,  6-C ) :   0.9479 B(  5-C , 12-H ) :   0.9652
B(  5-C , 13-H ) :   0.9454 B(  6-C , 14-H ) :   0.9679 B(  6-C , 15-H ) :   0.9691
B(  6-C , 16-H ) :   0.9744

Dispersion correction           -0.003826751
FINAL SINGLE POINT ENERGY      -346.937066634349

DIPOLE MOMENT
-------------

Method             : SCF
Type of density    : Electron Density
Multiplicity       :   1
Irrep              :   0
Energy             :  -346.9436553630270623 Eh
Relativity type    :
Basis              : AO
                                X                 Y                 Z
Electronic contribution:     -0.240619602      -1.569378917      -1.788667808
Nuclear contribution   :      0.638263955       2.229400869       2.065295574
                        -----------------------------------------
Total Dipole Moment    :      0.397644353       0.660021952       0.276627766
                        -----------------------------------------
Magnitude (a.u.)       :      0.818701979
Magnitude (Debye)      :      2.080975052

Rotational constants in cm-1:             0.252801             0.042714             0.038207
Rotational constants in MHz :          7578.791528          1280.529483          1145.403276

                             ****ORCA TERMINATED NORMALLY****
TOTAL RUN TIME: 0 days 0 hours 0 minutes 23 seconds 41 msec
