                         Program Version 6.0.0  -   RELEASE  -
|  1> ! r2scan-3c def2/J RI DEFGRID2 scfconv6 printgap
|  2> %output
|  3>     printlevel normal
|  4> end
|  5> %cpcm
|  6>     smd true
|  7>     smdsolvent "water"
|  8> end
|  9> * xyz 0 1
| 10> C -2.9700668633 -0.0021990105 0.1899153312
| 11> C -1.6453454614 0.7460721732 0.2425288716
| 12> C -0.4823288365 -0.1260978485 -0.155623714
| 13> O -0.5658112235 -1.2533545338 -0.5956444802
| 14> O 0.6727615973 0.502216329 0.0339001116
| 15> C 1.8930754975 -0.1851288444 -0.2929250759
| 16> C 3.005253158 0.3675106265 0.5789069244
| 17> H -3.7866999636 0.6639460029 0.4500315382
| 18> H -3.1382067945 -0.398583568 -0.8081006709
| 19> H -2.9602816511 -0.8387136599 0.8838369475
| 20> H -1.4466218498 1.1316356714 1.2433095711
| 21> H -1.6563787206 1.5991348078 -0.4388883511
| 22> H 1.741170971 -1.2575551253 -0.1333357376
| 23> H 2.0985951409 -0.0158777442 -1.3545680284
| 24> H 3.9391854249 -0.1206784515 0.3207408452
| 25> H 3.1024142994 1.4372868872 0.4199163625
| 26> H 2.7854636792 0.1876120563 1.6273501885
| 27> *
| 28>
| 29>                          ****END OF INPUT****

CARTESIAN COORDINATES (ANGSTROEM)
---------------------------------
  C     -2.970067   -0.002199    0.189915
  C     -1.645345    0.746072    0.242529
  C     -0.482329   -0.126098   -0.155624
  O     -0.565811   -1.253355   -0.595644
  O      0.672762    0.502216    0.033900
  C      1.893075   -0.185129   -0.292925
  C      3.005253    0.367511    0.578907
  H     -3.786700    0.663946    0.450032
  H     -3.138207   -0.398584   -0.808101
  H     -2.960282   -0.838714    0.883837
  H     -1.446622    1.131636    1.243310
  H     -1.656379    1.599135   -0.438888
  H      1.741171   -1.257555   -0.133336
  H      2.098595   -0.015878   -1.354568
  H      3.939185   -0.120678    0.320741
  H      3.102414    1.437287    0.419916
  H      2.785464    0.187612    1.627350

 Total Charge           Charge          ....    0
 Multiplicity           Mult            ....    1
 Number of Electrons    NEL             ....   56
 Basis Dimension        Dim             ....  193

ORBITAL ENERGIES
----------------

  NO   OCC          E(Eh)            E(eV)
   0   2.0000     -19.000491      -517.0297
   1   2.0000     -18.944191      -515.4976
   2   2.0000     -10.162101      -276.5248
   3   2.0000     -10.082838      -274.3680
   4   2.0000     -10.038214      -273.1537
   5   2.0000     -10.018424      -272.6152
   6   2.0000     -10.016315      -272.5578
   7   2.0000      -1.077457       -29.3191
   8   2.0000      -0.988705       -26.9040
   9   2.0000      -0.759704       -20.6726
  10   2.0000      -0.725413       -19.7395
  11   2.0000      -0.636474       -17.3193
  12   2.0000      -0.581238       -15.8163
  13   2.0000      -0.528013       -14.3680
  14   2.0000      -0.471631       -12.8337
  15   2.0000      -0.463734       -12.6188
  16   2.0000      -0.444649       -12.0995
  17   2.0000      -0.422296       -11.4913
  18   2.0000      -0.384802       -10.4710
  19   2.0000      -0.373411       -10.1610
  20   2.0000      -0.363810        -9.8998
  21   2.0000      -0.339492        -9.2380
  22   2.0000      -0.335357        -9.1255
  23   2.0000      -0.327089        -8.9005
  24   2.0000      -0.314589        -8.5604
  25   2.0000      -0.310211        -8.4413
  26   2.0000      -0.275494        -7.4966
  27   2.0000      -0.252427        -6.8689
  28   0.0000      -0.019978        -0.5436
  29   0.0000       0.080196         2.1823
  30   0.0000       0.099475         2.7069
  31   0.0000       0.119234         3.2445
  32   0.0000       0.138148         3.7592

MULLIKEN ATOMIC CHARGES
-----------------------
   0 C :   -0.517842
   1 C :   -0.248954
   2 C :    0.397245
   3 O :   -0.514497
   4 O :   -0.185033
   5 C :   -0.149080
   6 C :   -0.486538
   7 H :    0.165601
   8 H :    0.162317
   9 H :    0.163912
  10 H :    0.183173
  11 H :    0.188102
  12 H :    0.174387
  13 H :    0.170000
  14 H :    0.168124
  15 H :    0.164167
  16 H :    0.164915
Sum of atomic charges:   -0.0000000

LOEWDIN ATOMIC CHARGES
----------------------
   0 C :   -0.409724
   1 C :   -0.236420
   2 C :    0.373791
   3 O :   -0.495464
   4 O :   -0.602926
   5 C :    0.035770
   6 C :   -0.390403
   7 H :    0.158888
   8 H :    0.160997
   9 H :    0.160030
  10 H :    0.189246
  11 H :    0.191680
  12 H :    0.189755
  13 H :    0.183228
  14 H :    0.167810
  15 H :    0.162094
  16 H :    0.161646

  Mayer bond orders larger than 0.100000
B(  0-C ,  1-C ) :   0.9009 B(  0-C ,  7-H ) :   0.9648 B(  0-C ,  8-H ) :   0.9747
B(  0-C ,  9-H ) :   0.9782 B(  1-C ,  2-C ) :   1.0065 B(  1-C , 10-H ) :   0.9366
B(  1-C , 11-H ) :   0.9217 B(  2-C ,  3-O ) :   1.7743 B(  2-C ,  4-O ) :   1.1211
B(  4-O ,  5-C ) :   0.7719 B(  5-C ,  6-C ) :   0.9442 B(  5-C , 12-H ) :   0.9605
B(  5-C , 13-H ) :   0.9369 B(  6-C , 14-H ) :   0.9615 B(  6-C , 15-H ) :   0.9664
B(  6-C , 16-H ) :   0.9728

Dispersion correction           -0.003826751
FINAL SINGLE POINT ENERGY      -346.942411784455

DIPOLE MOMENT
-------------

Method             : SCF
Type of density    : Electron Density
Multiplicity       :   1
Irrep              :   0
Energy             :  -346.9490005131333419 Eh
Relativity type    :
Basis              : AO
                                X                 Y                 Z
Electronic contribution:     -0.113769297      -1.248542651      -1.675254380
Nuclear contribution   :      0.638263955       2.229400869       2.065295574
                        -----------------------------------------
Total Dipole Moment    :      0.524494658       0.980858218       0.390041194
                        -----------------------------------------
Magnitude (a.u.)       :      1.178689791
Magnitude (Debye)      :      2.995991353

Rotational constants in cm-1:             0.252801             0.042714             0.038207
Rotational constants in MHz :          7578.791528          1280.529483          1145.403276

                             ****ORCA TERMINATED NORMALLY****
TOTAL RUN TIME: 0 days 0 hours 0 minutes 26 seconds 597 msec
