                         Program Version 6.0.0  -   RELEASE  -
|  1> ! pbe def2-sv(p) def2/J RI DEFGRID1 loosescf d4 GCP(DFT/SV(P)) printgap
|  2> %output
|  3>     printlevel normal
|  4> end
|  5> * xyz 0 1
|  6> C -1.4463179825 0.3665832581 -0.2206333573
|  7> C 0.0157479074 0.4226290708 0.2679229317
|  8> C 0.8434038667 -0.6500505012 -0.4543456054
|  9> O 2.0679350481 -0.9446707835 0.1706421054
| 10> O 0.591757341 1.6817062457 -0.0018022932
| 11> O -2.0766195145 -0.8527836262 0.0845064753
| 12> H -1.458303396 0.4531806902 -1.3095651599
| 13> H -2.0059717499 1.2113582238 0.2001031816
| 14> H 0.0445496279 0.2212131864 1.3514079702
| 15> H 1.0999680327 -0.2734009204 -1.4464702517
| 16> H 0.2286763001 -1.5528223126 -0.5586680244
| 17> H 1.9011923447 -1.3314888463 1.041936852
| 18> H 0.1436200933 2.3703144165 0.5095639831
| 19> H -2.2123171477 -0.9193103977 1.0407606647
| 20> *
| 21>
| 22>                          ****END OF INPUT****

CARTESIAN COORDINATES (ANGSTROEM)
---------------------------------
  C     -1.446318    0.366583   -0.220633
  C      0.015748    0.422629    0.267923
  C      0.843404   -0.650051   -0.454346
  O      2.067935   -0.944671    0.170642
  O      0.591757    1.681706   -0.001802
  O     -2.076620   -0.852784    0.084506
  H     -1.458303    0.453181   -1.309565
  H     -2.005972    1.211358    0.200103
  H      0.044550    0.221213    1.351408
  H      1.099968   -0.273401   -1.446470
  H      0.228676   -1.552822   -0.558668
  H      1.901192   -1.331489    1.041937
  H      0.143620    2.370314    0.509564
  H     -2.212317   -0.919310    1.040761

 Total Charge           Charge          ....    0
 Multiplicity           Mult            ....    1
 Number of Electrons    NEL             ....   50
 Basis Dimension        Dim             ....  100

ORBITAL ENERGIES
----------------

  NO   OCC          E(Eh)            E(eV)
   0   2.0000     -18.758146      -510.4351
   1   2.0000     -18.751089      -510.2431
   2   2.0000     -18.736573      -509.8481
   3   2.0000      -9.940191      -270.4864
   4   2.0000      -9.936091      -270.3748
   5   2.0000      -9.922676      -270.0097
   6   2.0000      -0.938290       -25.5322
   7   2.0000      -0.926105       -25.2006
   8   2.0000      -0.909847       -24.7582
   9   2.0000      -0.679927       -18.5018
  10   2.0000      -0.604928       -16.4609
  11   2.0000      -0.546158       -14.8617
  12   2.0000      -0.482127       -13.1193
  13   2.0000      -0.471706       -12.8358
  14   2.0000      -0.448866       -12.2143
  15   2.0000      -0.393511       -10.7080
  16   2.0000      -0.379867       -10.3367
  17   2.0000      -0.370708       -10.0875
  18   2.0000      -0.352599        -9.5947
  19   2.0000      -0.304409        -8.2834
  20   2.0000      -0.286527        -7.7968
  21   2.0000      -0.266360        -7.2480
  22   2.0000      -0.248188        -6.7535
  23   2.0000      -0.216285        -5.8854
  24   2.0000      -0.201105        -5.4723
  25   0.0000       0.011268         0.3066
  26   0.0000       0.024604         0.6695
  27   0.0000       0.035694         0.9713
  28   0.0000       0.073089         1.9888
  29   0.0000       0.094631         2.5750

MULLIKEN ATOMIC CHARGES
-----------------------
   0 C :    0.005712
   1 C :   -0.025410
   2 C :    0.041019
   3 O :   -0.430853
   4 O :   -0.412542
   5 O :   -0.425697
   6 H :    0.095354
   7 H :    0.065142
   8 H :    0.029699
   9 H :    0.091306
  10 H :    0.084347
  11 H :    0.289678
  12 H :    0.295767
  13 H :    0.296479
Sum of atomic charges:   -0.0000000

LOEWDIN ATOMIC CHARGES
----------------------
   0 C :   -0.141918
   1 C :   -0.100848
   2 C :   -0.132354
   3 O :   -0.334193
   4 O :   -0.319573
   5 O :   -0.330298
   6 H :    0.119405
   7 H :    0.091083
   8 H :    0.082585
   9 H :    0.121204
  10 H :    0.100444
  11 H :    0.278329
  12 H :    0.282777
  13 H :    0.283357

  Mayer bond orders larger than 0.100000
B(  0-C ,  1-C ) :   1.0010 B(  0-C ,  5-O ) :   1.0492 B(  0-C ,  6-H ) :   0.9178
B(  0-C ,  7-H ) :   0.9224 B(  1-C ,  2-C ) :   1.0248 B(  1-C ,  4-O ) :   1.0643
B(  1-C ,  8-H ) :   0.8996 B(  2-C ,  3-O ) :   1.0801 B(  2-C ,  9-H ) :   0.9101
B(  2-C , 10-H ) :   0.9186 B(  3-O , 11-H ) :   0.8560 B(  4-O , 12-H ) :   0.8490
B(  5-O , 13-H ) :   0.8517

Dispersion correction           -0.008979013
FINAL SINGLE POINT ENERGY      -344.002334770056

DIPOLE MOMENT
-------------

Method             : SCF
Type of density    : Electron Density
Multiplicity       :   1
Irrep              :   0
Energy             :  -344.0749739314666726 Eh
Relativity type    :
Basis              : AO
                                X                 Y                 Z
Electronic contribution:      1.259670590       0.073580512       0.363771466
Nuclear contribution   :     -2.110285744       0.166255337       0.781573195
                        -----------------------------------------
Total Dipole Moment    :     -0.850615155       0.239835849       1.145344661
                        -----------------------------------------
Magnitude (a.u.)       :      1.446679567
Magnitude (Debye)      :      3.677167229

Rotational constants in cm-1:             0.159990             0.081878             0.059085
Rotational constants in MHz :          4796.381426          2454.640008          1771.320483

                             ****ORCA TERMINATED NORMALLY****
TOTAL RUN TIME: 0 days 0 hours 0 minutes 6 seconds 740 msec
