                         Program Version 6.0.0  -   RELEASE  -
|  1> ! r2scan-3c def2/J RI DEFGRID2 scfconv6 printgap
|  2> %output
|  3>     printlevel normal
|  4> end
|  5> * xyz 0 1
|  6> C 4.8909147586 -0.5679627265 -1.1834662098
|  7> C 4.5422997918 -0.3956797118 0.2974504043
|  8> C 3.2473789836 0.374253482 0.4458902104
|  9> O 3.2143762308 1.5549640756 0.7531853118
| 10> N 2.146236855 -0.3798432012 0.1772565038
| 11> C 0.8059641706 -0.0080811856 0.1670724899
| 12> C 0.3703725774 1.2845797553 0.4556083576
| 13> C -0.9771040506 1.5858802583 0.4280495439
| 14> C -1.9100765815 0.6101521104 0.114388346
| 15> C -1.4815483844 -0.6799219853 -0.1743506689
| 16> C -0.1351282784 -0.9896893783 -0.1492307679
| 17> Cl -2.6335936694 -1.913341018 -0.5684291805
| 18> Cl -3.6011136592 0.9997525311 0.0839025117
| 19> H 5.8426363703 -1.0826536104 -1.2793702023
| 20> H 4.9748748427 0.4042421309 -1.6632646826
| 21> H 4.1307308225 -1.1436763013 -1.704226194
| 22> H 5.3271852816 0.1759658866 0.7926480754
| 23> H 4.4563993843 -1.369485728 0.779280699
| 24> H 2.3144846169 -1.3497607883 -0.0596874578
| 25> H 1.0903383854 2.0471761754 0.7005881348
| 26> H -1.3130550577 2.5847767109 0.6510710753
| 27> H 0.1726673308 -1.9973177811 -0.3767018705
| 28> *
| 29>
| 30>                          ****END OF INPUT****

CARTESIAN COORDINATES (ANGSTROEM)
---------------------------------
  C      4.890915   -0.567963   -1.183466
  C      4.542300   -0.395680    0.297450
  C      3.247379    0.374253    0.445890
  O      3.214376    1.554964    0.753185
  N      2.146237   -0.379843    0.177257
  C      0.805964   -0.008081    0.167072
  C      0.370373    1.284580    0.455608
  C     -0.977104    1.585880    0.428050
  C     -1.910077    0.610152    0.114388
  C     -1.481548   -0.679922   -0.174351
  C     -0.135128   -0.989689   -0.149231
  Cl    -2.633594   -1.913341   -0.568429
  Cl    -3.601114    0.999753    0.083903
  H      5.842636   -1.082654   -1.279370
  H      4.974875    0.404242   -1.663265
  H      4.130731   -1.143676   -1.704226
  H      5.327185    0.175966    0.792648
  H      4.456399   -1.369486    0.779281
  H      2.314485   -1.349761   -0.059687
  H      1.090338    2.047176    0.700588
  H     -1.313055    2.584777    0.651071
  H      0.172667   -1.997318   -0.376702

 Total Charge           Charge          ....    0
 Multiplicity           Mult            ....    1
 Number of Electrons    NEL             ....  112
 Basis Dimension        Dim             ....  318

ORBITAL ENERGIES
----------------

  NO   OCC          E(Eh)            E(eV)
   0   2.0000    -101.230250     -2754.6152
   1   2.0000    -101.224944     -2754.4708
   2   2.0000     -18.931902      -515.1632
   3   2.0000     -14.223486      -387.0407
   4   2.0000     -10.148061      -276.1428
   5   2.0000     -10.118657      -275.3427
   6   2.0000     -10.110473      -275.1200
   7   2.0000     -10.106550      -275.0132
   8   2.0000     -10.065428      -273.8942
   9   2.0000     -10.060366      -273.7565
  10   2.0000     -10.055860      -273.6339
  11   2.0000     -10.048912      -273.4448
  12   2.0000     -10.045799      -273.3601
  13   2.0000      -9.385973      -255.4053
  14   2.0000      -9.380613      -255.2594
  15   2.0000      -7.132442      -194.0836
  16   2.0000      -7.127073      -193.9375
  17   2.0000      -7.122233      -193.8058
  18   2.0000      -7.121547      -193.7872
  19   2.0000      -7.116857      -193.6595
  20   2.0000      -7.116217      -193.6421
  21   2.0000      -1.021162       -27.7872
  22   2.0000      -0.934998       -25.4426
  23   2.0000      -0.888275       -24.1712
  24   2.0000      -0.827625       -22.5208
  25   2.0000      -0.813116       -22.1260
  26   2.0000      -0.767467       -20.8839
  27   2.0000      -0.731908       -19.9162
  28   2.0000      -0.708512       -19.2796
  29   2.0000      -0.642013       -17.4701
  30   2.0000      -0.616438       -16.7741
  31   2.0000      -0.600978       -16.3534
  32   2.0000      -0.552071       -15.0226
  33   2.0000      -0.529435       -14.4067
  34   2.0000      -0.480107       -13.0644
  35   2.0000      -0.471795       -12.8382
  36   2.0000      -0.455813       -12.4033
  37   2.0000      -0.439145       -11.9497
  38   2.0000      -0.431830       -11.7507
  39   2.0000      -0.422660       -11.5012
  40   2.0000      -0.418243       -11.3810
  41   2.0000      -0.404492       -11.0068
  42   2.0000      -0.394206       -10.7269
  43   2.0000      -0.375889       -10.2285
  44   2.0000      -0.364615        -9.9217
  45   2.0000      -0.356547        -9.7021
  46   2.0000      -0.353492        -9.6190
  47   2.0000      -0.340968        -9.2782
  48   2.0000      -0.327058        -8.8997
  49   2.0000      -0.325652        -8.8614
  50   2.0000      -0.304255        -8.2792
  51   2.0000      -0.281988        -7.6733
  52   2.0000      -0.281746        -7.6667
  53   2.0000      -0.246866        -6.7176
  54   2.0000      -0.232069        -6.3149
  55   2.0000      -0.215567        -5.8659
  56   0.0000      -0.060681        -1.6512
  57   0.0000      -0.055820        -1.5189
  58   0.0000      -0.022980        -0.6253
  59   0.0000      -0.003103        -0.0844
  60   0.0000       0.039607         1.0778

MULLIKEN ATOMIC CHARGES
-----------------------
   0 C :   -0.452312
   1 C :   -0.358288
   2 C :    0.349024
   3 O :   -0.441135
   4 N :   -0.068729
   5 C :    0.231523
   6 C :   -0.176285
   7 C :   -0.228793
   8 C :    0.125080
   9 C :    0.137211
  10 C :   -0.442249
  11 Cl:   -0.115064
  12 Cl:   -0.119651
  13 H :    0.158653
  14 H :    0.163820
  15 H :    0.135947
  16 H :    0.175391
  17 H :    0.146656
  18 H :    0.255291
  19 H :    0.209608
  20 H :    0.165204
  21 H :    0.149099
Sum of atomic charges:   -0.0000000

LOEWDIN ATOMIC CHARGES
----------------------
   0 C :   -0.394129
   1 C :   -0.245159
   2 C :    0.339043
   3 O :   -0.455119
   4 N :   -0.591094
   5 C :    0.159874
   6 C :   -0.115612
   7 C :   -0.148982
   8 C :   -0.192560
   9 C :   -0.172837
  10 C :   -0.144753
  11 Cl:    0.149125
  12 Cl:    0.141812
  13 H :    0.155145
  14 H :    0.162909
  15 H :    0.149015
  16 H :    0.180108
  17 H :    0.164351
  18 H :    0.284150
  19 H :    0.210721
  20 H :    0.183069
  21 H :    0.180923

  Mayer bond orders larger than 0.100000
B(  0-C ,  1-C ) :   0.9168 B(  0-C , 13-H ) :   0.9706 B(  0-C , 14-H ) :   0.9705
B(  0-C , 15-H ) :   0.9763 B(  1-C ,  2-C ) :   0.9027 B(  1-C , 16-H ) :   0.9703
B(  1-C , 17-H ) :   0.9837 B(  2-C ,  3-O ) :   1.8302 B(  2-C ,  4-N ) :   1.0424
B(  4-N ,  5-C ) :   1.0418 B(  4-N , 18-H ) :   0.9188 B(  5-C ,  6-C ) :   1.4063
B(  5-C , 10-C ) :   1.2501 B(  6-C ,  7-C ) :   1.3161 B(  6-C , 19-H ) :   0.9301
B(  7-C ,  8-C ) :   1.3093 B(  7-C , 20-H ) :   0.9553 B(  8-C ,  9-C ) :   1.2890
B(  8-C , 12-Cl) :   1.0365 B(  9-C , 10-C ) :   1.3555 B(  9-C , 11-Cl) :   1.0071
B( 10-C , 21-H ) :   0.9198

Dispersion correction           -0.009072199
FINAL SINGLE POINT ENERGY     -1398.617477096784

DIPOLE MOMENT
-------------

Method             : SCF
Type of density    : Electron Density
Multiplicity       :   1
Irrep              :   0
Energy             : -1398.6215700793882206 Eh
Relativity type    :
Basis              : AO
                                X                 Y                 Z
Electronic contribution:    -32.582730695      -0.665592256       1.083798072
Nuclear contribution   :     33.754829341      -0.376578647      -1.363681579
                        -----------------------------------------
Total Dipole Moment    :      1.172098646      -1.042170903      -0.279883507
                        -----------------------------------------
Magnitude (a.u.)       :      1.593194968
Magnitude (Debye)      :      4.049579782

Rotational constants in cm-1:             0.046653             0.009110             0.007806
Rotational constants in MHz :          1398.618855           273.119527           234.004519

                             ****ORCA TERMINATED NORMALLY****
TOTAL RUN TIME: 0 days 0 hours 0 minutes 46 seconds 164 msec
