                         Program Version 6.0.0  -   RELEASE  -
|  1> ! r2scan-3c def2/J RI DEFGRID2 scfconv6 printgap
|  2> %output
|  3>     printlevel normal
|  4> end
|  5> %cpcm
|  6>     smd true
|  7>     smdsolvent "water"
|  8> end
|  9> * xyz 0 1
| 10> C 4.8909147586 -0.5679627265 -1.1834662098
| 11> C 4.5422997918 -0.3956797118 0.2974504043
| 12> C 3.2473789836 0.374253482 0.4458902104
| 13> O 3.2143762308 1.5549640756 0.7531853118
| 14> N 2.146236855 -0.3798432012 0.1772565038
| 15> C 0.8059641706 -0.0080811856 0.1670724899
| 16> C 0.3703725774 1.2845797553 0.4556083576
| 17> C -0.9771040506 1.5858802583 0.4280495439
| 18> C -1.9100765815 0.6101521104 0.114388346
| 19> C -1.4815483844 -0.6799219853 -0.1743506689
| 20> C -0.1351282784 -0.9896893783 -0.1492307679
| 21> Cl -2.6335936694 -1.913341018 -0.5684291805
| 22> Cl -3.6011136592 0.9997525311 0.0839025117
| 23> H 5.8426363703 -1.0826536104 -1.2793702023
| 24> H 4.9748748427 0.4042421309 -1.6632646826
| 25> H 4.1307308225 -1.1436763013 -1.704226194
| 26> H 5.3271852816 0.1759658866 0.7926480754
| 27> H 4.4563993843 -1.369485728 0.779280699
| 28> H 2.3144846169 -1.3497607883 -0.0596874578
| 29> H 1.0903383854 2.0471761754 0.7005881348
| 30> H -1.3130550577 2.5847767109 0.6510710753
| 31> H 0.1726673308 -1.9973177811 -0.3767018705
| 32> *
| 33>
| 34>                          ****END OF INPUT****

CARTESIAN COORDINATES (ANGSTROEM)
---------------------------------
  C      4.890915   -0.567963   -1.183466
  C      4.542300   -0.395680    0.297450
  C      3.247379    0.374253    0.445890
  O      3.214376    1.554964    0.753185
  N      2.146237   -0.379843    0.177257
  C      0.805964   -0.008081    0.167072
  C      0.370373    1.284580    0.455608
  C     -0.977104    1.585880    0.428050
  C     -1.910077    0.610152    0.114388
  C     -1.481548   -0.679922   -0.174351
  C     -0.135128   -0.989689   -0.149231
  Cl    -2.633594   -1.913341   -0.568429
  Cl    -3.601114    0.999753    0.083903
  H      5.842636   -1.082654   -1.279370
  H      4.974875    0.404242   -1.663265
  H      4.130731   -1.143676   -1.704226
  H      5.327185    0.175966    0.792648
  H      4.456399   -1.369486    0.779281
  H      2.314485   -1.349761   -0.059687
  H      1.090338    2.047176    0.700588
  H     -1.313055    2.584777    0.651071
  H      0.172667   -1.997318   -0.376702

 Total Charge           Charge          ....    0
 Multiplicity           Mult            ....    1
 Number of Electrons    NEL             ....  112
 Basis Dimension        Dim             ....  318

ORBITAL ENERGIES
----------------

  NO   OCC          E(Eh)            E(eV)
   0   2.0000    -101.231871     -2754.6592
   1   2.0000    -101.229067     -2754.5830
   2   2.0000     -18.935643      -515.2650
   3   2.0000     -14.209310      -386.6550
   4   2.0000     -10.144898      -276.0567
   5   2.0000     -10.115590      -275.2592
   6   2.0000     -10.108734      -275.0726
   7   2.0000     -10.099390      -274.8184
   8   2.0000     -10.055532      -273.6249
   9   2.0000     -10.055488      -273.6237
  10   2.0000     -10.044939      -273.3367
  11   2.0000     -10.035471      -273.0790
  12   2.0000     -10.021641      -272.7027
  13   2.0000      -9.387718      -255.4528
  14   2.0000      -9.384875      -255.3754
  15   2.0000      -7.134058      -194.1276
  16   2.0000      -7.131177      -194.0492
  17   2.0000      -7.124045      -193.8551
  18   2.0000      -7.123333      -193.8358
  19   2.0000      -7.121181      -193.7772
  20   2.0000      -7.120551      -193.7600
  21   2.0000      -1.022884       -27.8341
  22   2.0000      -0.925426       -25.1821
  23   2.0000      -0.887117       -24.1397
  24   2.0000      -0.829265       -22.5654
  25   2.0000      -0.809231       -22.0203
  26   2.0000      -0.750863       -20.4320
  27   2.0000      -0.725179       -19.7331
  28   2.0000      -0.702627       -19.1194
  29   2.0000      -0.628372       -17.0989
  30   2.0000      -0.608179       -16.5494
  31   2.0000      -0.588024       -16.0009
  32   2.0000      -0.542674       -14.7669
  33   2.0000      -0.518380       -14.1058
  34   2.0000      -0.473397       -12.8818
  35   2.0000      -0.466154       -12.6847
  36   2.0000      -0.447348       -12.1730
  37   2.0000      -0.430595       -11.7171
  38   2.0000      -0.424640       -11.5550
  39   2.0000      -0.412019       -11.2116
  40   2.0000      -0.404630       -11.0105
  41   2.0000      -0.402509       -10.9528
  42   2.0000      -0.392793       -10.6885
  43   2.0000      -0.372444       -10.1347
  44   2.0000      -0.353188        -9.6107
  45   2.0000      -0.346820        -9.4374
  46   2.0000      -0.338243        -9.2041
  47   2.0000      -0.329437        -8.9644
  48   2.0000      -0.322822        -8.7844
  49   2.0000      -0.317894        -8.6503
  50   2.0000      -0.306482        -8.3398
  51   2.0000      -0.285281        -7.7629
  52   2.0000      -0.281531        -7.6608
  53   2.0000      -0.244132        -6.6432
  54   2.0000      -0.235377        -6.4049
  55   2.0000      -0.212579        -5.7846
  56   0.0000      -0.056570        -1.5393
  57   0.0000      -0.052547        -1.4299
  58   0.0000      -0.022181        -0.6036
  59   0.0000       0.002281         0.0621
  60   0.0000       0.039467         1.0739

MULLIKEN ATOMIC CHARGES
-----------------------
   0 C :   -0.500033
   1 C :   -0.335303
   2 C :    0.359288
   3 O :   -0.535637
   4 N :   -0.083784
   5 C :    0.207552
   6 C :   -0.229351
   7 C :   -0.252893
   8 C :    0.118577
   9 C :    0.142948
  10 C :   -0.415160
  11 Cl:   -0.131836
  12 Cl:   -0.141558
  13 H :    0.171639
  14 H :    0.164017
  15 H :    0.165902
  16 H :    0.175236
  17 H :    0.175805
  18 H :    0.331085
  19 H :    0.217012
  20 H :    0.198285
  21 H :    0.198209
Sum of atomic charges:   -0.0000000

LOEWDIN ATOMIC CHARGES
----------------------
   0 C :   -0.397373
   1 C :   -0.239383
   2 C :    0.344854
   3 O :   -0.529238
   4 N :   -0.559314
   5 C :    0.160205
   6 C :   -0.127078
   7 C :   -0.152040
   8 C :   -0.202192
   9 C :   -0.179835
  10 C :   -0.127808
  11 Cl:    0.135163
  12 Cl:    0.124123
  13 H :    0.160081
  14 H :    0.160560
  15 H :    0.158833
  16 H :    0.178862
  17 H :    0.180136
  18 H :    0.306266
  19 H :    0.209816
  20 H :    0.194177
  21 H :    0.201186

  Mayer bond orders larger than 0.100000
B(  0-C ,  1-C ) :   0.8953 B(  0-C , 13-H ) :   0.9656 B(  0-C , 14-H ) :   0.9695
B(  0-C , 15-H ) :   0.9756 B(  1-C ,  2-C ) :   0.9179 B(  1-C , 16-H ) :   0.9754
B(  1-C , 17-H ) :   0.9639 B(  2-C ,  3-O ) :   1.7509 B(  2-C ,  4-N ) :   1.0761
B(  4-N ,  5-C ) :   1.0248 B(  4-N , 18-H ) :   0.8908 B(  5-C ,  6-C ) :   1.3343
B(  5-C , 10-C ) :   1.3235 B(  6-C ,  7-C ) :   1.3505 B(  6-C , 19-H ) :   0.9403
B(  7-C ,  8-C ) :   1.2956 B(  7-C , 20-H ) :   0.9474 B(  8-C ,  9-C ) :   1.2525
B(  8-C , 12-Cl) :   1.0233 B(  9-C , 10-C ) :   1.3080 B(  9-C , 11-Cl) :   1.0135
B( 10-C , 21-H ) :   0.9271

Dispersion correction           -0.009072199
FINAL SINGLE POINT ENERGY     -1398.630458714165

DIPOLE MOMENT
-------------

Method             : SCF
Type of density    : Electron Density
Multiplicity       :   1
Irrep              :   0
Energy             : -1398.6345516967687672 Eh
Relativity type    :
Basis              : AO
                                X                 Y                 Z
Electronic contribution:    -32.247924991      -1.362313627       0.937269937
Nuclear contribution   :     33.754829341      -0.376578647      -1.363681579
                        -----------------------------------------
Total Dipole Moment    :      1.506904350      -1.738892274      -0.426411642
                        -----------------------------------------
Magnitude (a.u.)       :      2.340156822
Magnitude (Debye)      :      5.948205929

Rotational constants in cm-1:             0.046653             0.009110             0.007806
Rotational constants in MHz :          1398.618855           273.119527           234.004519

                             ****ORCA TERMINATED NORMALLY****
TOTAL RUN TIME: 0 days 0 hours 0 minutes 57 seconds 144 msec
