                         Program Version 6.0.0  -   RELEASE  -
|  1> ! r2scan-3c def2/J RI DEFGRID2 scfconv6 printgap
|  2> %output
|  3>     printlevel normal
|  4> end
|  5> * xyz 0 1
|  6> C -3.2481602923 0.4804631466 0.053258249
|  7> C -1.940683346 -0.3002237513 0.026697867
|  8> C -0.7317162318 0.6348473951 0.0046689901
|  9> C 0.5623385248 -0.119138707 -0.1509351853
| 10> O 0.6930395448 -1.1682468001 -0.7457574465
| 11> O 1.565129598 0.5239674132 0.438162917
| 12> C 2.8851457452 -0.0250971119 0.3636719289
| 13> H -4.0929839424 -0.2019511451 0.0834429268
| 14> H -3.2907662641 1.1209637124 0.9304800587
| 15> H -3.3394519029 1.1024482024 -0.833547683
| 16> H -1.9027949641 -0.9419963135 -0.8553170708
| 17> H -1.8782682774 -0.9464060359 0.904386682
| 18> H -0.6754793423 1.2414104284 0.9083760102
| 19> H -0.8103425641 1.310876713 -0.8509040638
| 20> H 2.8998119828 -0.8590531272 -0.3388092644
| 21> H 3.1688935795 -0.3658284562 1.3582039378
| 22> H 3.5465028867 0.7723890863 0.0328240332
| 23> *
| 24>
| 25>                          ****END OF INPUT****

CARTESIAN COORDINATES (ANGSTROEM)
---------------------------------
  C     -3.248160    0.480463    0.053258
  C     -1.940683   -0.300224    0.026698
  C     -0.731716    0.634847    0.004669
  C      0.562339   -0.119139   -0.150935
  O      0.693040   -1.168247   -0.745757
  O      1.565130    0.523967    0.438163
  C      2.885146   -0.025097    0.363672
  H     -4.092984   -0.201951    0.083443
  H     -3.290766    1.120964    0.930480
  H     -3.339452    1.102448   -0.833548
  H     -1.902795   -0.941996   -0.855317
  H     -1.878268   -0.946406    0.904387
  H     -0.675479    1.241410    0.908376
  H     -0.810343    1.310877   -0.850904
  H      2.899812   -0.859053   -0.338809
  H      3.168894   -0.365828    1.358204
  H      3.546503    0.772389    0.032824

 Total Charge           Charge          ....    0
 Multiplicity           Mult            ....    1
 Number of Electrons    NEL             ....   56
 Basis Dimension        Dim             ....  193

ORBITAL ENERGIES
----------------

  NO   OCC          E(Eh)            E(eV)
   0   2.0000     -18.998926      -516.9871
   1   2.0000     -18.929394      -515.0950
   2   2.0000     -10.153701      -276.2962
   3   2.0000     -10.084829      -274.4222
   4   2.0000     -10.042650      -273.2744
   5   2.0000     -10.030936      -272.9556
   6   2.0000     -10.020388      -272.6686
   7   2.0000      -1.072173       -29.1753
   8   2.0000      -0.977098       -26.5882
   9   2.0000      -0.770315       -20.9613
  10   2.0000      -0.714129       -19.4324
  11   2.0000      -0.660346       -17.9689
  12   2.0000      -0.570009       -15.5107
  13   2.0000      -0.528133       -14.3712
  14   2.0000      -0.470980       -12.8160
  15   2.0000      -0.461120       -12.5477
  16   2.0000      -0.442653       -12.0452
  17   2.0000      -0.430289       -11.7088
  18   2.0000      -0.396578       -10.7914
  19   2.0000      -0.388216       -10.5639
  20   2.0000      -0.376082       -10.2337
  21   2.0000      -0.344638        -9.3781
  22   2.0000      -0.330948        -9.0056
  23   2.0000      -0.314843        -8.5673
  24   2.0000      -0.310566        -8.4509
  25   2.0000      -0.303389        -8.2556
  26   2.0000      -0.272577        -7.4172
  27   2.0000      -0.239092        -6.5060
  28   0.0000      -0.013759        -0.3744
  29   0.0000       0.070256         1.9118
  30   0.0000       0.092231         2.5097
  31   0.0000       0.105458         2.8697
  32   0.0000       0.129312         3.5188

MULLIKEN ATOMIC CHARGES
-----------------------
   0 C :   -0.464772
   1 C :   -0.234910
   2 C :   -0.317642
   3 C :    0.403165
   4 O :   -0.438596
   5 O :   -0.193722
   6 C :   -0.306978
   7 H :    0.150397
   8 H :    0.139737
   9 H :    0.142848
  10 H :    0.165773
  11 H :    0.139580
  12 H :    0.163168
  13 H :    0.167090
  14 H :    0.189083
  15 H :    0.148434
  16 H :    0.147347
Sum of atomic charges:    0.0000000

LOEWDIN ATOMIC CHARGES
----------------------
   0 C :   -0.421398
   1 C :   -0.294783
   2 C :   -0.230625
   3 C :    0.362098
   4 O :   -0.443043
   5 O :   -0.603144
   6 C :   -0.046959
   7 H :    0.152826
   8 H :    0.149638
   9 H :    0.149946
  10 H :    0.168013
  11 H :    0.156842
  12 H :    0.179052
  13 H :    0.182427
  14 H :    0.192647
  15 H :    0.172721
  16 H :    0.173741

  Mayer bond orders larger than 0.100000
B(  0-C ,  1-C ) :   0.8836 B(  0-C ,  7-H ) :   0.9752 B(  0-C ,  8-H ) :   0.9778
B(  0-C ,  9-H ) :   0.9879 B(  1-C ,  2-C ) :   0.9391 B(  1-C , 10-H ) :   0.9656
B(  1-C , 11-H ) :   0.9624 B(  2-C ,  3-C ) :   1.0031 B(  2-C , 12-H ) :   0.9671
B(  2-C , 13-H ) :   0.9387 B(  3-C ,  4-O ) :   1.8293 B(  3-C ,  5-O ) :   1.0698
B(  5-O ,  6-C ) :   0.8389 B(  6-C , 14-H ) :   0.9686 B(  6-C , 15-H ) :   0.9631
B(  6-C , 16-H ) :   0.9661

Dispersion correction           -0.003888146
FINAL SINGLE POINT ENERGY      -346.930542620074

DIPOLE MOMENT
-------------

Method             : SCF
Type of density    : Electron Density
Multiplicity       :   1
Irrep              :   0
Energy             :  -346.9374606752836030 Eh
Relativity type    :
Basis              : AO
                                X                 Y                 Z
Electronic contribution:      6.103969638      -1.500020203      -0.873547959
Nuclear contribution   :     -5.947222241       2.085237324       1.251772622
                        -----------------------------------------
Total Dipole Moment    :      0.156747396       0.585217121       0.378224663
                        -----------------------------------------
Magnitude (a.u.)       :      0.714214758
Magnitude (Debye)      :      1.815389643

Rotational constants in cm-1:             0.269117             0.040208             0.036411
Rotational constants in MHz :          8067.931895          1205.408113          1091.560453

                             ****ORCA TERMINATED NORMALLY****
TOTAL RUN TIME: 0 days 0 hours 0 minutes 22 seconds 550 msec
