                         Program Version 6.0.0  -   RELEASE  -
|  1> ! r2scan-3c def2/J RI DEFGRID2 scfconv6 printgap
|  2> %output
|  3>     printlevel normal
|  4> end
|  5> %cpcm
|  6>     smd true
|  7>     smdsolvent "water"
|  8> end
|  9> * xyz 0 1
| 10> C -3.2481602923 0.4804631466 0.053258249
| 11> C -1.940683346 -0.3002237513 0.026697867
| 12> C -0.7317162318 0.6348473951 0.0046689901
| 13> C 0.5623385248 -0.119138707 -0.1509351853
| 14> O 0.6930395448 -1.1682468001 -0.7457574465
| 15> O 1.565129598 0.5239674132 0.438162917
| 16> C 2.8851457452 -0.0250971119 0.3636719289
| 17> H -4.0929839424 -0.2019511451 0.0834429268
| 18> H -3.2907662641 1.1209637124 0.9304800587
| 19> H -3.3394519029 1.1024482024 -0.833547683
| 20> H -1.9027949641 -0.9419963135 -0.8553170708
| 21> H -1.8782682774 -0.9464060359 0.904386682
| 22> H -0.6754793423 1.2414104284 0.9083760102
| 23> H -0.8103425641 1.310876713 -0.8509040638
| 24> H 2.8998119828 -0.8590531272 -0.3388092644
| 25> H 3.1688935795 -0.3658284562 1.3582039378
| 26> H 3.5465028867 0.7723890863 0.0328240332
| 27> *
| 28>
| 29>                          ****END OF INPUT****

CARTESIAN COORDINATES (ANGSTROEM)
---------------------------------
  C     -3.248160    0.480463    0.053258
  C     -1.940683   -0.300224    0.026698
  C     -0.731716    0.634847    0.004669
  C      0.562339   -0.119139   -0.150935
  O      0.693040   -1.168247   -0.745757
  O      1.565130    0.523967    0.438163
  C      2.885146   -0.025097    0.363672
  H     -4.092984   -0.201951    0.083443
  H     -3.290766    1.120964    0.930480
  H     -3.339452    1.102448   -0.833548
  H     -1.902795   -0.941996   -0.855317
  H     -1.878268   -0.946406    0.904387
  H     -0.675479    1.241410    0.908376
  H     -0.810343    1.310877   -0.850904
  H      2.899812   -0.859053   -0.338809
  H      3.168894   -0.365828    1.358204
  H      3.546503    0.772389    0.032824

 Total Charge           Charge          ....    0
 Multiplicity           Mult            ....    1
 Number of Electrons    NEL             ....   56
 Basis Dimension        Dim             ....  193

ORBITAL ENERGIES
----------------

  NO   OCC          E(Eh)            E(eV)
   0   2.0000     -19.003772      -517.1189
   1   2.0000     -18.943632      -515.4824
   2   2.0000     -10.162954      -276.5480
   3   2.0000     -10.074682      -274.1460
   4   2.0000     -10.035615      -273.0830
   5   2.0000     -10.025229      -272.8003
   6   2.0000     -10.010814      -272.4081
   7   2.0000      -1.078403       -29.3448
   8   2.0000      -0.989390       -26.9227
   9   2.0000      -0.764903       -20.8141
  10   2.0000      -0.709127       -19.2963
  11   2.0000      -0.652990       -17.7688
  12   2.0000      -0.563694       -15.3389
  13   2.0000      -0.526106       -14.3161
  14   2.0000      -0.471765       -12.8374
  15   2.0000      -0.460424       -12.5288
  16   2.0000      -0.451105       -12.2752
  17   2.0000      -0.425425       -11.5764
  18   2.0000      -0.392242       -10.6734
  19   2.0000      -0.383972       -10.4484
  20   2.0000      -0.371260       -10.1025
  21   2.0000      -0.341219        -9.2850
  22   2.0000      -0.327161        -8.9025
  23   2.0000      -0.313449        -8.5294
  24   2.0000      -0.305580        -8.3152
  25   2.0000      -0.296518        -8.0687
  26   2.0000      -0.278647        -7.5824
  27   2.0000      -0.253932        -6.9098
  28   0.0000      -0.020504        -0.5580
  29   0.0000       0.075257         2.0478
  30   0.0000       0.099318         2.7026
  31   0.0000       0.115411         3.1405
  32   0.0000       0.140211         3.8153

MULLIKEN ATOMIC CHARGES
-----------------------
   0 C :   -0.512158
   1 C :   -0.241973
   2 C :   -0.329827
   3 C :    0.439512
   4 O :   -0.521545
   5 O :   -0.211759
   6 C :   -0.321508
   7 H :    0.160321
   8 H :    0.155221
   9 H :    0.157912
  10 H :    0.155121
  11 H :    0.156156
  12 H :    0.180652
  13 H :    0.199292
  14 H :    0.184691
  15 H :    0.175794
  16 H :    0.174098
Sum of atomic charges:    0.0000000

LOEWDIN ATOMIC CHARGES
----------------------
   0 C :   -0.426581
   1 C :   -0.296580
   2 C :   -0.227756
   3 C :    0.372700
   4 O :   -0.503144
   5 O :   -0.606080
   6 C :   -0.041660
   7 H :    0.155177
   8 H :    0.154455
   9 H :    0.154287
  10 H :    0.162888
  11 H :    0.160135
  12 H :    0.187435
  13 H :    0.194517
  14 H :    0.191414
  15 H :    0.183596
  16 H :    0.185196

  Mayer bond orders larger than 0.100000
B(  0-C ,  1-C ) :   0.8842 B(  0-C ,  7-H ) :   0.9722 B(  0-C ,  8-H ) :   0.9759
B(  0-C ,  9-H ) :   0.9844 B(  1-C ,  2-C ) :   0.9229 B(  1-C , 10-H ) :   0.9661
B(  1-C , 11-H ) :   0.9637 B(  2-C ,  3-C ) :   1.0076 B(  2-C , 12-H ) :   0.9577
B(  2-C , 13-H ) :   0.9262 B(  3-C ,  4-O ) :   1.7693 B(  3-C ,  5-O ) :   1.0938
B(  5-O ,  6-C ) :   0.8262 B(  6-C , 14-H ) :   0.9648 B(  6-C , 15-H ) :   0.9542
B(  6-C , 16-H ) :   0.9567

Dispersion correction           -0.003888146
FINAL SINGLE POINT ENERGY      -346.934726498118

DIPOLE MOMENT
-------------

Method             : SCF
Type of density    : Electron Density
Multiplicity       :   1
Irrep              :   0
Energy             :  -346.9416445533274214 Eh
Relativity type    :
Basis              : AO
                                X                 Y                 Z
Electronic contribution:      6.156146811      -1.182755083      -0.697716353
Nuclear contribution   :     -5.947222241       2.085237324       1.251772622
                        -----------------------------------------
Total Dipole Moment    :      0.208924570       0.902482241       0.554056269
                        -----------------------------------------
Magnitude (a.u.)       :      1.079398916
Magnitude (Debye)      :      2.743614007

Rotational constants in cm-1:             0.269117             0.040208             0.036411
Rotational constants in MHz :          8067.931895          1205.408113          1091.560453

                             ****ORCA TERMINATED NORMALLY****
TOTAL RUN TIME: 0 days 0 hours 0 minutes 29 seconds 696 msec
