                         Program Version 6.0.0  -   RELEASE  -
|  1> ! r2scan-3c def2/J RI DEFGRID2 scfconv6 printgap
|  2> %output
|  3>     printlevel normal
|  4> end
|  5> * xyz 0 1
|  6> C -2.4415964408 -0.112891356 1.0362634565
|  7> C -2.1609929022 0.5572903328 -0.3036645095
|  8> C -0.850994831 0.0802769623 -0.9172424892
|  9> O 0.2401288204 0.5437133507 -0.107608503
| 10> C 1.336233979 -0.1971411924 -0.0238797723
| 11> O 1.4797966828 -1.2516062109 -0.6104449089
| 12> C 2.3553348018 0.423713924 0.8841015903
| 13> H -2.5070336618 -1.1920643073 0.916719019
| 14> H -1.6452473408 0.1083140358 1.7427004316
| 15> H -3.3794627997 0.2476876344 1.4488285735
| 16> H -2.107162848 1.6382396335 -0.1713512907
| 17> H -2.9616805518 0.333142397 -1.0082799238
| 18> H -0.8041096942 -1.0123109131 -0.9736782708
| 19> H -0.7157356131 0.4909333911 -1.922631185
| 20> H 2.4579813793 -0.1992287565 1.7696281096
| 21> H 2.0408073979 1.4224985485 1.1659315453
| 22> H 3.3172393194 0.4473535162 0.3797399834
| 23> *
| 24>
| 25>                          ****END OF INPUT****

CARTESIAN COORDINATES (ANGSTROEM)
---------------------------------
  C     -2.441596   -0.112891    1.036263
  C     -2.160993    0.557290   -0.303665
  C     -0.850995    0.080277   -0.917242
  O      0.240129    0.543713   -0.107609
  C      1.336234   -0.197141   -0.023880
  O      1.479797   -1.251606   -0.610445
  C      2.355335    0.423714    0.884102
  H     -2.507034   -1.192064    0.916719
  H     -1.645247    0.108314    1.742700
  H     -3.379463    0.247688    1.448829
  H     -2.107163    1.638240   -0.171351
  H     -2.961681    0.333142   -1.008280
  H     -0.804110   -1.012311   -0.973678
  H     -0.715736    0.490933   -1.922631
  H      2.457981   -0.199229    1.769628
  H      2.040807    1.422499    1.165932
  H      3.317239    0.447354    0.379740

 Total Charge           Charge          ....    0
 Multiplicity           Mult            ....    1
 Number of Electrons    NEL             ....   56
 Basis Dimension        Dim             ....  193

ORBITAL ENERGIES
----------------

  NO   OCC          E(Eh)            E(eV)
   0   2.0000     -18.997992      -516.9616
   1   2.0000     -18.926334      -515.0117
   2   2.0000     -10.155376      -276.3418
   3   2.0000     -10.087819      -274.5035
   4   2.0000     -10.038815      -273.1700
   5   2.0000     -10.038811      -273.1699
   6   2.0000     -10.022942      -272.7381
   7   2.0000      -1.072535       -29.1852
   8   2.0000      -0.974441       -26.5159
   9   2.0000      -0.769858       -20.9489
  10   2.0000      -0.721293       -19.6274
  11   2.0000      -0.661685       -18.0054
  12   2.0000      -0.580494       -15.7960
  13   2.0000      -0.531850       -14.4724
  14   2.0000      -0.464427       -12.6377
  15   2.0000      -0.458137       -12.4665
  16   2.0000      -0.437709       -11.9107
  17   2.0000      -0.418201       -11.3798
  18   2.0000      -0.411762       -11.2046
  19   2.0000      -0.382033       -10.3956
  20   2.0000      -0.375702       -10.2234
  21   2.0000      -0.357851        -9.7376
  22   2.0000      -0.333769        -9.0823
  23   2.0000      -0.324145        -8.8204
  24   2.0000      -0.320904        -8.7322
  25   2.0000      -0.305044        -8.3007
  26   2.0000      -0.270002        -7.3471
  27   2.0000      -0.235628        -6.4118
  28   0.0000      -0.013744        -0.3740
  29   0.0000       0.070506         1.9186
  30   0.0000       0.097562         2.6548
  31   0.0000       0.115051         3.1307
  32   0.0000       0.121284         3.3003

MULLIKEN ATOMIC CHARGES
-----------------------
   0 C :   -0.467397
   1 C :   -0.220805
   2 C :   -0.184559
   3 O :   -0.179555
   4 C :    0.421328
   5 O :   -0.428123
   6 C :   -0.517761
   7 H :    0.144817
   8 H :    0.155079
   9 H :    0.149159
  10 H :    0.143299
  11 H :    0.138691
  12 H :    0.181273
  13 H :    0.147288
  14 H :    0.173646
  15 H :    0.170330
  16 H :    0.173288
Sum of atomic charges:    0.0000000

LOEWDIN ATOMIC CHARGES
----------------------
   0 C :   -0.418286
   1 C :   -0.285779
   2 C :    0.037719
   3 O :   -0.604113
   4 C :    0.354000
   5 O :   -0.437333
   6 C :   -0.336456
   7 H :    0.153104
   8 H :    0.157312
   9 H :    0.152148
  10 H :    0.161633
  11 H :    0.160227
  12 H :    0.194166
  13 H :    0.178496
  14 H :    0.180735
  15 H :    0.173590
  16 H :    0.178836

  Mayer bond orders larger than 0.100000
B(  0-C ,  1-C ) :   0.9100 B(  0-C ,  7-H ) :   0.9754 B(  0-C ,  8-H ) :   0.9785
B(  0-C ,  9-H ) :   0.9731 B(  1-C ,  2-C ) :   0.9587 B(  1-C , 10-H ) :   0.9669
B(  1-C , 11-H ) :   0.9613 B(  2-C ,  3-O ) :   0.7869 B(  2-C , 12-H ) :   0.9695
B(  2-C , 13-H ) :   0.9454 B(  3-O ,  4-C ) :   1.0680 B(  4-C ,  5-O ) :   1.8362
B(  4-C ,  6-C ) :   0.9449 B(  6-C , 14-H ) :   0.9428 B(  6-C , 15-H ) :   0.9854
B(  6-C , 16-H ) :   0.9616

Dispersion correction           -0.003970200
FINAL SINGLE POINT ENERGY      -346.936140275444

DIPOLE MOMENT
-------------

Method             : SCF
Type of density    : Electron Density
Multiplicity       :   1
Irrep              :   0
Energy             :  -346.9426481272947171 Eh
Relativity type    :
Basis              : AO
                                X                 Y                 Z
Electronic contribution:      5.428432728      -1.431991705      -2.822102977
Nuclear contribution   :     -5.889085560       2.132808791       3.129969111
                        -----------------------------------------
Total Dipole Moment    :     -0.460652831       0.700817085       0.307866134
                        -----------------------------------------
Magnitude (a.u.)       :      0.893379636
Magnitude (Debye)      :      2.270790573

Rotational constants in cm-1:             0.173199             0.047542             0.044072
Rotational constants in MHz :          5192.367793          1425.262397          1321.244549

                             ****ORCA TERMINATED NORMALLY****
TOTAL RUN TIME: 0 days 0 hours 0 minutes 22 seconds 261 msec
