                         Program Version 6.0.0  -   RELEASE  -
|  1> ! r2scan-3c def2/J RI DEFGRID2 scfconv6 printgap
|  2> %output
|  3>     printlevel normal
|  4> end
|  5> %cpcm
|  6>     smd true
|  7>     smdsolvent "water"
|  8> end
|  9> * xyz 0 1
| 10> C -2.4415964408 -0.112891356 1.0362634565
| 11> C -2.1609929022 0.5572903328 -0.3036645095
| 12> C -0.850994831 0.0802769623 -0.9172424892
| 13> O 0.2401288204 0.5437133507 -0.107608503
| 14> C 1.336233979 -0.1971411924 -0.0238797723
| 15> O 1.4797966828 -1.2516062109 -0.6104449089
| 16> C 2.3553348018 0.423713924 0.8841015903
| 17> H -2.5070336618 -1.1920643073 0.916719019
| 18> H -1.6452473408 0.1083140358 1.7427004316
| 19> H -3.3794627997 0.2476876344 1.4488285735
| 20> H -2.107162848 1.6382396335 -0.1713512907
| 21> H -2.9616805518 0.333142397 -1.0082799238
| 22> H -0.8041096942 -1.0123109131 -0.9736782708
| 23> H -0.7157356131 0.4909333911 -1.922631185
| 24> H 2.4579813793 -0.1992287565 1.7696281096
| 25> H 2.0408073979 1.4224985485 1.1659315453
| 26> H 3.3172393194 0.4473535162 0.3797399834
| 27> *
| 28>
| 29>                          ****END OF INPUT****

CARTESIAN COORDINATES (ANGSTROEM)
---------------------------------
  C     -2.441596   -0.112891    1.036263
  C     -2.160993    0.557290   -0.303665
  C     -0.850995    0.080277   -0.917242
  O      0.240129    0.543713   -0.107609
  C      1.336234   -0.197141   -0.023880
  O      1.479797   -1.251606   -0.610445
  C      2.355335    0.423714    0.884102
  H     -2.507034   -1.192064    0.916719
  H     -1.645247    0.108314    1.742700
  H     -3.379463    0.247688    1.448829
  H     -2.107163    1.638240   -0.171351
  H     -2.961681    0.333142   -1.008280
  H     -0.804110   -1.012311   -0.973678
  H     -0.715736    0.490933   -1.922631
  H      2.457981   -0.199229    1.769628
  H      2.040807    1.422499    1.165932
  H      3.317239    0.447354    0.379740

 Total Charge           Charge          ....    0
 Multiplicity           Mult            ....    1
 Number of Electrons    NEL             ....   56
 Basis Dimension        Dim             ....  193

ORBITAL ENERGIES
----------------

  NO   OCC          E(Eh)            E(eV)
   0   2.0000     -19.003279      -517.1055
   1   2.0000     -18.942152      -515.4422
   2   2.0000     -10.165481      -276.6168
   3   2.0000     -10.080157      -274.2950
   4   2.0000     -10.030117      -272.9334
   5   2.0000     -10.026410      -272.8325
   6   2.0000     -10.011252      -272.4200
   7   2.0000      -1.079365       -29.3710
   8   2.0000      -0.988287       -26.8927
   9   2.0000      -0.762325       -20.7439
  10   2.0000      -0.714751       -19.4494
  11   2.0000      -0.653935       -17.7945
  12   2.0000      -0.572419       -15.5763
  13   2.0000      -0.528836       -14.3904
  14   2.0000      -0.464742       -12.6463
  15   2.0000      -0.461735       -12.5645
  16   2.0000      -0.444956       -12.1079
  17   2.0000      -0.410996       -11.1838
  18   2.0000      -0.402259       -10.9460
  19   2.0000      -0.380591       -10.3564
  20   2.0000      -0.367414        -9.9978
  21   2.0000      -0.352571        -9.5939
  22   2.0000      -0.331397        -9.0178
  23   2.0000      -0.318985        -8.6800
  24   2.0000      -0.312489        -8.5033
  25   2.0000      -0.299225        -8.1423
  26   2.0000      -0.275333        -7.4922
  27   2.0000      -0.252533        -6.8718
  28   0.0000      -0.021041        -0.5725
  29   0.0000       0.075429         2.0525
  30   0.0000       0.108262         2.9460
  31   0.0000       0.122472         3.3326
  32   0.0000       0.131701         3.5838

MULLIKEN ATOMIC CHARGES
-----------------------
   0 C :   -0.504873
   1 C :   -0.237980
   2 C :   -0.183993
   3 O :   -0.195956
   4 C :    0.468729
   5 O :   -0.518446
   6 C :   -0.553806
   7 H :    0.157032
   8 H :    0.158483
   9 H :    0.162356
  10 H :    0.155809
  11 H :    0.158750
  12 H :    0.178390
  13 H :    0.172772
  14 H :    0.201343
  15 H :    0.187208
  16 H :    0.194181
Sum of atomic charges:    0.0000000

LOEWDIN ATOMIC CHARGES
----------------------
   0 C :   -0.425802
   1 C :   -0.283713
   2 C :    0.040617
   3 O :   -0.604422
   4 C :    0.365207
   5 O :   -0.501741
   6 C :   -0.334521
   7 H :    0.156048
   8 H :    0.156852
   9 H :    0.155883
  10 H :    0.164952
  11 H :    0.168160
  12 H :    0.194148
  13 H :    0.187957
  14 H :    0.191523
  15 H :    0.181896
  16 H :    0.186955

  Mayer bond orders larger than 0.100000
B(  0-C ,  1-C ) :   0.9001 B(  0-C ,  7-H ) :   0.9738 B(  0-C ,  8-H ) :   0.9762
B(  0-C ,  9-H ) :   0.9705 B(  1-C ,  2-C ) :   0.9570 B(  1-C , 10-H ) :   0.9680
B(  1-C , 11-H ) :   0.9576 B(  2-C ,  3-O ) :   0.7744 B(  2-C , 12-H ) :   0.9652
B(  2-C , 13-H ) :   0.9363 B(  3-O ,  4-C ) :   1.0978 B(  4-C ,  5-O ) :   1.7612
B(  4-C ,  6-C ) :   0.9462 B(  6-C , 14-H ) :   0.9316 B(  6-C , 15-H ) :   0.9748
B(  6-C , 16-H ) :   0.9518

Dispersion correction           -0.003970200
FINAL SINGLE POINT ENERGY      -346.941618543425

DIPOLE MOMENT
-------------

Method             : SCF
Type of density    : Electron Density
Multiplicity       :   1
Irrep              :   0
Energy             :  -346.9481263952759491 Eh
Relativity type    :
Basis              : AO
                                X                 Y                 Z
Electronic contribution:      5.283911766      -1.154409360      -2.722596847
Nuclear contribution   :     -5.889085560       2.132808791       3.129969111
                        -----------------------------------------
Total Dipole Moment    :     -0.605173794       0.978399430       0.407372264
                        -----------------------------------------
Magnitude (a.u.)       :      1.220431451
Magnitude (Debye)      :      3.102090222

Rotational constants in cm-1:             0.173199             0.047542             0.044072
Rotational constants in MHz :          5192.367793          1425.262397          1321.244549

                             ****ORCA TERMINATED NORMALLY****
TOTAL RUN TIME: 0 days 0 hours 0 minutes 28 seconds 498 msec
