                         Program Version 6.0.0  -   RELEASE  -
|  1> ! r2scan-3c def2/J RI DEFGRID2 scfconv6 printgap
|  2> %output
|  3>     printlevel normal
|  4> end
|  5> * xyz 0 1
|  6> C 1.9586964535 -0.9520197406 -0.1049788945
|  7> C 1.8730100455 0.5690980608 -0.1555775537
|  8> C 0.5439035135 1.1302412238 0.3529682274
|  9> C -0.6584977399 0.7469828668 -0.5086167462
| 10> S -1.6808417123 -0.6031883956 0.1939901547
| 11> H 1.7468540261 -1.3125188391 0.8993187682
| 12> H 2.9580923812 -1.2794625516 -0.3813355808
| 13> H 1.2557188854 -1.406728717 -0.7989567942
| 14> H 2.0340680955 0.9075764945 -1.1816891543
| 15> H 2.6722081047 0.9888717449 0.4587465405
| 16> H 0.6200155284 2.2195314276 0.3713874245
| 17> H 0.3734272313 0.7983744701 1.3793585167
| 18> H -1.3654656428 1.5724541563 -0.5854167605
| 19> H -0.3609640154 0.448611133 -1.5126207362
| 20> H -0.7562540625 -1.5542510131 0.1395044793
| 21> *
| 22>
| 23>                          ****END OF INPUT****

CARTESIAN COORDINATES (ANGSTROEM)
---------------------------------
  C      1.958696   -0.952020   -0.104979
  C      1.873010    0.569098   -0.155578
  C      0.543904    1.130241    0.352968
  C     -0.658498    0.746983   -0.508617
  S     -1.680842   -0.603188    0.193990
  H      1.746854   -1.312519    0.899319
  H      2.958092   -1.279463   -0.381336
  H      1.255719   -1.406729   -0.798957
  H      2.034068    0.907576   -1.181689
  H      2.672208    0.988872    0.458747
  H      0.620016    2.219531    0.371387
  H      0.373427    0.798374    1.379359
  H     -1.365466    1.572454   -0.585417
  H     -0.360964    0.448611   -1.512621
  H     -0.756254   -1.554251    0.139504

 Total Charge           Charge          ....    0
 Multiplicity           Mult            ....    1
 Number of Electrons    NEL             ....   50
 Basis Dimension        Dim             ....  153

ORBITAL ENERGIES
----------------

  NO   OCC          E(Eh)            E(eV)
   0   2.0000     -88.547611     -2409.5030
   1   2.0000     -10.065364      -273.8925
   2   2.0000     -10.033584      -273.0277
   3   2.0000     -10.033337      -273.0210
   4   2.0000     -10.024305      -272.7752
   5   2.0000      -7.842855      -213.4149
   6   2.0000      -5.790075      -157.5560
   7   2.0000      -5.786286      -157.4528
   8   2.0000      -5.779874      -157.2784
   9   2.0000      -0.784400       -21.3446
  10   2.0000      -0.728260       -19.8170
  11   2.0000      -0.663902       -18.0657
  12   2.0000      -0.593543       -16.1511
  13   2.0000      -0.544287       -14.8108
  14   2.0000      -0.451630       -12.2895
  15   2.0000      -0.428659       -11.6644
  16   2.0000      -0.404946       -11.0192
  17   2.0000      -0.378789       -10.3074
  18   2.0000      -0.365543        -9.9469
  19   2.0000      -0.348617        -9.4864
  20   2.0000      -0.332120        -9.0375
  21   2.0000      -0.306105        -8.3295
  22   2.0000      -0.300461        -8.1760
  23   2.0000      -0.284665        -7.7461
  24   2.0000      -0.207193        -5.6380
  25   0.0000       0.014088         0.3834
  26   0.0000       0.049701         1.3524
  27   0.0000       0.090883         2.4730
  28   0.0000       0.101438         2.7603
  29   0.0000       0.121683         3.3112

MULLIKEN ATOMIC CHARGES
-----------------------
   0 C :   -0.504873
   1 C :   -0.250830
   2 C :   -0.228892
   3 C :   -0.268535
   4 S :   -0.266164
   5 H :    0.158469
   6 H :    0.150358
   7 H :    0.146840
   8 H :    0.142511
   9 H :    0.142244
  10 H :    0.144231
  11 H :    0.163507
  12 H :    0.157754
  13 H :    0.171964
  14 H :    0.141417
Sum of atomic charges:   -0.0000000

LOEWDIN ATOMIC CHARGES
----------------------
   0 C :   -0.432078
   1 C :   -0.316217
   2 C :   -0.322694
   3 C :   -0.363975
   4 S :   -0.104398
   5 H :    0.152221
   6 H :    0.152646
   7 H :    0.146241
   8 H :    0.151283
   9 H :    0.153907
  10 H :    0.158043
  11 H :    0.163783
  12 H :    0.170498
  13 H :    0.163595
  14 H :    0.127144

  Mayer bond orders larger than 0.100000
B(  0-C ,  1-C ) :   0.8773 B(  0-C ,  5-H ) :   0.9805 B(  0-C ,  6-H ) :   0.9663
B(  0-C ,  7-H ) :   0.9739 B(  1-C ,  2-C ) :   0.9113 B(  1-C ,  8-H ) :   0.9829
B(  1-C ,  9-H ) :   0.9730 B(  2-C ,  3-C ) :   0.8432 B(  2-C , 10-H ) :   0.9603
B(  2-C , 11-H ) :   0.9819 B(  3-C ,  4-S ) :   0.9744 B(  3-C , 12-H ) :   0.9532
B(  3-C , 13-H ) :   0.9750 B(  4-S , 14-H ) :   0.9534

Dispersion correction           -0.003847975
FINAL SINGLE POINT ENERGY      -556.551460742897

DIPOLE MOMENT
-------------

Method             : SCF
Type of density    : Electron Density
Multiplicity       :   1
Irrep              :   0
Energy             :  -556.5581671588114432 Eh
Relativity type    :
Basis              : AO
                                X                 Y                 Z
Electronic contribution:     -7.973116335      -1.016793375       0.950851889
Nuclear contribution   :      8.657968595       1.314102737      -1.142292169
                        -----------------------------------------
Total Dipole Moment    :      0.684852260       0.297309363      -0.191440280
                        -----------------------------------------
Magnitude (a.u.)       :      0.770756029
Magnitude (Debye)      :      1.959106133

Rotational constants in cm-1:             0.218802             0.072450             0.059664
Rotational constants in MHz :          6559.518698          2172.009807          1788.691333

                             ****ORCA TERMINATED NORMALLY****
TOTAL RUN TIME: 0 days 0 hours 0 minutes 14 seconds 349 msec
