                         Program Version 6.0.0  -   RELEASE  -
|  1> ! r2scan-3c def2/J RI DEFGRID2 scfconv6 printgap
|  2> %output
|  3>     printlevel normal
|  4> end
|  5> %cpcm
|  6>     smd true
|  7>     smdsolvent "water"
|  8> end
|  9> * xyz 0 1
| 10> C 1.9586964535 -0.9520197406 -0.1049788945
| 11> C 1.8730100455 0.5690980608 -0.1555775537
| 12> C 0.5439035135 1.1302412238 0.3529682274
| 13> C -0.6584977399 0.7469828668 -0.5086167462
| 14> S -1.6808417123 -0.6031883956 0.1939901547
| 15> H 1.7468540261 -1.3125188391 0.8993187682
| 16> H 2.9580923812 -1.2794625516 -0.3813355808
| 17> H 1.2557188854 -1.406728717 -0.7989567942
| 18> H 2.0340680955 0.9075764945 -1.1816891543
| 19> H 2.6722081047 0.9888717449 0.4587465405
| 20> H 0.6200155284 2.2195314276 0.3713874245
| 21> H 0.3734272313 0.7983744701 1.3793585167
| 22> H -1.3654656428 1.5724541563 -0.5854167605
| 23> H -0.3609640154 0.448611133 -1.5126207362
| 24> H -0.7562540625 -1.5542510131 0.1395044793
| 25> *
| 26>
| 27>                          ****END OF INPUT****

CARTESIAN COORDINATES (ANGSTROEM)
---------------------------------
  C      1.958696   -0.952020   -0.104979
  C      1.873010    0.569098   -0.155578
  C      0.543904    1.130241    0.352968
  C     -0.658498    0.746983   -0.508617
  S     -1.680842   -0.603188    0.193990
  H      1.746854   -1.312519    0.899319
  H      2.958092   -1.279463   -0.381336
  H      1.255719   -1.406729   -0.798957
  H      2.034068    0.907576   -1.181689
  H      2.672208    0.988872    0.458747
  H      0.620016    2.219531    0.371387
  H      0.373427    0.798374    1.379359
  H     -1.365466    1.572454   -0.585417
  H     -0.360964    0.448611   -1.512621
  H     -0.756254   -1.554251    0.139504

 Total Charge           Charge          ....    0
 Multiplicity           Mult            ....    1
 Number of Electrons    NEL             ....   50
 Basis Dimension        Dim             ....  153

ORBITAL ENERGIES
----------------

  NO   OCC          E(Eh)            E(eV)
   0   2.0000     -88.546505     -2409.4729
   1   2.0000     -10.054363      -273.5931
   2   2.0000     -10.021115      -272.6884
   3   2.0000     -10.018621      -272.6205
   4   2.0000     -10.009314      -272.3673
   5   2.0000      -7.841878      -213.3884
   6   2.0000      -5.788845      -157.5225
   7   2.0000      -5.785169      -157.4225
   8   2.0000      -5.779329      -157.2635
   9   2.0000      -0.773271       -21.0418
  10   2.0000      -0.718322       -19.5465
  11   2.0000      -0.653962       -17.7952
  12   2.0000      -0.582954       -15.8630
  13   2.0000      -0.531534       -14.4638
  14   2.0000      -0.439448       -11.9580
  15   2.0000      -0.415685       -11.3114
  16   2.0000      -0.392948       -10.6927
  17   2.0000      -0.366918        -9.9843
  18   2.0000      -0.354249        -9.6396
  19   2.0000      -0.337383        -9.1807
  20   2.0000      -0.321750        -8.7553
  21   2.0000      -0.292118        -7.9489
  22   2.0000      -0.287649        -7.8273
  23   2.0000      -0.277471        -7.5504
  24   2.0000      -0.208225        -5.6661
  25   0.0000       0.017373         0.4727
  26   0.0000       0.056306         1.5322
  27   0.0000       0.105253         2.8641
  28   0.0000       0.113867         3.0985
  29   0.0000       0.133225         3.6252

MULLIKEN ATOMIC CHARGES
-----------------------
   0 C :   -0.538962
   1 C :   -0.253016
   2 C :   -0.247391
   3 C :   -0.268794
   4 S :   -0.344943
   5 H :    0.165299
   6 H :    0.158521
   7 H :    0.160858
   8 H :    0.151969
   9 H :    0.150163
  10 H :    0.160110
  11 H :    0.161442
  12 H :    0.179752
  13 H :    0.190245
  14 H :    0.174749
Sum of atomic charges:   -0.0000000

LOEWDIN ATOMIC CHARGES
----------------------
   0 C :   -0.438770
   1 C :   -0.316909
   2 C :   -0.322684
   3 C :   -0.359257
   4 S :   -0.143784
   5 H :    0.153753
   6 H :    0.154176
   7 H :    0.150579
   8 H :    0.154733
   9 H :    0.155579
  10 H :    0.163402
  11 H :    0.162020
  12 H :    0.177501
  13 H :    0.171179
  14 H :    0.138481

  Mayer bond orders larger than 0.100000
B(  0-C ,  1-C ) :   0.8682 B(  0-C ,  5-H ) :   0.9787 B(  0-C ,  6-H ) :   0.9640
B(  0-C ,  7-H ) :   0.9714 B(  1-C ,  2-C ) :   0.9048 B(  1-C ,  8-H ) :   0.9810
B(  1-C ,  9-H ) :   0.9739 B(  2-C ,  3-C ) :   0.8431 B(  2-C , 10-H ) :   0.9593
B(  2-C , 11-H ) :   0.9852 B(  3-C ,  4-S ) :   0.9567 B(  3-C , 12-H ) :   0.9469
B(  3-C , 13-H ) :   0.9682 B(  4-S , 14-H ) :   0.9479

Dispersion correction           -0.003847975
FINAL SINGLE POINT ENERGY      -556.553645220052

DIPOLE MOMENT
-------------

Method             : SCF
Type of density    : Electron Density
Multiplicity       :   1
Irrep              :   0
Energy             :  -556.5603516359658443 Eh
Relativity type    :
Basis              : AO
                                X                 Y                 Z
Electronic contribution:     -7.783237197      -0.910450424       0.841336194
Nuclear contribution   :      8.657968595       1.314102737      -1.142292169
                        -----------------------------------------
Total Dipole Moment    :      0.874731398       0.403652313      -0.300955975
                        -----------------------------------------
Magnitude (a.u.)       :      1.009289209
Magnitude (Debye)      :      2.565409294

Rotational constants in cm-1:             0.218802             0.072450             0.059664
Rotational constants in MHz :          6559.518698          2172.009807          1788.691333

                             ****ORCA TERMINATED NORMALLY****
TOTAL RUN TIME: 0 days 0 hours 0 minutes 16 seconds 676 msec
