                         Program Version 6.0.0  -   RELEASE  -
|  1> ! pbe def2-sv(p) def2/J RI DEFGRID1 loosescf d4 GCP(DFT/SV(P)) printgap
|  2> %output
|  3>     printlevel normal
|  4> end
|  5> * xyz 0 1
|  6> C -4.15622297 -0.6812270116 1.4333084305
|  7> C -3.473662427 -0.1401549569 0.1920199205
|  8> O -2.0550698925 -0.194157561 0.3997805127
|  9> C -1.2780171847 0.2172689989 -0.6013209743
| 10> O -1.7357977091 0.6265365704 -1.6574439584
| 11> C 0.1576718485 0.1263241853 -0.3018829399
| 12> C 1.0734109255 0.5250368706 -1.2760255183
| 13> C 2.4280047417 0.4553703262 -1.0356545047
| 14> C 2.8942620207 -0.0171269255 0.1915252164
| 15> C 1.9791489572 -0.4168965322 1.1692664618
| 16> C 0.626974659 -0.3463035859 0.9259133862
| 17> O 4.205654793 -0.1070876542 0.4817629649
| 18> H -3.8491673591 -1.7080246653 1.6086950466
| 19> H -3.886246814 -0.0812225819 2.2972537814
| 20> H -5.2316894042 -0.6470024379 1.2944952355
| 21> H -3.7551937267 0.8996985975 -0.0068106364
| 22> H -3.7165765492 -0.7317680022 -0.6974097184
| 23> H 0.6946087952 0.8879289913 -2.2194969458
| 24> H 3.1265413432 0.7666658457 -1.797587736
| 25> H 2.3597931783 -0.7787241808 2.1106646989
| 26> H -0.0795999801 -0.6542936492 1.6791183714
| 27> H 4.7552700574 0.1924825921 -0.2601119276
| 28> *
| 29>
| 30>                          ****END OF INPUT****

CARTESIAN COORDINATES (ANGSTROEM)
---------------------------------
  C     -4.156223   -0.681227    1.433308
  C     -3.473662   -0.140155    0.192020
  O     -2.055070   -0.194158    0.399781
  C     -1.278017    0.217269   -0.601321
  O     -1.735798    0.626537   -1.657444
  C      0.157672    0.126324   -0.301883
  C      1.073411    0.525037   -1.276026
  C      2.428005    0.455370   -1.035655
  C      2.894262   -0.017127    0.191525
  C      1.979149   -0.416897    1.169266
  C      0.626975   -0.346304    0.925913
  O      4.205655   -0.107088    0.481763
  H     -3.849167   -1.708025    1.608695
  H     -3.886247   -0.081223    2.297254
  H     -5.231689   -0.647002    1.294495
  H     -3.755194    0.899699   -0.006811
  H     -3.716577   -0.731768   -0.697410
  H      0.694609    0.887929   -2.219497
  H      3.126541    0.766666   -1.797588
  H      2.359793   -0.778724    2.110665
  H     -0.079600   -0.654294    1.679118
  H      4.755270    0.192483   -0.260112

 Total Charge           Charge          ....    0
 Multiplicity           Mult            ....    1
 Number of Electrons    NEL             ....   88
 Basis Dimension        Dim             ....  188

ORBITAL ENERGIES
----------------

  NO   OCC          E(Eh)            E(eV)
   0   2.0000     -18.799158      -511.5511
   1   2.0000     -18.792716      -511.3758
   2   2.0000     -18.726607      -509.5769
   3   2.0000      -9.998443      -272.0715
   4   2.0000      -9.966363      -271.1985
   5   2.0000      -9.942947      -270.5613
   6   2.0000      -9.901772      -269.4409
   7   2.0000      -9.901433      -269.4317
   8   2.0000      -9.900379      -269.4030
   9   2.0000      -9.899762      -269.3862
  10   2.0000      -9.895006      -269.2568
  11   2.0000      -9.886509      -269.0256
  12   2.0000      -0.998592       -27.1731
  13   2.0000      -0.981785       -26.7157
  14   2.0000      -0.900235       -24.4966
  15   2.0000      -0.782102       -21.2821
  16   2.0000      -0.709164       -19.2973
  17   2.0000      -0.682703       -18.5773
  18   2.0000      -0.676039       -18.3960
  19   2.0000      -0.599784       -16.3209
  20   2.0000      -0.576663       -15.6918
  21   2.0000      -0.545324       -14.8390
  22   2.0000      -0.507704       -13.8153
  23   2.0000      -0.505081       -13.7440
  24   2.0000      -0.479410       -13.0454
  25   2.0000      -0.440845       -11.9960
  26   2.0000      -0.428195       -11.6518
  27   2.0000      -0.406251       -11.0546
  28   2.0000      -0.389220       -10.5912
  29   2.0000      -0.384385       -10.4596
  30   2.0000      -0.383224       -10.4281
  31   2.0000      -0.371969       -10.1218
  32   2.0000      -0.371069       -10.0973
  33   2.0000      -0.356130        -9.6908
  34   2.0000      -0.344802        -9.3825
  35   2.0000      -0.331555        -9.0221
  36   2.0000      -0.323309        -8.7977
  37   2.0000      -0.305191        -8.3047
  38   2.0000      -0.297283        -8.0895
  39   2.0000      -0.291886        -7.9426
  40   2.0000      -0.252086        -6.8596
  41   2.0000      -0.238300        -6.4845
  42   2.0000      -0.214520        -5.8374
  43   2.0000      -0.206041        -5.6067
  44   0.0000      -0.062381        -1.6975
  45   0.0000      -0.041271        -1.1230
  46   0.0000       0.013407         0.3648
  47   0.0000       0.032139         0.8745
  48   0.0000       0.043141         1.1739

MULLIKEN ATOMIC CHARGES
-----------------------
   0 C :   -0.270857
   1 C :   -0.023677
   2 O :   -0.249511
   3 C :    0.159090
   4 O :   -0.212892
   5 C :    0.039544
   6 C :   -0.098168
   7 C :   -0.151913
   8 C :    0.246724
   9 C :   -0.112787
  10 C :   -0.083086
  11 O :   -0.316612
  12 H :    0.114019
  13 H :    0.113945
  14 H :    0.109942
  15 H :    0.103587
  16 H :    0.104123
  17 H :    0.064003
  18 H :    0.034007
  19 H :    0.050128
  20 H :    0.058004
  21 H :    0.322385
Sum of atomic charges:   -0.0000000

LOEWDIN ATOMIC CHARGES
----------------------
   0 C :   -0.351084
   1 C :   -0.107019
   2 O :   -0.071433
   3 C :    0.044227
   4 O :   -0.178116
   5 C :   -0.099309
   6 C :   -0.079899
   7 C :   -0.174262
   8 C :    0.030927
   9 C :   -0.147189
  10 C :   -0.090625
  11 O :   -0.215751
  12 H :    0.125939
  13 H :    0.125879
  14 H :    0.129887
  15 H :    0.115673
  16 H :    0.115899
  17 H :    0.136489
  18 H :    0.123131
  19 H :    0.132538
  20 H :    0.131962
  21 H :    0.302137

  Mayer bond orders larger than 0.100000
B(  0-C ,  1-C ) :   1.1498 B(  0-C , 12-H ) :   0.9499 B(  0-C , 13-H ) :   0.9496
B(  0-C , 14-H ) :   0.9445 B(  1-C ,  2-O ) :   0.9109 B(  1-C , 15-H ) :   0.9316
B(  1-C , 16-H ) :   0.9306 B(  2-O ,  3-C ) :   1.2304 B(  3-C ,  4-O ) :   2.0381
B(  3-C ,  5-C ) :   0.9673 B(  5-C ,  6-C ) :   1.3777 B(  5-C , 10-C ) :   1.3305
B(  6-C ,  7-C ) :   1.3571 B(  6-C , 17-H ) :   0.9538 B(  7-C ,  8-C ) :   1.2825
B(  7-C , 18-H ) :   0.9612 B(  8-C ,  9-C ) :   1.3351 B(  8-C , 11-O ) :   1.2139
B(  9-C , 10-C ) :   1.3657 B(  9-C , 19-H ) :   0.9660 B( 10-C , 20-H ) :   0.9605
B( 11-O , 21-H ) :   0.8380

Dispersion correction           -0.022254138
FINAL SINGLE POINT ENERGY      -573.464110044816

DIPOLE MOMENT
-------------

Method             : SCF
Type of density    : Electron Density
Multiplicity       :   1
Irrep              :   0
Energy             :  -573.5396574672566885 Eh
Relativity type    :
Basis              : AO
                                X                 Y                 Z
Electronic contribution:      9.527210824       1.625618663      -3.460171304
Nuclear contribution   :     -8.983652601      -1.734793794       3.749455791
                        -----------------------------------------
Total Dipole Moment    :      0.543558223      -0.109175132       0.289284487
                        -----------------------------------------
Magnitude (a.u.)       :      0.625348115
Magnitude (Debye)      :      1.589508589

Rotational constants in cm-1:             0.087048             0.014807             0.012715
Rotational constants in MHz :          2609.620459           443.889286           381.174611

                             ****ORCA TERMINATED NORMALLY****
TOTAL RUN TIME: 0 days 0 hours 0 minutes 12 seconds 894 msec
