                         Program Version 6.0.0  -   RELEASE  -
|  1> ! r2scan-3c def2/J RI DEFGRID2 scfconv6 printgap
|  2> %output
|  3>     printlevel normal
|  4> end
|  5> * xyz 0 1
|  6> C -2.2800730203 0.3724984926 -1.0517198788
|  7> C -1.8257228086 0.3879853049 0.411134604
|  8> C -0.4464503987 -0.211198967 0.5020242675
|  9> O -0.2139560319 -1.387250056 0.6919627261
| 10> O 0.4941090675 0.7069143571 0.3237211155
| 11> C 1.8690126909 0.2884499981 0.3059072789
| 12> C 2.2973875054 -0.1206619801 -1.0950530334
| 13> H -1.6102448507 0.9737683632 -1.6609623531
| 14> H -2.283297034 -0.6456056955 -1.4339140227
| 15> H -3.2841661767 0.7784400561 -1.1277780907
| 16> H -2.5039208514 -0.2103635963 1.0182738164
| 17> H -1.7911722022 1.412193956 0.7789697414
| 18> H 2.426962304 1.1582110107 0.6539852522
| 19> H 1.9883047408 -0.5451840686 1.0046572425
| 20> H 3.3520559901 -0.3755760419 -1.0886235919
| 21> H 1.7266931971 -0.9876911972 -1.420471923
| 22> H 2.1297087892 0.6961985213 -1.7917480747
| 23> *
| 24>
| 25>                          ****END OF INPUT****

CARTESIAN COORDINATES (ANGSTROEM)
---------------------------------
  C     -2.280073    0.372498   -1.051720
  C     -1.825723    0.387985    0.411135
  C     -0.446450   -0.211199    0.502024
  O     -0.213956   -1.387250    0.691963
  O      0.494109    0.706914    0.323721
  C      1.869013    0.288450    0.305907
  C      2.297388   -0.120662   -1.095053
  H     -1.610245    0.973768   -1.660962
  H     -2.283297   -0.645606   -1.433914
  H     -3.284166    0.778440   -1.127778
  H     -2.503921   -0.210364    1.018274
  H     -1.791172    1.412194    0.778970
  H      2.426962    1.158211    0.653985
  H      1.988305   -0.545184    1.004657
  H      3.352056   -0.375576   -1.088624
  H      1.726693   -0.987691   -1.420472
  H      2.129709    0.696199   -1.791748

 Total Charge           Charge          ....    0
 Multiplicity           Mult            ....    1
 Number of Electrons    NEL             ....   56
 Basis Dimension        Dim             ....  193

ORBITAL ENERGIES
----------------

  NO   OCC          E(Eh)            E(eV)
   0   2.0000     -18.996273      -516.9149
   1   2.0000     -18.926740      -515.0228
   2   2.0000     -10.150876      -276.2194
   3   2.0000     -10.090934      -274.5883
   4   2.0000     -10.043008      -273.2841
   5   2.0000     -10.032090      -272.9871
   6   2.0000     -10.029322      -272.9117
   7   2.0000      -1.071065       -29.1452
   8   2.0000      -0.974469       -26.5167
   9   2.0000      -0.765749       -20.8371
  10   2.0000      -0.730591       -19.8804
  11   2.0000      -0.642091       -17.4722
  12   2.0000      -0.599367       -16.3096
  13   2.0000      -0.522022       -14.2049
  14   2.0000      -0.472208       -12.8494
  15   2.0000      -0.455485       -12.3944
  16   2.0000      -0.436919       -11.8892
  17   2.0000      -0.410637       -11.1740
  18   2.0000      -0.407639       -11.0924
  19   2.0000      -0.380496       -10.3538
  20   2.0000      -0.372522       -10.1368
  21   2.0000      -0.354911        -9.6576
  22   2.0000      -0.336959        -9.1691
  23   2.0000      -0.328532        -8.9398
  24   2.0000      -0.324928        -8.8417
  25   2.0000      -0.306065        -8.3284
  26   2.0000      -0.270504        -7.3608
  27   2.0000      -0.233331        -6.3493
  28   0.0000      -0.013984        -0.3805
  29   0.0000       0.075403         2.0518
  30   0.0000       0.091837         2.4990
  31   0.0000       0.116078         3.1587
  32   0.0000       0.123800         3.3688

MULLIKEN ATOMIC CHARGES
-----------------------
   0 C :   -0.472867
   1 C :   -0.296325
   2 C :    0.415697
   3 O :   -0.431182
   4 O :   -0.180323
   5 C :   -0.139830
   6 C :   -0.466804
   7 H :    0.154058
   8 H :    0.161369
   9 H :    0.153975
  10 H :    0.161187
  11 H :    0.154369
  12 H :    0.147658
  13 H :    0.169798
  14 H :    0.147457
  15 H :    0.170225
  16 H :    0.151538
Sum of atomic charges:   -0.0000000

LOEWDIN ATOMIC CHARGES
----------------------
   0 C :   -0.392576
   1 C :   -0.236093
   2 C :    0.355843
   3 O :   -0.433770
   4 O :   -0.595916
   5 C :    0.027205
   6 C :   -0.390722
   7 H :    0.156926
   8 H :    0.159901
   9 H :    0.153300
  10 H :    0.174705
  11 H :    0.173869
  12 H :    0.177490
  13 H :    0.189180
  14 H :    0.159367
  15 H :    0.164649
  16 H :    0.156643

  Mayer bond orders larger than 0.100000
B(  0-C ,  1-C ) :   0.8923 B(  0-C ,  7-H ) :   0.9764 B(  0-C ,  8-H ) :   0.9752
B(  0-C ,  9-H ) :   0.9707 B(  1-C ,  2-C ) :   0.9521 B(  1-C , 10-H ) :   0.9734
B(  1-C , 11-H ) :   0.9754 B(  2-C ,  3-O ) :   1.8403 B(  2-C ,  4-O ) :   1.0438
B(  4-O ,  5-C ) :   0.8154 B(  5-C ,  6-C ) :   0.9347 B(  5-C , 12-H ) :   0.9624
B(  5-C , 13-H ) :   0.9668 B(  6-C , 14-H ) :   0.9656 B(  6-C , 15-H ) :   0.9713
B(  6-C , 16-H ) :   0.9739

Dispersion correction           -0.004054682
FINAL SINGLE POINT ENERGY      -346.936187289557

DIPOLE MOMENT
-------------

Method             : SCF
Type of density    : Electron Density
Multiplicity       :   1
Irrep              :   0
Energy             :  -346.9425219965647784 Eh
Relativity type    :
Basis              : AO
                                X                 Y                 Z
Electronic contribution:      0.017481147      -1.362394986       4.447005345
Nuclear contribution   :      0.145745452       2.104909220      -4.739208684
                        -----------------------------------------
Total Dipole Moment    :      0.163226599       0.742514234      -0.292203338
                        -----------------------------------------
Magnitude (a.u.)       :      0.814464917
Magnitude (Debye)      :      2.070205297

Rotational constants in cm-1:             0.153699             0.053771             0.049413
Rotational constants in MHz :          4607.791263          1612.022636          1481.378178

                             ****ORCA TERMINATED NORMALLY****
TOTAL RUN TIME: 0 days 0 hours 0 minutes 22 seconds 923 msec
