                         Program Version 6.0.0  -   RELEASE  -
|  1> ! r2scan-3c def2/J RI DEFGRID2 scfconv6 printgap
|  2> %output
|  3>     printlevel normal
|  4> end
|  5> %cpcm
|  6>     smd true
|  7>     smdsolvent "water"
|  8> end
|  9> * xyz 0 1
| 10> C -2.2800730203 0.3724984926 -1.0517198788
| 11> C -1.8257228086 0.3879853049 0.411134604
| 12> C -0.4464503987 -0.211198967 0.5020242675
| 13> O -0.2139560319 -1.387250056 0.6919627261
| 14> O 0.4941090675 0.7069143571 0.3237211155
| 15> C 1.8690126909 0.2884499981 0.3059072789
| 16> C 2.2973875054 -0.1206619801 -1.0950530334
| 17> H -1.6102448507 0.9737683632 -1.6609623531
| 18> H -2.283297034 -0.6456056955 -1.4339140227
| 19> H -3.2841661767 0.7784400561 -1.1277780907
| 20> H -2.5039208514 -0.2103635963 1.0182738164
| 21> H -1.7911722022 1.412193956 0.7789697414
| 22> H 2.426962304 1.1582110107 0.6539852522
| 23> H 1.9883047408 -0.5451840686 1.0046572425
| 24> H 3.3520559901 -0.3755760419 -1.0886235919
| 25> H 1.7266931971 -0.9876911972 -1.420471923
| 26> H 2.1297087892 0.6961985213 -1.7917480747
| 27> *
| 28>
| 29>                          ****END OF INPUT****

CARTESIAN COORDINATES (ANGSTROEM)
---------------------------------
  C     -2.280073    0.372498   -1.051720
  C     -1.825723    0.387985    0.411135
  C     -0.446450   -0.211199    0.502024
  O     -0.213956   -1.387250    0.691963
  O      0.494109    0.706914    0.323721
  C      1.869013    0.288450    0.305907
  C      2.297388   -0.120662   -1.095053
  H     -1.610245    0.973768   -1.660962
  H     -2.283297   -0.645606   -1.433914
  H     -3.284166    0.778440   -1.127778
  H     -2.503921   -0.210364    1.018274
  H     -1.791172    1.412194    0.778970
  H      2.426962    1.158211    0.653985
  H      1.988305   -0.545184    1.004657
  H      3.352056   -0.375576   -1.088624
  H      1.726693   -0.987691   -1.420472
  H      2.129709    0.696199   -1.791748

 Total Charge           Charge          ....    0
 Multiplicity           Mult            ....    1
 Number of Electrons    NEL             ....   56
 Basis Dimension        Dim             ....  193

ORBITAL ENERGIES
----------------

  NO   OCC          E(Eh)            E(eV)
   0   2.0000     -19.002202      -517.0762
   1   2.0000     -18.943109      -515.4682
   2   2.0000     -10.161858      -276.5182
   3   2.0000     -10.083155      -274.3766
   4   2.0000     -10.037295      -273.1287
   5   2.0000     -10.022495      -272.7260
   6   2.0000     -10.018376      -272.6139
   7   2.0000      -1.078697       -29.3528
   8   2.0000      -0.988661       -26.9028
   9   2.0000      -0.761596       -20.7241
  10   2.0000      -0.722909       -19.6714
  11   2.0000      -0.636677       -17.3249
  12   2.0000      -0.593091       -16.1388
  13   2.0000      -0.520025       -14.1506
  14   2.0000      -0.471943       -12.8422
  15   2.0000      -0.460379       -12.5276
  16   2.0000      -0.441417       -12.0116
  17   2.0000      -0.412058       -11.2127
  18   2.0000      -0.401453       -10.9241
  19   2.0000      -0.376056       -10.2330
  20   2.0000      -0.367362        -9.9964
  21   2.0000      -0.346911        -9.4399
  22   2.0000      -0.332278        -9.0418
  23   2.0000      -0.327320        -8.9068
  24   2.0000      -0.317443        -8.6381
  25   2.0000      -0.304261        -8.2794
  26   2.0000      -0.277867        -7.5611
  27   2.0000      -0.249588        -6.7916
  28   0.0000      -0.022487        -0.6119
  29   0.0000       0.078156         2.1267
  30   0.0000       0.099596         2.7102
  31   0.0000       0.125218         3.4074
  32   0.0000       0.134251         3.6532

MULLIKEN ATOMIC CHARGES
-----------------------
   0 C :   -0.493524
   1 C :   -0.311992
   2 C :    0.452468
   3 O :   -0.515367
   4 O :   -0.198198
   5 C :   -0.144672
   6 C :   -0.491930
   7 H :    0.165335
   8 H :    0.165691
   9 H :    0.173311
  10 H :    0.174723
  11 H :    0.174786
  12 H :    0.173613
  13 H :    0.171835
  14 H :    0.170518
  15 H :    0.167330
  16 H :    0.166073
Sum of atomic charges:    0.0000000

LOEWDIN ATOMIC CHARGES
----------------------
   0 C :   -0.393863
   1 C :   -0.233329
   2 C :    0.364913
   3 O :   -0.494327
   4 O :   -0.597513
   5 C :    0.031958
   6 C :   -0.393435
   7 H :    0.160615
   8 H :    0.160773
   9 H :    0.160710
  10 H :    0.179929
  11 H :    0.182789
  12 H :    0.188844
  13 H :    0.189879
  14 H :    0.167827
  15 H :    0.162346
  16 H :    0.161883

  Mayer bond orders larger than 0.100000
B(  0-C ,  1-C ) :   0.8830 B(  0-C ,  7-H ) :   0.9720 B(  0-C ,  8-H ) :   0.9725
B(  0-C ,  9-H ) :   0.9655 B(  1-C ,  2-C ) :   0.9524 B(  1-C , 10-H ) :   0.9693
B(  1-C , 11-H ) :   0.9662 B(  2-C ,  3-O ) :   1.7690 B(  2-C ,  4-O ) :   1.0693
B(  4-O ,  5-C ) :   0.7983 B(  5-C ,  6-C ) :   0.9342 B(  5-C , 12-H ) :   0.9530
B(  5-C , 13-H ) :   0.9630 B(  6-C , 14-H ) :   0.9606 B(  6-C , 15-H ) :   0.9687
B(  6-C , 16-H ) :   0.9698

Dispersion correction           -0.004054682
FINAL SINGLE POINT ENERGY      -346.941308600671

DIPOLE MOMENT
-------------

Method             : SCF
Type of density    : Electron Density
Multiplicity       :   1
Irrep              :   0
Energy             :  -346.9476433076789021 Eh
Relativity type    :
Basis              : AO
                                X                 Y                 Z
Electronic contribution:      0.064118502      -1.019800736       4.363496632
Nuclear contribution   :      0.145745452       2.104909220      -4.739208684
                        -----------------------------------------
Total Dipole Moment    :      0.209863954       1.085108484      -0.375712051
                        -----------------------------------------
Magnitude (a.u.)       :      1.167331507
Magnitude (Debye)      :      2.967120890

Rotational constants in cm-1:             0.153699             0.053771             0.049413
Rotational constants in MHz :          4607.791263          1612.022636          1481.378178

                             ****ORCA TERMINATED NORMALLY****
TOTAL RUN TIME: 0 days 0 hours 0 minutes 26 seconds 961 msec
