                         Program Version 6.0.0  -   RELEASE  -
|  1> ! r2scan-3c def2/J RI DEFGRID2 scfconv6 printgap
|  2> %output
|  3>     printlevel normal
|  4> end
|  5> * xyz 0 1
|  6> C -1.2118582959 0.2498854474 -0.4566126944
|  7> C -0.0448795731 0.5477819523 0.5014927641
|  8> C 0.910363956 -0.6509686207 0.6233692045
|  9> O 1.6169813602 -0.8754080926 -0.5779889456
| 10> O 0.6513070408 1.6982033341 0.0813878219
| 11> O -1.9161258386 -0.8748529485 0.0209049314
| 12> H -0.8190898325 0.0671709745 -1.4662868076
| 13> H -1.8518667389 1.1391939337 -0.492665702
| 14> H -0.4587321255 0.7670130821 1.4912315974
| 15> H 0.3436745933 -1.5319116223 0.9349132472
| 16> H 1.6663925038 -0.422228164 1.3779245566
| 17> H 1.0541183765 -1.3621513764 -1.194550628
| 18> H 1.3236476289 1.4156637024 -0.5605764879
| 19> H -2.7207163291 -0.9944991141 -0.5020274363
| 20> *
| 21>
| 22>                          ****END OF INPUT****

CARTESIAN COORDINATES (ANGSTROEM)
---------------------------------
  C     -1.211858    0.249885   -0.456613
  C     -0.044880    0.547782    0.501493
  C      0.910364   -0.650969    0.623369
  O      1.616981   -0.875408   -0.577989
  O      0.651307    1.698203    0.081388
  O     -1.916126   -0.874853    0.020905
  H     -0.819090    0.067171   -1.466287
  H     -1.851867    1.139194   -0.492666
  H     -0.458732    0.767013    1.491232
  H      0.343675   -1.531912    0.934913
  H      1.666393   -0.422228    1.377925
  H      1.054118   -1.362151   -1.194551
  H      1.323648    1.415664   -0.560576
  H     -2.720716   -0.994499   -0.502027

 Total Charge           Charge          ....    0
 Multiplicity           Mult            ....    1
 Number of Electrons    NEL             ....   50
 Basis Dimension        Dim             ....  169

ORBITAL ENERGIES
----------------

  NO   OCC          E(Eh)            E(eV)
   0   2.0000     -18.963632      -516.0267
   1   2.0000     -18.962539      -515.9969
   2   2.0000     -18.948063      -515.6030
   3   2.0000     -10.082566      -274.3606
   4   2.0000     -10.081491      -274.3313
   5   2.0000     -10.077485      -274.2223
   6   2.0000      -1.008807       -27.4510
   7   2.0000      -0.996657       -27.1204
   8   2.0000      -0.979611       -26.6566
   9   2.0000      -0.722369       -19.6567
  10   2.0000      -0.651641       -17.7321
  11   2.0000      -0.568946       -15.4818
  12   2.0000      -0.507377       -13.8064
  13   2.0000      -0.479546       -13.0491
  14   2.0000      -0.463564       -12.6142
  15   2.0000      -0.433995       -11.8096
  16   2.0000      -0.426280       -11.5997
  17   2.0000      -0.381953       -10.3935
  18   2.0000      -0.372632       -10.1398
  19   2.0000      -0.324057        -8.8180
  20   2.0000      -0.307431        -8.3656
  21   2.0000      -0.305737        -8.3195
  22   2.0000      -0.263002        -7.1566
  23   2.0000      -0.248808        -6.7704
  24   2.0000      -0.231802        -6.3077
  25   0.0000       0.037275         1.0143
  26   0.0000       0.046821         1.2741
  27   0.0000       0.104762         2.8507
  28   0.0000       0.113538         3.0895
  29   0.0000       0.134803         3.6682

MULLIKEN ATOMIC CHARGES
-----------------------
   0 C :   -0.164548
   1 C :    0.056358
   2 C :   -0.221618
   3 O :   -0.453161
   4 O :   -0.421527
   5 O :   -0.436066
   6 H :    0.117812
   7 H :    0.138262
   8 H :    0.147350
   9 H :    0.156149
  10 H :    0.152248
  11 H :    0.311211
  12 H :    0.318154
  13 H :    0.299377
Sum of atomic charges:    0.0000000

LOEWDIN ATOMIC CHARGES
----------------------
   0 C :    0.024720
   1 C :    0.078746
   2 C :    0.024578
   3 O :   -0.610480
   4 O :   -0.581236
   5 O :   -0.627949
   6 H :    0.155897
   7 H :    0.167928
   8 H :    0.187481
   9 H :    0.178191
  10 H :    0.182558
  11 H :    0.269149
  12 H :    0.280516
  13 H :    0.269901

  Mayer bond orders larger than 0.100000
B(  0-C ,  1-C ) :   0.9535 B(  0-C ,  5-O ) :   0.9230 B(  0-C ,  6-H ) :   0.9658
B(  0-C ,  7-H ) :   0.9598 B(  1-C ,  2-C ) :   0.9151 B(  1-C ,  4-O ) :   0.9477
B(  1-C ,  8-H ) :   0.9461 B(  2-C ,  3-O ) :   0.9811 B(  2-C ,  9-H ) :   0.9746
B(  2-C , 10-H ) :   0.9770 B(  3-O , 11-H ) :   0.8905 B(  4-O , 12-H ) :   0.8645
B(  5-O , 13-H ) :   0.8965

Dispersion correction           -0.003070390
FINAL SINGLE POINT ENERGY      -344.725095076477

DIPOLE MOMENT
-------------

Method             : SCF
Type of density    : Electron Density
Multiplicity       :   1
Irrep              :   0
Energy             :  -344.7325674109076203 Eh
Relativity type    :
Basis              : AO
                                X                 Y                 Z
Electronic contribution:      0.690762714       0.357687667      -0.149476789
Nuclear contribution   :     -1.366915955      -0.865533107      -0.393627486
                        -----------------------------------------
Total Dipole Moment    :     -0.676153241      -0.507845440      -0.543104275
                        -----------------------------------------
Magnitude (a.u.)       :      1.005013657
Magnitude (Debye)      :      2.554541703

Rotational constants in cm-1:             0.149370             0.094366             0.069446
Rotational constants in MHz :          4477.990795          2829.018405          2081.926143

                             ****ORCA TERMINATED NORMALLY****
TOTAL RUN TIME: 0 days 0 hours 0 minutes 20 seconds 858 msec
