                         Program Version 6.0.0  -   RELEASE  -
|  1> ! r2scan-3c def2/J RI DEFGRID2 scfconv6 printgap
|  2> %output
|  3>     printlevel normal
|  4> end
|  5> %cpcm
|  6>     smd true
|  7>     smdsolvent "water"
|  8> end
|  9> * xyz 0 1
| 10> C -1.2118582959 0.2498854474 -0.4566126944
| 11> C -0.0448795731 0.5477819523 0.5014927641
| 12> C 0.910363956 -0.6509686207 0.6233692045
| 13> O 1.6169813602 -0.8754080926 -0.5779889456
| 14> O 0.6513070408 1.6982033341 0.0813878219
| 15> O -1.9161258386 -0.8748529485 0.0209049314
| 16> H -0.8190898325 0.0671709745 -1.4662868076
| 17> H -1.8518667389 1.1391939337 -0.492665702
| 18> H -0.4587321255 0.7670130821 1.4912315974
| 19> H 0.3436745933 -1.5319116223 0.9349132472
| 20> H 1.6663925038 -0.422228164 1.3779245566
| 21> H 1.0541183765 -1.3621513764 -1.194550628
| 22> H 1.3236476289 1.4156637024 -0.5605764879
| 23> H -2.7207163291 -0.9944991141 -0.5020274363
| 24> *
| 25>
| 26>                          ****END OF INPUT****

CARTESIAN COORDINATES (ANGSTROEM)
---------------------------------
  C     -1.211858    0.249885   -0.456613
  C     -0.044880    0.547782    0.501493
  C      0.910364   -0.650969    0.623369
  O      1.616981   -0.875408   -0.577989
  O      0.651307    1.698203    0.081388
  O     -1.916126   -0.874853    0.020905
  H     -0.819090    0.067171   -1.466287
  H     -1.851867    1.139194   -0.492666
  H     -0.458732    0.767013    1.491232
  H      0.343675   -1.531912    0.934913
  H      1.666393   -0.422228    1.377925
  H      1.054118   -1.362151   -1.194551
  H      1.323648    1.415664   -0.560576
  H     -2.720716   -0.994499   -0.502027

 Total Charge           Charge          ....    0
 Multiplicity           Mult            ....    1
 Number of Electrons    NEL             ....   50
 Basis Dimension        Dim             ....  169

ORBITAL ENERGIES
----------------

  NO   OCC          E(Eh)            E(eV)
   0   2.0000     -18.958772      -515.8944
   1   2.0000     -18.956043      -515.8202
   2   2.0000     -18.955061      -515.7934
   3   2.0000     -10.078798      -274.2580
   4   2.0000     -10.071653      -274.0636
   5   2.0000     -10.070435      -274.0305
   6   2.0000      -1.007094       -27.4044
   7   2.0000      -0.988967       -26.9112
   8   2.0000      -0.981816       -26.7166
   9   2.0000      -0.717348       -19.5200
  10   2.0000      -0.643664       -17.5150
  11   2.0000      -0.565106       -15.3773
  12   2.0000      -0.500546       -13.6205
  13   2.0000      -0.471153       -12.8207
  14   2.0000      -0.459745       -12.5103
  15   2.0000      -0.430747       -11.7212
  16   2.0000      -0.421171       -11.4606
  17   2.0000      -0.378067       -10.2877
  18   2.0000      -0.371131       -10.0990
  19   2.0000      -0.323991        -8.8163
  20   2.0000      -0.311560        -8.4780
  21   2.0000      -0.302481        -8.2309
  22   2.0000      -0.264504        -7.1975
  23   2.0000      -0.243041        -6.6135
  24   2.0000      -0.234268        -6.3748
  25   0.0000       0.056552         1.5388
  26   0.0000       0.062193         1.6924
  27   0.0000       0.120137         3.2691
  28   0.0000       0.127350         3.4654
  29   0.0000       0.146124         3.9762

MULLIKEN ATOMIC CHARGES
-----------------------
   0 C :   -0.169443
   1 C :    0.044379
   2 C :   -0.213870
   3 O :   -0.509982
   4 O :   -0.495018
   5 O :   -0.507054
   6 H :    0.145924
   7 H :    0.148782
   8 H :    0.162426
   9 H :    0.161235
  10 H :    0.164643
  11 H :    0.362243
  12 H :    0.354618
  13 H :    0.351116
Sum of atomic charges:    0.0000000

LOEWDIN ATOMIC CHARGES
----------------------
   0 C :    0.028420
   1 C :    0.075192
   2 C :    0.024449
   3 O :   -0.631210
   4 O :   -0.615984
   5 O :   -0.649749
   6 H :    0.168694
   7 H :    0.171846
   8 H :    0.192252
   9 H :    0.182421
  10 H :    0.185945
  11 H :    0.287208
  12 H :    0.291734
  13 H :    0.288782

  Mayer bond orders larger than 0.100000
B(  0-C ,  1-C ) :   0.9464 B(  0-C ,  5-O ) :   0.9201 B(  0-C ,  6-H ) :   0.9595
B(  0-C ,  7-H ) :   0.9609 B(  1-C ,  2-C ) :   0.9233 B(  1-C ,  4-O ) :   0.9267
B(  1-C ,  8-H ) :   0.9460 B(  2-C ,  3-O ) :   0.9713 B(  2-C ,  9-H ) :   0.9660
B(  2-C , 10-H ) :   0.9725 B(  3-O , 11-H ) :   0.8618 B(  4-O , 12-H ) :   0.8466
B(  5-O , 13-H ) :   0.8695

Dispersion correction           -0.003070390
FINAL SINGLE POINT ENERGY      -344.744645670338

DIPOLE MOMENT
-------------

Method             : SCF
Type of density    : Electron Density
Multiplicity       :   1
Irrep              :   0
Energy             :  -344.7521180047682492 Eh
Relativity type    :
Basis              : AO
                                X                 Y                 Z
Electronic contribution:      0.464774299       0.189986822      -0.398783844
Nuclear contribution   :     -1.366915955      -0.865533107      -0.393627486
                        -----------------------------------------
Total Dipole Moment    :     -0.902141656      -0.675546285      -0.792411330
                        -----------------------------------------
Magnitude (a.u.)       :      1.377729315
Magnitude (Debye)      :      3.501909618

Rotational constants in cm-1:             0.149370             0.094366             0.069446
Rotational constants in MHz :          4477.990795          2829.018405          2081.926143

                             ****ORCA TERMINATED NORMALLY****
TOTAL RUN TIME: 0 days 0 hours 0 minutes 23 seconds 898 msec
