                         Program Version 6.0.0  -   RELEASE  -
|  1> ! pbe def2-sv(p) def2/J RI DEFGRID1 loosescf d4 GCP(DFT/SV(P)) printgap
|  2> %output
|  3>     printlevel normal
|  4> end
|  5> * xyz 0 1
|  6> C -1.9233544352 0.4632078588 -0.4491611016
|  7> O -1.2386254853 -0.3421510605 0.5057623627
|  8> C 0.0423183379 -0.6948150046 0.1297016016
|  9> O 0.87147992 0.4429338822 0.0808029331
| 10> C 2.2175509588 0.1318679973 -0.2197013695
| 11> H -2.9062143818 0.6470029299 -0.0256758719
| 12> H -2.0131237562 -0.0718248823 -1.3993638283
| 13> H -1.3948790433 1.4053023491 -0.604944206
| 14> H 0.4026644423 -1.4007457209 0.8929198488
| 15> H 0.0471919563 -1.1922479849 -0.8629888043
| 16> H 2.7448826505 1.0813466383 -0.2374817201
| 17> H 2.2925544134 -0.3585759602 -1.1957016695
| 18> H 2.6448077913 -0.5215162665 0.547176859
| 19> *
| 20>
| 21>                          ****END OF INPUT****

CARTESIAN COORDINATES (ANGSTROEM)
---------------------------------
  C     -1.923354    0.463208   -0.449161
  O     -1.238625   -0.342151    0.505762
  C      0.042318   -0.694815    0.129702
  O      0.871480    0.442934    0.080803
  C      2.217551    0.131868   -0.219701
  H     -2.906214    0.647003   -0.025676
  H     -2.013124   -0.071825   -1.399364
  H     -1.394879    1.405302   -0.604944
  H      0.402664   -1.400746    0.892920
  H      0.047192   -1.192248   -0.862989
  H      2.744883    1.081347   -0.237482
  H      2.292554   -0.358576   -1.195702
  H      2.644808   -0.521516    0.547177

 Total Charge           Charge          ....    0
 Multiplicity           Mult            ....    1
 Number of Electrons    NEL             ....   42
 Basis Dimension        Dim             ....   86

ORBITAL ENERGIES
----------------

  NO   OCC          E(Eh)            E(eV)
   0   2.0000     -18.759180      -510.4632
   1   2.0000     -18.755232      -510.3558
   2   2.0000      -9.973531      -271.3936
   3   2.0000      -9.930220      -270.2150
   4   2.0000      -9.923053      -270.0200
   5   2.0000      -0.967382       -26.3238
   6   2.0000      -0.911067       -24.7914
   7   2.0000      -0.659874       -17.9561
   8   2.0000      -0.611848       -16.6492
   9   2.0000      -0.545457       -14.8426
  10   2.0000      -0.453717       -12.3463
  11   2.0000      -0.450464       -12.2577
  12   2.0000      -0.446095       -12.1389
  13   2.0000      -0.391983       -10.6664
  14   2.0000      -0.378537       -10.3005
  15   2.0000      -0.374879       -10.2010
  16   2.0000      -0.339885        -9.2488
  17   2.0000      -0.283162        -7.7052
  18   2.0000      -0.274658        -7.4738
  19   2.0000      -0.221164        -6.0182
  20   2.0000      -0.208440        -5.6720
  21   0.0000       0.038728         1.0538
  22   0.0000       0.061079         1.6621
  23   0.0000       0.083456         2.2710
  24   0.0000       0.091189         2.4814
  25   0.0000       0.099692         2.7128

MULLIKEN ATOMIC CHARGES
-----------------------
   0 C :   -0.106021
   1 O :   -0.315941
   2 C :    0.145549
   3 O :   -0.340865
   4 C :   -0.111934
   5 H :    0.116404
   6 H :    0.083371
   7 H :    0.110294
   8 H :    0.076826
   9 H :    0.043726
  10 H :    0.120648
  11 H :    0.087635
  12 H :    0.090310
Sum of atomic charges:   -0.0000000

LOEWDIN ATOMIC CHARGES
----------------------
   0 C :   -0.206978
   1 O :   -0.157604
   2 C :   -0.035013
   3 O :   -0.191852
   4 C :   -0.206376
   5 H :    0.117108
   6 H :    0.099160
   7 H :    0.108143
   8 H :    0.090418
   9 H :    0.068186
  10 H :    0.118775
  11 H :    0.097063
  12 H :    0.098970

  Mayer bond orders larger than 0.100000
B(  0-C ,  1-O ) :   0.9922 B(  0-C ,  5-H ) :   0.9654 B(  0-C ,  6-H ) :   0.9420
B(  0-C ,  7-H ) :   0.9467 B(  1-O ,  2-C ) :   1.1226 B(  2-C ,  3-O ) :   1.0024
B(  2-C ,  8-H ) :   0.9210 B(  2-C ,  9-H ) :   0.9060 B(  3-O ,  4-C ) :   1.0155
B(  4-C , 10-H ) :   0.9651 B(  4-C , 11-H ) :   0.9416 B(  4-C , 12-H ) :   0.9419

Dispersion correction           -0.007199658
FINAL SINGLE POINT ENERGY      -268.938089224926

DIPOLE MOMENT
-------------

Method             : SCF
Type of density    : Electron Density
Multiplicity       :   1
Irrep              :   0
Energy             :  -268.9975342180438247 Eh
Relativity type    :
Basis              : AO
                                X                 Y                 Z
Electronic contribution:     -1.374825945       0.226346696       2.198051745
Nuclear contribution   :      1.700031953      -0.384333829      -2.698903418
                        -----------------------------------------
Total Dipole Moment    :      0.325206007      -0.157987133      -0.500851673
                        -----------------------------------------
Magnitude (a.u.)       :      0.617714562
Magnitude (Debye)      :      1.570105637

Rotational constants in cm-1:             0.495042             0.091747             0.084209
Rotational constants in MHz :         14840.980927          2750.512664          2524.526196

                             ****ORCA TERMINATED NORMALLY****
TOTAL RUN TIME: 0 days 0 hours 0 minutes 5 seconds 195 msec
