                         Program Version 6.0.0  -   RELEASE  -
|  1> ! r2scan-3c def2/J RI DEFGRID2 scfconv6 printgap
|  2> %output
|  3>     printlevel normal
|  4> end
|  5> * xyz 0 1
|  6> C 1.8152362258 -1.3421119823 -0.1437279162
|  7> C 0.8160997453 -0.2440436043 0.2157922681
|  8> C 1.5497498339 1.0718648875 0.4694090333
|  9> C -0.2522839209 -0.0861685791 -0.8851382017
| 10> C -1.6761499279 -0.2518561501 -0.350658852
| 11> O -2.022698184 0.7009962996 0.632982559
| 12> H 2.5458853656 -1.4659126651 0.6522270837
| 13> H 2.3452511638 -1.0860207805 -1.0587997284
| 14> H 1.3061065369 -2.2916259358 -0.2910571381
| 15> H 0.3087864073 -0.5290792079 1.1439326744
| 16> H 0.85143262 1.8442803165 0.7811274891
| 17> H 2.061129804 1.4028350418 -0.4323539822
| 18> H 2.2900042265 0.9468701683 1.2563118996
| 19> H -0.1048551345 -0.8363270883 -1.6626978146
| 20> H -0.1609172743 0.8958898986 -1.3532917517
| 21> H -2.3923263007 -0.2104091736 -1.1832231735
| 22> H -1.7806321001 -1.2220405388 0.1416350788
| 23> H -2.006094424 1.5808488402 0.2323828619
| 24> *
| 25>
| 26>                          ****END OF INPUT****

CARTESIAN COORDINATES (ANGSTROEM)
---------------------------------
  C      1.815236   -1.342112   -0.143728
  C      0.816100   -0.244044    0.215792
  C      1.549750    1.071865    0.469409
  C     -0.252284   -0.086169   -0.885138
  C     -1.676150   -0.251856   -0.350659
  O     -2.022698    0.700996    0.632983
  H      2.545885   -1.465913    0.652227
  H      2.345251   -1.086021   -1.058800
  H      1.306107   -2.291626   -0.291057
  H      0.308786   -0.529079    1.143933
  H      0.851433    1.844280    0.781127
  H      2.061130    1.402835   -0.432354
  H      2.290004    0.946870    1.256312
  H     -0.104855   -0.836327   -1.662698
  H     -0.160917    0.895890   -1.353292
  H     -2.392326   -0.210409   -1.183223
  H     -1.780632   -1.222041    0.141635
  H     -2.006094    1.580849    0.232383

 Total Charge           Charge          ....    0
 Multiplicity           Mult            ....    1
 Number of Electrons    NEL             ....   50
 Basis Dimension        Dim             ....  179

ORBITAL ENERGIES
----------------

  NO   OCC          E(Eh)            E(eV)
   0   2.0000     -18.947731      -515.5940
   1   2.0000     -10.074120      -274.1307
   2   2.0000     -10.030850      -272.9533
   3   2.0000     -10.024730      -272.7868
   4   2.0000     -10.014252      -272.5017
   5   2.0000     -10.013062      -272.4693
   6   2.0000      -0.984575       -26.7917
   7   2.0000      -0.773822       -21.0568
   8   2.0000      -0.692999       -18.8575
   9   2.0000      -0.648380       -17.6433
  10   2.0000      -0.592662       -16.1272
  11   2.0000      -0.532769       -14.4974
  12   2.0000      -0.463135       -12.6026
  13   2.0000      -0.428948       -11.6723
  14   2.0000      -0.427605       -11.6357
  15   2.0000      -0.395631       -10.7657
  16   2.0000      -0.384976       -10.4757
  17   2.0000      -0.371374       -10.1056
  18   2.0000      -0.354577        -9.6485
  19   2.0000      -0.324384        -8.8269
  20   2.0000      -0.304912        -8.2971
  21   2.0000      -0.297694        -8.1007
  22   2.0000      -0.293713        -7.9923
  23   2.0000      -0.281578        -7.6621
  24   2.0000      -0.234288        -6.3753
  25   0.0000       0.059334         1.6146
  26   0.0000       0.093419         2.5421
  27   0.0000       0.106934         2.9098
  28   0.0000       0.120247         3.2721
  29   0.0000       0.122074         3.3218

MULLIKEN ATOMIC CHARGES
-----------------------
   0 C :   -0.496544
   1 C :    0.070584
   2 C :   -0.541281
   3 C :   -0.324993
   4 C :   -0.196945
   5 O :   -0.413439
   6 H :    0.143592
   7 H :    0.148488
   8 H :    0.145116
   9 H :    0.159463
  10 H :    0.150193
  11 H :    0.151446
  12 H :    0.142774
  13 H :    0.149648
  14 H :    0.149136
  15 H :    0.128676
  16 H :    0.140965
  17 H :    0.293119
Sum of atomic charges:    0.0000000

LOEWDIN ATOMIC CHARGES
----------------------
   0 C :   -0.418193
   1 C :   -0.246728
   2 C :   -0.417795
   3 C :   -0.292984
   4 C :    0.001751
   5 O :   -0.620789
   6 H :    0.152422
   7 H :    0.152590
   8 H :    0.151630
   9 H :    0.163419
  10 H :    0.153642
  11 H :    0.150836
  12 H :    0.152480
  13 H :    0.164466
  14 H :    0.159246
  15 H :    0.154761
  16 H :    0.175172
  17 H :    0.264077

  Mayer bond orders larger than 0.100000
B(  0-C ,  1-C ) :   0.8872 B(  0-C ,  6-H ) :   0.9761 B(  0-C ,  7-H ) :   0.9841
B(  0-C ,  8-H ) :   0.9767 B(  1-C ,  2-C ) :   0.8971 B(  1-C ,  3-C ) :   0.8042
B(  1-C ,  9-H ) :   0.9587 B(  2-C , 10-H ) :   0.9766 B(  2-C , 11-H ) :   0.9898
B(  2-C , 12-H ) :   0.9747 B(  3-C ,  4-C ) :   0.9263 B(  3-C , 13-H ) :   0.9673
B(  3-C , 14-H ) :   0.9828 B(  4-C ,  5-O ) :   0.9495 B(  4-C , 15-H ) :   0.9773
B(  4-C , 16-H ) :   0.9834 B(  5-O , 17-H ) :   0.8968

Dispersion correction           -0.004340188
FINAL SINGLE POINT ENERGY      -272.894990135583

DIPOLE MOMENT
-------------

Method             : SCF
Type of density    : Electron Density
Multiplicity       :   1
Irrep              :   0
Energy             :  -272.9004614160377287 Eh
Relativity type    :
Basis              : AO
                                X                 Y                 Z
Electronic contribution:     -4.758568796       1.027694818       1.125843507
Nuclear contribution   :      4.908260642      -0.900264006      -1.654726996
                        -----------------------------------------
Total Dipole Moment    :      0.149691846       0.127430812      -0.528883488
                        -----------------------------------------
Magnitude (a.u.)       :      0.564237543
Magnitude (Debye)      :      1.434177858

Rotational constants in cm-1:             0.185086             0.069566             0.058187
Rotational constants in MHz :          5548.730176          2085.545800          1744.389129

                             ****ORCA TERMINATED NORMALLY****
TOTAL RUN TIME: 0 days 0 hours 0 minutes 24 seconds 103 msec
