                         Program Version 6.0.0  -   RELEASE  -
|  1> ! r2scan-3c def2/J RI DEFGRID2 scfconv6 printgap
|  2> %output
|  3>     printlevel normal
|  4> end
|  5> %cpcm
|  6>     smd true
|  7>     smdsolvent "water"
|  8> end
|  9> * xyz 0 1
| 10> C 1.8152362258 -1.3421119823 -0.1437279162
| 11> C 0.8160997453 -0.2440436043 0.2157922681
| 12> C 1.5497498339 1.0718648875 0.4694090333
| 13> C -0.2522839209 -0.0861685791 -0.8851382017
| 14> C -1.6761499279 -0.2518561501 -0.350658852
| 15> O -2.022698184 0.7009962996 0.632982559
| 16> H 2.5458853656 -1.4659126651 0.6522270837
| 17> H 2.3452511638 -1.0860207805 -1.0587997284
| 18> H 1.3061065369 -2.2916259358 -0.2910571381
| 19> H 0.3087864073 -0.5290792079 1.1439326744
| 20> H 0.85143262 1.8442803165 0.7811274891
| 21> H 2.061129804 1.4028350418 -0.4323539822
| 22> H 2.2900042265 0.9468701683 1.2563118996
| 23> H -0.1048551345 -0.8363270883 -1.6626978146
| 24> H -0.1609172743 0.8958898986 -1.3532917517
| 25> H -2.3923263007 -0.2104091736 -1.1832231735
| 26> H -1.7806321001 -1.2220405388 0.1416350788
| 27> H -2.006094424 1.5808488402 0.2323828619
| 28> *
| 29>
| 30>                          ****END OF INPUT****

CARTESIAN COORDINATES (ANGSTROEM)
---------------------------------
  C      1.815236   -1.342112   -0.143728
  C      0.816100   -0.244044    0.215792
  C      1.549750    1.071865    0.469409
  C     -0.252284   -0.086169   -0.885138
  C     -1.676150   -0.251856   -0.350659
  O     -2.022698    0.700996    0.632983
  H      2.545885   -1.465913    0.652227
  H      2.345251   -1.086021   -1.058800
  H      1.306107   -2.291626   -0.291057
  H      0.308786   -0.529079    1.143933
  H      0.851433    1.844280    0.781127
  H      2.061130    1.402835   -0.432354
  H      2.290004    0.946870    1.256312
  H     -0.104855   -0.836327   -1.662698
  H     -0.160917    0.895890   -1.353292
  H     -2.392326   -0.210409   -1.183223
  H     -1.780632   -1.222041    0.141635
  H     -2.006094    1.580849    0.232383

 Total Charge           Charge          ....    0
 Multiplicity           Mult            ....    1
 Number of Electrons    NEL             ....   50
 Basis Dimension        Dim             ....  179

ORBITAL ENERGIES
----------------

  NO   OCC          E(Eh)            E(eV)
   0   2.0000     -18.949803      -515.6504
   1   2.0000     -10.066802      -273.9316
   2   2.0000     -10.024062      -272.7686
   3   2.0000     -10.013824      -272.4900
   4   2.0000     -10.005835      -272.2726
   5   2.0000     -10.005605      -272.2663
   6   2.0000      -0.985408       -26.8143
   7   2.0000      -0.765926       -20.8419
   8   2.0000      -0.685127       -18.6433
   9   2.0000      -0.641109       -17.4455
  10   2.0000      -0.586014       -15.9462
  11   2.0000      -0.525653       -14.3037
  12   2.0000      -0.458009       -12.4631
  13   2.0000      -0.422223       -11.4893
  14   2.0000      -0.421120       -11.4592
  15   2.0000      -0.387967       -10.5571
  16   2.0000      -0.378279       -10.2935
  17   2.0000      -0.367603       -10.0030
  18   2.0000      -0.346766        -9.4360
  19   2.0000      -0.316185        -8.6038
  20   2.0000      -0.301887        -8.2148
  21   2.0000      -0.292503        -7.9594
  22   2.0000      -0.285545        -7.7701
  23   2.0000      -0.275966        -7.5094
  24   2.0000      -0.235921        -6.4197
  25   0.0000       0.075359         2.0506
  26   0.0000       0.103888         2.8269
  27   0.0000       0.116147         3.1605
  28   0.0000       0.128471         3.4959
  29   0.0000       0.132266         3.5991

MULLIKEN ATOMIC CHARGES
-----------------------
   0 C :   -0.539936
   1 C :    0.056224
   2 C :   -0.568682
   3 C :   -0.317691
   4 C :   -0.193988
   5 O :   -0.502613
   6 H :    0.153270
   7 H :    0.159839
   8 H :    0.156963
   9 H :    0.154723
  10 H :    0.156560
  11 H :    0.163839
  12 H :    0.153795
  13 H :    0.160928
  14 H :    0.164294
  15 H :    0.139974
  16 H :    0.153016
  17 H :    0.349486
Sum of atomic charges:   -0.0000000

LOEWDIN ATOMIC CHARGES
----------------------
   0 C :   -0.425442
   1 C :   -0.247081
   2 C :   -0.426347
   3 C :   -0.290720
   4 C :    0.001675
   5 O :   -0.658396
   6 H :    0.153876
   7 H :    0.155727
   8 H :    0.154918
   9 H :    0.160003
  10 H :    0.154758
  11 H :    0.155176
  12 H :    0.153800
  13 H :    0.169076
  14 H :    0.165911
  15 H :    0.162115
  16 H :    0.177816
  17 H :    0.283134

  Mayer bond orders larger than 0.100000
B(  0-C ,  1-C ) :   0.8877 B(  0-C ,  6-H ) :   0.9750 B(  0-C ,  7-H ) :   0.9824
B(  0-C ,  8-H ) :   0.9733 B(  1-C ,  2-C ) :   0.9012 B(  1-C ,  3-C ) :   0.8015
B(  1-C ,  9-H ) :   0.9635 B(  2-C , 10-H ) :   0.9711 B(  2-C , 11-H ) :   0.9851
B(  2-C , 12-H ) :   0.9751 B(  3-C ,  4-C ) :   0.9300 B(  3-C , 13-H ) :   0.9652
B(  3-C , 14-H ) :   0.9767 B(  4-C ,  5-O ) :   0.9368 B(  4-C , 15-H ) :   0.9690
B(  4-C , 16-H ) :   0.9818 B(  5-O , 17-H ) :   0.8688

Dispersion correction           -0.004340188
FINAL SINGLE POINT ENERGY      -272.901037137014

DIPOLE MOMENT
-------------

Method             : SCF
Type of density    : Electron Density
Multiplicity       :   1
Irrep              :   0
Energy             :  -272.9065084174687286 Eh
Relativity type    :
Basis              : AO
                                X                 Y                 Z
Electronic contribution:     -4.707676083       1.085770754       0.849543449
Nuclear contribution   :      4.908260642      -0.900264006      -1.654726996
                        -----------------------------------------
Total Dipole Moment    :      0.200584559       0.185506748      -0.805183547
                        -----------------------------------------
Magnitude (a.u.)       :      0.850274933
Magnitude (Debye)      :      2.161227125

Rotational constants in cm-1:             0.185086             0.069566             0.058187
Rotational constants in MHz :          5548.730176          2085.545800          1744.389129

                             ****ORCA TERMINATED NORMALLY****
TOTAL RUN TIME: 0 days 0 hours 0 minutes 29 seconds 603 msec
