                         Program Version 6.0.0  -   RELEASE  -
|  1> ! r2scan-3c def2/J RI DEFGRID2 scfconv6 printgap
|  2> %output
|  3>     printlevel normal
|  4> end
|  5> * xyz 0 1
|  6> C -1.8161522803 0.573572076 -0.3091907369
|  7> O -0.9969565153 -0.1378979932 0.6099825059
|  8> C -2.65275e-05 -0.9028899039 3.63866e-05
|  9> O 0.9969882057 -0.1380275257 -0.60994656
| 10> C 1.8161599436 0.5736213368 0.3091140809
| 11> H -1.2106015294 1.2263780792 -0.9424933465
| 12> H -2.4992870866 1.1631335991 0.29546196
| 13> H -2.3740327966 -0.1265536436 -0.9379207163
| 14> H 0.4155863078 -1.5287115082 0.802171995
| 15> H -0.4156754878 -1.5288509475 -0.8019895729
| 16> H 2.3735758954 -0.1263806015 0.9384809734
| 17> H 1.2105661231 1.2269453048 0.9418234168
| 18> H 2.4995903296 1.1627561886 -0.295625437
| 19> *
| 20>
| 21>                          ****END OF INPUT****

CARTESIAN COORDINATES (ANGSTROEM)
---------------------------------
  C     -1.816152    0.573572   -0.309191
  O     -0.996957   -0.137898    0.609983
  C     -0.000027   -0.902890    0.000036
  O      0.996988   -0.138028   -0.609947
  C      1.816160    0.573621    0.309114
  H     -1.210602    1.226378   -0.942493
  H     -2.499287    1.163134    0.295462
  H     -2.374033   -0.126554   -0.937921
  H      0.415586   -1.528712    0.802172
  H     -0.415675   -1.528851   -0.801990
  H      2.373576   -0.126381    0.938481
  H      1.210566    1.226945    0.941823
  H      2.499590    1.162756   -0.295625

 Total Charge           Charge          ....    0
 Multiplicity           Mult            ....    1
 Number of Electrons    NEL             ....   42
 Basis Dimension        Dim             ....  145

ORBITAL ENERGIES
----------------

  NO   OCC          E(Eh)            E(eV)
   0   2.0000     -18.957515      -515.8602
   1   2.0000     -18.957512      -515.8601
   2   2.0000     -10.120844      -275.4022
   3   2.0000     -10.070402      -274.0296
   4   2.0000     -10.070396      -274.0294
   5   2.0000      -1.032828       -28.1047
   6   2.0000      -0.973046       -26.4779
   7   2.0000      -0.698634       -19.0108
   8   2.0000      -0.656375       -17.8609
   9   2.0000      -0.575969       -15.6729
  10   2.0000      -0.473903       -12.8956
  11   2.0000      -0.466250       -12.6873
  12   2.0000      -0.463626       -12.6159
  13   2.0000      -0.405857       -11.0439
  14   2.0000      -0.396683       -10.7943
  15   2.0000      -0.383224       -10.4280
  16   2.0000      -0.347731        -9.4623
  17   2.0000      -0.324587        -8.8325
  18   2.0000      -0.271323        -7.3831
  19   2.0000      -0.242377        -6.5954
  20   2.0000      -0.236710        -6.4412
  21   0.0000       0.075171         2.0455
  22   0.0000       0.079845         2.1727
  23   0.0000       0.106854         2.9076
  24   0.0000       0.126791         3.4502
  25   0.0000       0.133137         3.6228

MULLIKEN ATOMIC CHARGES
-----------------------
   0 C :   -0.302277
   1 O :   -0.242983
   2 C :   -0.039416
   3 O :   -0.242985
   4 C :   -0.302252
   5 H :    0.156753
   6 H :    0.147629
   7 H :    0.134659
   8 H :    0.125921
   9 H :    0.125925
  10 H :    0.134645
  11 H :    0.156749
  12 H :    0.147631
Sum of atomic charges:    0.0000000

LOEWDIN ATOMIC CHARGES
----------------------
   0 C :   -0.075249
   1 O :   -0.723140
   2 C :    0.228431
   3 O :   -0.723150
   4 C :   -0.075242
   5 H :    0.165642
   6 H :    0.174964
   7 H :    0.158718
   8 H :    0.184850
   9 H :    0.184849
  10 H :    0.158724
  11 H :    0.165638
  12 H :    0.174965

  Mayer bond orders larger than 0.100000
B(  0-C ,  1-O ) :   0.8805 B(  0-C ,  5-H ) :   0.9627 B(  0-C ,  6-H ) :   0.9743
B(  0-C ,  7-H ) :   0.9684 B(  1-O ,  2-C ) :   0.9627 B(  2-C ,  3-O ) :   0.9627
B(  2-C ,  8-H ) :   0.9613 B(  2-C ,  9-H ) :   0.9613 B(  3-O ,  4-C ) :   0.8805
B(  4-C , 10-H ) :   0.9684 B(  4-C , 11-H ) :   0.9627 B(  4-C , 12-H ) :   0.9743

Dispersion correction           -0.002466363
FINAL SINGLE POINT ENERGY      -269.486264478527

DIPOLE MOMENT
-------------

Method             : SCF
Type of density    : Electron Density
Multiplicity       :   1
Irrep              :   0
Energy             :  -269.4965510690570909 Eh
Relativity type    :
Basis              : AO
                                X                 Y                 Z
Electronic contribution:      0.000201981      -1.273317950       0.000050150
Nuclear contribution   :     -0.000260570       1.373808341      -0.000084584
                        -----------------------------------------
Total Dipole Moment    :     -0.000058589       0.100490391      -0.000034433
                        -----------------------------------------
Magnitude (a.u.)       :      0.100490414
Magnitude (Debye)      :      0.255426333

Rotational constants in cm-1:             0.350864             0.107009             0.100881
Rotational constants in MHz :         10518.627210          3208.056502          3024.332877

                             ****ORCA TERMINATED NORMALLY****
TOTAL RUN TIME: 0 days 0 hours 0 minutes 14 seconds 899 msec
