                         Program Version 6.0.0  -   RELEASE  -
|  1> ! r2scan-3c def2/J RI DEFGRID2 scfconv6 printgap
|  2> %output
|  3>     printlevel normal
|  4> end
|  5> %cpcm
|  6>     smd true
|  7>     smdsolvent "water"
|  8> end
|  9> * xyz 0 1
| 10> C -1.8161522803 0.573572076 -0.3091907369
| 11> O -0.9969565153 -0.1378979932 0.6099825059
| 12> C -2.65275e-05 -0.9028899039 3.63866e-05
| 13> O 0.9969882057 -0.1380275257 -0.60994656
| 14> C 1.8161599436 0.5736213368 0.3091140809
| 15> H -1.2106015294 1.2263780792 -0.9424933465
| 16> H -2.4992870866 1.1631335991 0.29546196
| 17> H -2.3740327966 -0.1265536436 -0.9379207163
| 18> H 0.4155863078 -1.5287115082 0.802171995
| 19> H -0.4156754878 -1.5288509475 -0.8019895729
| 20> H 2.3735758954 -0.1263806015 0.9384809734
| 21> H 1.2105661231 1.2269453048 0.9418234168
| 22> H 2.4995903296 1.1627561886 -0.295625437
| 23> *
| 24>
| 25>                          ****END OF INPUT****

CARTESIAN COORDINATES (ANGSTROEM)
---------------------------------
  C     -1.816152    0.573572   -0.309191
  O     -0.996957   -0.137898    0.609983
  C     -0.000027   -0.902890    0.000036
  O      0.996988   -0.138028   -0.609947
  C      1.816160    0.573621    0.309114
  H     -1.210602    1.226378   -0.942493
  H     -2.499287    1.163134    0.295462
  H     -2.374033   -0.126554   -0.937921
  H      0.415586   -1.528712    0.802172
  H     -0.415675   -1.528851   -0.801990
  H      2.373576   -0.126381    0.938481
  H      1.210566    1.226945    0.941823
  H      2.499590    1.162756   -0.295625

 Total Charge           Charge          ....    0
 Multiplicity           Mult            ....    1
 Number of Electrons    NEL             ....   42
 Basis Dimension        Dim             ....  145

ORBITAL ENERGIES
----------------

  NO   OCC          E(Eh)            E(eV)
   0   2.0000     -18.963513      -516.0234
   1   2.0000     -18.963511      -516.0234
   2   2.0000     -10.118123      -275.3281
   3   2.0000     -10.064333      -273.8644
   4   2.0000     -10.064326      -273.8642
   5   2.0000      -1.037206       -28.2238
   6   2.0000      -0.978038       -26.6138
   7   2.0000      -0.696847       -18.9622
   8   2.0000      -0.653553       -17.7841
   9   2.0000      -0.572185       -15.5700
  10   2.0000      -0.472626       -12.8608
  11   2.0000      -0.466506       -12.6943
  12   2.0000      -0.464618       -12.6429
  13   2.0000      -0.402202       -10.9445
  14   2.0000      -0.393337       -10.7033
  15   2.0000      -0.382002       -10.3948
  16   2.0000      -0.341400        -9.2900
  17   2.0000      -0.327126        -8.9015
  18   2.0000      -0.275493        -7.4966
  19   2.0000      -0.245828        -6.6893
  20   2.0000      -0.242738        -6.6052
  21   0.0000       0.075750         2.0613
  22   0.0000       0.082786         2.2527
  23   0.0000       0.115264         3.1365
  24   0.0000       0.137064         3.7297
  25   0.0000       0.140620         3.8265

MULLIKEN ATOMIC CHARGES
-----------------------
   0 C :   -0.317063
   1 O :   -0.299550
   2 C :   -0.044697
   3 O :   -0.299549
   4 C :   -0.317062
   5 H :    0.161908
   6 H :    0.166249
   7 H :    0.158856
   8 H :    0.151943
   9 H :    0.151952
  10 H :    0.158853
  11 H :    0.161905
  12 H :    0.166255
Sum of atomic charges:    0.0000000

LOEWDIN ATOMIC CHARGES
----------------------
   0 C :   -0.074933
   1 O :   -0.754224
   2 C :    0.228607
   3 O :   -0.754235
   4 C :   -0.074930
   5 H :    0.168926
   6 H :    0.181848
   7 H :    0.168711
   8 H :    0.195369
   9 H :    0.195370
  10 H :    0.168720
  11 H :    0.168920
  12 H :    0.181851

  Mayer bond orders larger than 0.100000
B(  0-C ,  1-O ) :   0.8701 B(  0-C ,  5-H ) :   0.9591 B(  0-C ,  6-H ) :   0.9666
B(  0-C ,  7-H ) :   0.9621 B(  1-O ,  2-C ) :   0.9553 B(  2-C ,  3-O ) :   0.9553
B(  2-C ,  8-H ) :   0.9546 B(  2-C ,  9-H ) :   0.9546 B(  3-O ,  4-C ) :   0.8701
B(  4-C , 10-H ) :   0.9621 B(  4-C , 11-H ) :   0.9591 B(  4-C , 12-H ) :   0.9666

Dispersion correction           -0.002466363
FINAL SINGLE POINT ENERGY      -269.489847230270

DIPOLE MOMENT
-------------

Method             : SCF
Type of density    : Electron Density
Multiplicity       :   1
Irrep              :   0
Energy             :  -269.5001338208003858 Eh
Relativity type    :
Basis              : AO
                                X                 Y                 Z
Electronic contribution:      0.000179231      -1.293691368       0.000047927
Nuclear contribution   :     -0.000260570       1.373808341      -0.000084584
                        -----------------------------------------
Total Dipole Moment    :     -0.000081339       0.080116973      -0.000036657
                        -----------------------------------------
Magnitude (a.u.)       :      0.080117023
Magnitude (Debye)      :      0.203641289

Rotational constants in cm-1:             0.350864             0.107009             0.100881
Rotational constants in MHz :         10518.627210          3208.056502          3024.332877

                             ****ORCA TERMINATED NORMALLY****
TOTAL RUN TIME: 0 days 0 hours 0 minutes 19 seconds 654 msec
