                         Program Version 6.0.0  -   RELEASE  -
|  1> ! pbe def2-sv(p) def2/J RI DEFGRID1 loosescf d4 GCP(DFT/SV(P)) printgap
|  2> %output
|  3>     printlevel normal
|  4> end
|  5> * xyz 0 1
|  6> C 2.3254268578 -0.4009245294 -0.8781843009
|  7> O 1.1860768957 -0.8233127738 -0.1084025154
|  8> S 0.0094972717 0.1979765846 0.028951859
|  9> O -0.2254259328 0.8719921296 -1.2157585596
| 10> O 0.1838034083 1.041028994 1.1766733463
| 11> O -1.1067915787 -0.8668866638 0.3085982649
| 12> C -2.379471002 -0.3018082153 0.6645065503
| 13> H 1.9740804311 0.1417170493 -1.7550006981
| 14> H 2.8458485848 -1.3137302096 -1.1586008839
| 15> H 2.9581665952 0.2398223623 -0.2648016267
| 16> H -2.2444854886 0.3647234015 1.516018213
| 17> H -3.0155611582 -1.1464765765 0.9167689178
| 18> H -2.7740167137 0.2527925373 -0.1865626019
| 19> *
| 20>
| 21>                          ****END OF INPUT****

CARTESIAN COORDINATES (ANGSTROEM)
---------------------------------
  C      2.325427   -0.400925   -0.878184
  O      1.186077   -0.823313   -0.108403
  S      0.009497    0.197977    0.028952
  O     -0.225426    0.871992   -1.215759
  O      0.183803    1.041029    1.176673
  O     -1.106792   -0.866887    0.308598
  C     -2.379471   -0.301808    0.664507
  H      1.974080    0.141717   -1.755001
  H      2.845849   -1.313730   -1.158601
  H      2.958167    0.239822   -0.264802
  H     -2.244485    0.364723    1.516018
  H     -3.015561   -1.146477    0.916769
  H     -2.774017    0.252793   -0.186563

 Total Charge           Charge          ....    0
 Multiplicity           Mult            ....    1
 Number of Electrons    NEL             ....   66
 Basis Dimension        Dim             ....  114

ORBITAL ENERGIES
----------------

  NO   OCC          E(Eh)            E(eV)
   0   2.0000     -88.284263     -2402.3369
   1   2.0000     -18.818497      -512.0773
   2   2.0000     -18.816557      -512.0246
   3   2.0000     -18.749886      -510.2103
   4   2.0000     -18.747364      -510.1417
   5   2.0000      -9.961582      -271.0684
   6   2.0000      -9.959711      -271.0175
   7   2.0000      -7.895021      -214.8344
   8   2.0000      -5.922560      -161.1610
   9   2.0000      -5.922377      -161.1561
  10   2.0000      -5.918955      -161.0629
  11   2.0000      -1.098694       -29.8970
  12   2.0000      -0.984613       -26.7927
  13   2.0000      -0.953960       -25.9586
  14   2.0000      -0.918530       -24.9945
  15   2.0000      -0.711773       -19.3683
  16   2.0000      -0.649219       -17.6662
  17   2.0000      -0.549665       -14.9572
  18   2.0000      -0.521154       -14.1813
  19   2.0000      -0.467246       -12.7144
  20   2.0000      -0.452561       -12.3148
  21   2.0000      -0.435446       -11.8491
  22   2.0000      -0.428440       -11.6584
  23   2.0000      -0.418012       -11.3747
  24   2.0000      -0.393957       -10.7201
  25   2.0000      -0.362234        -9.8569
  26   2.0000      -0.353327        -9.6145
  27   2.0000      -0.307668        -8.3721
  28   2.0000      -0.303149        -8.2491
  29   2.0000      -0.302189        -8.2230
  30   2.0000      -0.289045        -7.8653
  31   2.0000      -0.258676        -7.0389
  32   2.0000      -0.238554        -6.4914
  33   0.0000       0.013536         0.3683
  34   0.0000       0.037272         1.0142
  35   0.0000       0.051807         1.4098
  36   0.0000       0.059853         1.6287
  37   0.0000       0.083152         2.2627

MULLIKEN ATOMIC CHARGES
-----------------------
   0 C :   -0.124066
   1 O :   -0.372374
   2 S :    0.947726
   3 O :   -0.399779
   4 O :   -0.393738
   5 O :   -0.369922
   6 C :   -0.120194
   7 H :    0.144196
   8 H :    0.142004
   9 H :    0.133320
  10 H :    0.137633
  11 H :    0.143339
  12 H :    0.131857
Sum of atomic charges:   -0.0000000

LOEWDIN ATOMIC CHARGES
----------------------
   0 C :   -0.214697
   1 O :   -0.264922
   2 S :    1.122454
   3 O :   -0.456165
   4 O :   -0.454457
   5 O :   -0.266001
   6 C :   -0.218780
   7 H :    0.123854
   8 H :    0.131580
   9 H :    0.121907
  10 H :    0.122166
  11 H :    0.132391
  12 H :    0.120670

  Mayer bond orders larger than 0.100000
B(  0-C ,  1-O ) :   0.9002 B(  0-C ,  7-H ) :   0.9376 B(  0-C ,  8-H ) :   0.9573
B(  0-C ,  9-H ) :   0.9532 B(  1-O ,  2-S ) :   1.0457 B(  2-S ,  3-O ) :   1.7789
B(  2-S ,  4-O ) :   1.8076 B(  2-S ,  5-O ) :   1.0440 B(  5-O ,  6-C ) :   0.9020
B(  6-C , 10-H ) :   0.9431 B(  6-C , 11-H ) :   0.9570 B(  6-C , 12-H ) :   0.9487

Dispersion correction           -0.011439200
FINAL SINGLE POINT ENERGY      -777.742048113288

DIPOLE MOMENT
-------------

Method             : SCF
Type of density    : Electron Density
Multiplicity       :   1
Irrep              :   0
Energy             :  -777.8007538606200342 Eh
Relativity type    :
Basis              : AO
                                X                 Y                 Z
Electronic contribution:      0.231084558       0.755143500       0.712791397
Nuclear contribution   :     -0.239856793      -1.373194930      -0.872989320
                        -----------------------------------------
Total Dipole Moment    :     -0.008772235      -0.618051429      -0.160197923
                        -----------------------------------------
Magnitude (a.u.)       :      0.638535744
Magnitude (Debye)      :      1.623028876

Rotational constants in cm-1:             0.152172             0.058307             0.056490
Rotational constants in MHz :          4561.996361          1747.997386          1693.540441

                             ****ORCA TERMINATED NORMALLY****
TOTAL RUN TIME: 0 days 0 hours 0 minutes 7 seconds 484 msec
