                         Program Version 6.0.0  -   RELEASE  -
|  1> ! pbe def2-sv(p) def2/J RI DEFGRID1 loosescf d4 GCP(DFT/SV(P)) printgap
|  2> %output
|  3>     printlevel normal
|  4> end
|  5> * xyz 0 1
|  6> C -1.109929855 -0.0551858013 0.7156314662
|  7> C 0.2340899541 0.5992385068 0.3342700054
|  8> C 1.1320881205 -0.3695864998 -0.4572903612
|  9> O 1.6651251029 -1.4034072082 0.3347215462
| 10> O 0.0343001322 1.797090239 -0.3869771952
| 11> O -1.8364510728 -0.5127586248 -0.4046206227
| 12> H -1.697646267 0.6609027886 1.2992577688
| 13> H -0.9178008518 -0.9317006872 1.3371421784
| 14> H 0.7463594117 0.8905473468 1.2568225874
| 15> H 1.9910723232 0.1870468459 -0.8409120717
| 16> H 0.5623634899 -0.7795599152 -1.3016026768
| 17> H 0.9649734798 -2.0327376253 0.5542735838
| 18> H -0.253112912 1.5795874961 -1.2856860199
| 19> H -2.2746311693 0.2370843232 -0.8287554487
| 20> *
| 21>
| 22>                          ****END OF INPUT****

CARTESIAN COORDINATES (ANGSTROEM)
---------------------------------
  C     -1.109930   -0.055186    0.715631
  C      0.234090    0.599239    0.334270
  C      1.132088   -0.369586   -0.457290
  O      1.665125   -1.403407    0.334722
  O      0.034300    1.797090   -0.386977
  O     -1.836451   -0.512759   -0.404621
  H     -1.697646    0.660903    1.299258
  H     -0.917801   -0.931701    1.337142
  H      0.746359    0.890547    1.256823
  H      1.991072    0.187047   -0.840912
  H      0.562363   -0.779560   -1.301603
  H      0.964973   -2.032738    0.554274
  H     -0.253113    1.579587   -1.285686
  H     -2.274631    0.237084   -0.828755

 Total Charge           Charge          ....    0
 Multiplicity           Mult            ....    1
 Number of Electrons    NEL             ....   50
 Basis Dimension        Dim             ....  100

ORBITAL ENERGIES
----------------

  NO   OCC          E(Eh)            E(eV)
   0   2.0000     -18.761885      -510.5368
   1   2.0000     -18.755944      -510.3752
   2   2.0000     -18.748870      -510.1827
   3   2.0000      -9.937063      -270.4012
   4   2.0000      -9.935941      -270.3707
   5   2.0000      -9.928411      -270.1658
   6   2.0000      -0.945553       -25.7298
   7   2.0000      -0.925156       -25.1748
   8   2.0000      -0.920001       -25.0345
   9   2.0000      -0.677959       -18.4482
  10   2.0000      -0.613200       -16.6860
  11   2.0000      -0.551743       -15.0137
  12   2.0000      -0.480901       -13.0860
  13   2.0000      -0.468932       -12.7603
  14   2.0000      -0.441509       -12.0141
  15   2.0000      -0.419029       -11.4024
  16   2.0000      -0.393161       -10.6985
  17   2.0000      -0.358107        -9.7446
  18   2.0000      -0.354438        -9.6448
  19   2.0000      -0.308034        -8.3820
  20   2.0000      -0.286295        -7.7905
  21   2.0000      -0.278581        -7.5806
  22   2.0000      -0.254524        -6.9259
  23   2.0000      -0.230884        -6.2827
  24   2.0000      -0.202000        -5.4967
  25   0.0000       0.000992         0.0270
  26   0.0000       0.021519         0.5856
  27   0.0000       0.061018         1.6604
  28   0.0000       0.068306         1.8587
  29   0.0000       0.085342         2.3223

MULLIKEN ATOMIC CHARGES
-----------------------
   0 C :    0.006745
   1 C :    0.001128
   2 C :    0.002850
   3 O :   -0.434060
   4 O :   -0.427955
   5 O :   -0.438044
   6 H :    0.091240
   7 H :    0.072699
   8 H :    0.076935
   9 H :    0.096830
  10 H :    0.069222
  11 H :    0.301246
  12 H :    0.287495
  13 H :    0.293671
Sum of atomic charges:    0.0000000

LOEWDIN ATOMIC CHARGES
----------------------
   0 C :   -0.141704
   1 C :   -0.102859
   2 C :   -0.143223
   3 O :   -0.333858
   4 O :   -0.321325
   5 O :   -0.338978
   6 H :    0.106553
   7 H :    0.105982
   8 H :    0.118218
   9 H :    0.114808
  10 H :    0.094726
  11 H :    0.283326
  12 H :    0.276241
  13 H :    0.282092

  Mayer bond orders larger than 0.100000
B(  0-C ,  1-C ) :   1.0124 B(  0-C ,  5-O ) :   1.0552 B(  0-C ,  6-H ) :   0.9235
B(  0-C ,  7-H ) :   0.9144 B(  1-C ,  2-C ) :   1.0314 B(  1-C ,  4-O ) :   1.0224
B(  1-C ,  8-H ) :   0.8880 B(  2-C ,  3-O ) :   1.0722 B(  2-C ,  9-H ) :   0.9279
B(  2-C , 10-H ) :   0.9093 B(  3-O , 11-H ) :   0.8495 B(  4-O , 12-H ) :   0.8478
B(  5-O , 13-H ) :   0.8487

Dispersion correction           -0.009288814
FINAL SINGLE POINT ENERGY      -344.006192012939

DIPOLE MOMENT
-------------

Method             : SCF
Type of density    : Electron Density
Multiplicity       :   1
Irrep              :   0
Energy             :  -344.0796885092505590 Eh
Relativity type    :
Basis              : AO
                                X                 Y                 Z
Electronic contribution:      0.074986699       0.229009584      -0.459165078
Nuclear contribution   :     -0.826147615      -0.178923173       0.171974241
                        -----------------------------------------
Total Dipole Moment    :     -0.751160915       0.050086412      -0.287190838
                        -----------------------------------------
Magnitude (a.u.)       :      0.805748066
Magnitude (Debye)      :      2.048048824

Rotational constants in cm-1:             0.145015             0.092401             0.067667
Rotational constants in MHz :          4347.445262          2770.119170          2028.600639

                             ****ORCA TERMINATED NORMALLY****
TOTAL RUN TIME: 0 days 0 hours 0 minutes 6 seconds 975 msec
