                         Program Version 6.0.0  -   RELEASE  -
|  1> ! pbe def2-sv(p) def2/J RI DEFGRID1 loosescf d4 GCP(DFT/SV(P)) printgap
|  2> %output
|  3>     printlevel normal
|  4> end
|  5> * xyz 0 1
|  6> C 1.8259602734 -0.5352662401 1.2974452956
|  7> C 1.4897139111 -0.0264100881 -0.1062784105
|  8> C 1.7518151075 1.4765168141 -0.2288149889
|  9> C 0.0531996827 -0.3502406862 -0.463550411
| 10> O -0.2064776264 -1.0738443505 -1.4058497815
| 11> C -1.048916625 0.2537371083 0.3864430177
| 12> C -1.8658473547 -0.8816754331 1.0095974166
| 13> C -1.9357504452 1.1251362609 -0.5075297628
| 14> H 1.2474043361 -0.0132237938 2.0541005605
| 15> H 2.8814524944 -0.3709699721 1.4971179504
| 16> H 1.6222863576 -1.6008612034 1.3738622352
| 17> H 2.1178537029 -0.5543623208 -0.832700148
| 18> H 2.8057764302 1.6741483298 -0.0526023916
| 19> H 1.4975299542 1.826068788 -1.2268051633
| 20> H 1.1705080557 2.0375531164 0.4972215522
| 21> H -0.622758186 0.8686046812 1.1800679749
| 22> H -1.2502387548 -1.4723117212 1.6838686591
| 23> H -2.704948501 -0.4742268395 1.5668136044
| 24> H -2.2453725484 -1.535047147 0.2270458624
| 25> H -2.317795761 0.5333818351 -1.3364912112
| 26> H -2.7739290712 1.5132909415 0.0646545449
| 27> H -1.3697750407 1.9608640231 -0.9121013655
| 28> *
| 29>
| 30>                          ****END OF INPUT****

CARTESIAN COORDINATES (ANGSTROEM)
---------------------------------
  C      1.825960   -0.535266    1.297445
  C      1.489714   -0.026410   -0.106278
  C      1.751815    1.476517   -0.228815
  C      0.053200   -0.350241   -0.463550
  O     -0.206478   -1.073844   -1.405850
  C     -1.048917    0.253737    0.386443
  C     -1.865847   -0.881675    1.009597
  C     -1.935750    1.125136   -0.507530
  H      1.247404   -0.013224    2.054101
  H      2.881452   -0.370970    1.497118
  H      1.622286   -1.600861    1.373862
  H      2.117854   -0.554362   -0.832700
  H      2.805776    1.674148   -0.052602
  H      1.497530    1.826069   -1.226805
  H      1.170508    2.037553    0.497222
  H     -0.622758    0.868605    1.180068
  H     -1.250239   -1.472312    1.683869
  H     -2.704949   -0.474227    1.566814
  H     -2.245373   -1.535047    0.227046
  H     -2.317796    0.533382   -1.336491
  H     -2.773929    1.513291    0.064655
  H     -1.369775    1.960864   -0.912101

 Total Charge           Charge          ....    0
 Multiplicity           Mult            ....    1
 Number of Electrons    NEL             ....   64
 Basis Dimension        Dim             ....  140

ORBITAL ENERGIES
----------------

  NO   OCC          E(Eh)            E(eV)
   0   2.0000     -18.733690      -509.7696
   1   2.0000      -9.964541      -271.1489
   2   2.0000      -9.901559      -269.4351
   3   2.0000      -9.901005      -269.4201
   4   2.0000      -9.887482      -269.0521
   5   2.0000      -9.887467      -269.0517
   6   2.0000      -9.879815      -268.8434
   7   2.0000      -9.879733      -268.8412
   8   2.0000      -0.931857       -25.3571
   9   2.0000      -0.738666       -20.1001
  10   2.0000      -0.713244       -19.4084
  11   2.0000      -0.626023       -17.0349
  12   2.0000      -0.614778       -16.7290
  13   2.0000      -0.577796       -15.7226
  14   2.0000      -0.535283       -14.5658
  15   2.0000      -0.455881       -12.4052
  16   2.0000      -0.439846       -11.9688
  17   2.0000      -0.411746       -11.2042
  18   2.0000      -0.397027       -10.8036
  19   2.0000      -0.391032       -10.6405
  20   2.0000      -0.376487       -10.2447
  21   2.0000      -0.367069        -9.9885
  22   2.0000      -0.349552        -9.5118
  23   2.0000      -0.345356        -9.3976
  24   2.0000      -0.332673        -9.0525
  25   2.0000      -0.329909        -8.9773
  26   2.0000      -0.324718        -8.8360
  27   2.0000      -0.304073        -8.2742
  28   2.0000      -0.296815        -8.0767
  29   2.0000      -0.291276        -7.9260
  30   2.0000      -0.290849        -7.9144
  31   2.0000      -0.189006        -5.1431
  32   0.0000      -0.048540        -1.3208
  33   0.0000       0.024328         0.6620
  34   0.0000       0.055354         1.5062
  35   0.0000       0.065364         1.7787
  36   0.0000       0.067727         1.8430

MULLIKEN ATOMIC CHARGES
-----------------------
   0 C :   -0.260492
   1 C :   -0.150794
   2 C :   -0.260044
   3 C :    0.060534
   4 O :   -0.167798
   5 C :   -0.196603
   6 C :   -0.243033
   7 C :   -0.243766
   8 H :    0.106657
   9 H :    0.109967
  10 H :    0.117893
  11 H :    0.073285
  12 H :    0.109861
  13 H :    0.117888
  14 H :    0.106537
  15 H :    0.079218
  16 H :    0.101445
  17 H :    0.102427
  18 H :    0.116283
  19 H :    0.116386
  20 H :    0.102452
  21 H :    0.101697
Sum of atomic charges:   -0.0000000

LOEWDIN ATOMIC CHARGES
----------------------
   0 C :   -0.325383
   1 C :   -0.175716
   2 C :   -0.325274
   3 C :    0.068611
   4 O :   -0.128954
   5 C :   -0.180852
   6 C :   -0.319950
   7 C :   -0.319971
   8 H :    0.119165
   9 H :    0.125128
  10 H :    0.124487
  11 H :    0.125352
  12 H :    0.125057
  13 H :    0.124492
  14 H :    0.119155
  15 H :    0.114271
  16 H :    0.118491
  17 H :    0.119986
  18 H :    0.126659
  19 H :    0.126706
  20 H :    0.120025
  21 H :    0.118515

  Mayer bond orders larger than 0.100000
B(  0-C ,  1-C ) :   1.0914 B(  0-C ,  8-H ) :   0.9393 B(  0-C ,  9-H ) :   0.9453
B(  0-C , 10-H ) :   0.9487 B(  1-C ,  2-C ) :   1.0915 B(  1-C ,  3-C ) :   0.9975
B(  1-C , 11-H ) :   0.8777 B(  2-C , 12-H ) :   0.9453 B(  2-C , 13-H ) :   0.9487
B(  2-C , 14-H ) :   0.9393 B(  3-C ,  4-O ) :   2.1777 B(  3-C ,  5-C ) :   0.9152
B(  5-C ,  6-C ) :   1.0963 B(  5-C ,  7-C ) :   1.0967 B(  5-C , 15-H ) :   0.8909
B(  6-C , 16-H ) :   0.9498 B(  6-C , 17-H ) :   0.9487 B(  6-C , 18-H ) :   0.9433
B(  7-C , 19-H ) :   0.9433 B(  7-C , 20-H ) :   0.9486 B(  7-C , 21-H ) :   0.9497

Dispersion correction           -0.019323020
FINAL SINGLE POINT ENERGY      -349.568803005889

DIPOLE MOMENT
-------------

Method             : SCF
Type of density    : Electron Density
Multiplicity       :   1
Irrep              :   0
Energy             :  -349.6420207833111249 Eh
Relativity type    :
Basis              : AO
                                X                 Y                 Z
Electronic contribution:      0.195435960      -3.518292202      -4.643976163
Nuclear contribution   :      0.051344267       4.105341904       5.405538907
                        -----------------------------------------
Total Dipole Moment    :      0.246780226       0.587049702       0.761562744
                        -----------------------------------------
Magnitude (a.u.)       :      0.992726370
Magnitude (Debye)      :      2.523309903

Rotational constants in cm-1:             0.088424             0.048556             0.045195
Rotational constants in MHz :          2650.881286          1455.670583          1354.901658

                             ****ORCA TERMINATED NORMALLY****
TOTAL RUN TIME: 0 days 0 hours 0 minutes 10 seconds 927 msec
