                         Program Version 6.0.0  -   RELEASE  -
|  1> ! pbe def2-sv(p) def2/J RI DEFGRID1 loosescf d4 GCP(DFT/SV(P)) printgap
|  2> %output
|  3>     printlevel normal
|  4> end
|  5> * xyz 0 1
|  6> C 2.2449720759 0.5414207681 -0.8892465994
|  7> C 1.0635368638 -0.1442721286 -0.2075785894
|  8> H 0.6271382115 -0.8673704129 -0.9130242214
|  9> C 0.0018045735 0.8823970239 0.2254321417
| 10> C -1.459765641 0.4100672899 0.1686702611
| 11> C -1.9318692752 0.2150443789 -1.2716349034
| 12> C -1.7009607316 -0.8575406665 0.9869301395
| 13> O 1.5957407275 -0.8548637983 0.9031966322
| 14> H 2.6656095041 1.2921880927 -0.2254684102
| 15> H 3.0147169708 -0.1942274775 -1.1074420278
| 16> H 1.9252044513 1.0111004349 -1.8141035038
| 17> H 0.2437984857 1.1895250965 1.2460424017
| 18> H 0.0933901444 1.7647098955 -0.4096670932
| 19> H -2.0621191572 1.2134808156 0.6093883075
| 20> H -2.9891335482 -0.0385841915 -1.2883458028
| 21> H -1.3840131653 -0.5875976508 -1.7590460881
| 22> H -1.7881505459 1.1261990298 -1.8471262961
| 23> H -1.3633398062 -0.7230395391 2.0121773241
| 24> H -2.7635862287 -1.0888918071 1.0098832486
| 25> H -1.1868457167 -1.708371091 0.5453979381
| 26> H 0.8757504067 -1.2973565546 1.3710277494
| 27> *
| 28>
| 29>                          ****END OF INPUT****

CARTESIAN COORDINATES (ANGSTROEM)
---------------------------------
  C      2.244972    0.541421   -0.889247
  C      1.063537   -0.144272   -0.207579
  H      0.627138   -0.867370   -0.913024
  C      0.001805    0.882397    0.225432
  C     -1.459766    0.410067    0.168670
  C     -1.931869    0.215044   -1.271635
  C     -1.700961   -0.857541    0.986930
  O      1.595741   -0.854864    0.903197
  H      2.665610    1.292188   -0.225468
  H      3.014717   -0.194227   -1.107442
  H      1.925204    1.011100   -1.814104
  H      0.243798    1.189525    1.246042
  H      0.093390    1.764710   -0.409667
  H     -2.062119    1.213481    0.609388
  H     -2.989134   -0.038584   -1.288346
  H     -1.384013   -0.587598   -1.759046
  H     -1.788151    1.126199   -1.847126
  H     -1.363340   -0.723040    2.012177
  H     -2.763586   -1.088892    1.009883
  H     -1.186846   -1.708371    0.545398
  H      0.875750   -1.297357    1.371028

 Total Charge           Charge          ....    0
 Multiplicity           Mult            ....    1
 Number of Electrons    NEL             ....   58
 Basis Dimension        Dim             ....  126

ORBITAL ENERGIES
----------------

  NO   OCC          E(Eh)            E(eV)
   0   2.0000     -18.733573      -509.7664
   1   2.0000      -9.933232      -270.2970
   2   2.0000      -9.899434      -269.3773
   3   2.0000      -9.882661      -268.9209
   4   2.0000      -9.878772      -268.8151
   5   2.0000      -9.875970      -268.7388
   6   2.0000      -9.867947      -268.5205
   7   2.0000      -0.910915       -24.7873
   8   2.0000      -0.734073       -19.9751
   9   2.0000      -0.676996       -18.4220
  10   2.0000      -0.617451       -16.8017
  11   2.0000      -0.608681       -16.5630
  12   2.0000      -0.532438       -14.4884
  13   2.0000      -0.496482       -13.5100
  14   2.0000      -0.460551       -12.5322
  15   2.0000      -0.411899       -11.2083
  16   2.0000      -0.403441       -10.9782
  17   2.0000      -0.395036       -10.7495
  18   2.0000      -0.369699       -10.0600
  19   2.0000      -0.354520        -9.6470
  20   2.0000      -0.342286        -9.3141
  21   2.0000      -0.335172        -9.1205
  22   2.0000      -0.322915        -8.7870
  23   2.0000      -0.317895        -8.6504
  24   2.0000      -0.299361        -8.1460
  25   2.0000      -0.288112        -7.8399
  26   2.0000      -0.280804        -7.6411
  27   2.0000      -0.258816        -7.0427
  28   2.0000      -0.206497        -5.6191
  29   0.0000       0.020726         0.5640
  30   0.0000       0.049633         1.3506
  31   0.0000       0.059203         1.6110
  32   0.0000       0.069960         1.9037
  33   0.0000       0.082963         2.2575

MULLIKEN ATOMIC CHARGES
-----------------------
   0 C :   -0.244281
   1 C :   -0.004674
   2 H :    0.069000
   3 C :   -0.133665
   4 C :   -0.164118
   5 C :   -0.251931
   6 C :   -0.284422
   7 O :   -0.432942
   8 H :    0.101331
   9 H :    0.105905
  10 H :    0.096786
  11 H :    0.083835
  12 H :    0.078648
  13 H :    0.072948
  14 H :    0.098998
  15 H :    0.101104
  16 H :    0.099003
  17 H :    0.104503
  18 H :    0.105929
  19 H :    0.104828
  20 H :    0.293214
Sum of atomic charges:   -0.0000000

LOEWDIN ATOMIC CHARGES
----------------------
   0 C :   -0.338225
   1 C :   -0.055697
   2 H :    0.094274
   3 C :   -0.233775
   4 C :   -0.157524
   5 C :   -0.332507
   6 C :   -0.339988
   7 O :   -0.335335
   8 H :    0.122172
   9 H :    0.123133
  10 H :    0.119726
  11 H :    0.119204
  12 H :    0.118187
  13 H :    0.116791
  14 H :    0.118414
  15 H :    0.114998
  16 H :    0.117719
  17 H :    0.116416
  18 H :    0.122641
  19 H :    0.114283
  20 H :    0.275093

  Mayer bond orders larger than 0.100000
B(  0-C ,  1-C ) :   1.1224 B(  0-C ,  8-H ) :   0.9446 B(  0-C ,  9-H ) :   0.9448
B(  0-C , 10-H ) :   0.9460 B(  1-C ,  2-H ) :   0.9123 B(  1-C ,  3-C ) :   1.0404
B(  1-C ,  7-O ) :   1.0567 B(  3-C ,  4-C ) :   1.0912 B(  3-C , 11-H ) :   0.9021
B(  3-C , 12-H ) :   0.9158 B(  4-C ,  5-C ) :   1.1124 B(  4-C ,  6-C ) :   1.1035
B(  4-C , 13-H ) :   0.9012 B(  5-C , 14-H ) :   0.9494 B(  5-C , 15-H ) :   0.9414
B(  5-C , 16-H ) :   0.9505 B(  6-C , 17-H ) :   0.9460 B(  6-C , 18-H ) :   0.9460
B(  6-C , 19-H ) :   0.9349 B(  7-O , 20-H ) :   0.8464

Dispersion correction           -0.016649671
FINAL SINGLE POINT ENERGY      -311.515676405752

DIPOLE MOMENT
-------------

Method             : SCF
Type of density    : Electron Density
Multiplicity       :   1
Irrep              :   0
Energy             :  -311.5954980351970107 Eh
Relativity type    :
Basis              : AO
                                X                 Y                 Z
Electronic contribution:      3.136533380      -0.979117240       2.310174099
Nuclear contribution   :     -3.814889173       1.011566947      -2.397963702
                        -----------------------------------------
Total Dipole Moment    :     -0.678355793       0.032449707      -0.087789603
                        -----------------------------------------
Magnitude (a.u.)       :      0.684782140
Magnitude (Debye)      :      1.740577874

Rotational constants in cm-1:             0.127754             0.056054             0.045214
Rotational constants in MHz :          3829.972063          1680.457232          1355.474437

                             ****ORCA TERMINATED NORMALLY****
TOTAL RUN TIME: 0 days 0 hours 0 minutes 10 seconds 187 msec
