                         Program Version 6.0.0  -   RELEASE  -
|  1> ! pbe def2-sv(p) def2/J RI DEFGRID1 loosescf d4 GCP(DFT/SV(P)) printgap
|  2> %output
|  3>     printlevel normal
|  4> end
|  5> * xyz 0 1
|  6> C 5.5011341868 -0.6416112567 -0.1254323378
|  7> C 4.4618148473 0.4668736984 -0.0138496021
|  8> C 3.0491080985 -0.0826672879 -0.0480297033
|  9> O 2.7928897991 -1.2695296964 -0.1560368474
| 10> N 2.1061544264 0.8984487934 0.0554734465
| 11> C 0.7194412926 0.7906098301 0.0634666867
| 12> C -0.0324671587 1.9619886335 0.1832747193
| 13> C -1.4108253388 1.9143590301 0.1972141267
| 14> C -2.0660878098 0.696444567 0.0918214848
| 15> C -1.3235049704 -0.4710247767 -0.0276024657
| 16> C 0.0592773513 -0.4315174485 -0.0423795726
| 17> Cl -2.1241621776 -2.0034624158 -0.1605113548
| 18> Cl -3.7987002505 0.6365872717 0.1095015446
| 19> H 5.371679159 -1.1875370369 -1.056635664
| 20> H 5.3867057845 -1.3492319044 0.6919617316
| 21> H 6.5038050905 -0.2256053897 -0.0955654419
| 22> H 4.5784425659 1.1705418555 -0.8400344964
| 23> H 4.5980210588 1.0116024495 0.9221048711
| 24> H 2.4508169834 1.8469631447 0.1396769078
| 25> H 0.4631205278 2.9157682104 0.2661020237
| 26> H -1.9908132471 2.8172811697 0.2896064194
| 27> H 0.622332235 -1.3449186079 -0.1355679086
| 28> *
| 29>
| 30>                          ****END OF INPUT****

CARTESIAN COORDINATES (ANGSTROEM)
---------------------------------
  C      5.501134   -0.641611   -0.125432
  C      4.461815    0.466874   -0.013850
  C      3.049108   -0.082667   -0.048030
  O      2.792890   -1.269530   -0.156037
  N      2.106154    0.898449    0.055473
  C      0.719441    0.790610    0.063467
  C     -0.032467    1.961989    0.183275
  C     -1.410825    1.914359    0.197214
  C     -2.066088    0.696445    0.091821
  C     -1.323505   -0.471025   -0.027602
  C      0.059277   -0.431517   -0.042380
  Cl    -2.124162   -2.003462   -0.160511
  Cl    -3.798700    0.636587    0.109502
  H      5.371679   -1.187537   -1.056636
  H      5.386706   -1.349232    0.691962
  H      6.503805   -0.225605   -0.095565
  H      4.578443    1.170542   -0.840034
  H      4.598021    1.011602    0.922105
  H      2.450817    1.846963    0.139677
  H      0.463121    2.915768    0.266102
  H     -1.990813    2.817281    0.289606
  H      0.622332   -1.344919   -0.135568

 Total Charge           Charge          ....    0
 Multiplicity           Mult            ....    1
 Number of Electrons    NEL             ....  112
 Basis Dimension        Dim             ....  208

ORBITAL ENERGIES
----------------

  NO   OCC          E(Eh)            E(eV)
   0   2.0000    -100.641312     -2738.5893
   1   2.0000    -100.640738     -2738.5737
   2   2.0000     -18.733980      -509.7775
   3   2.0000     -14.049218      -382.2987
   4   2.0000      -9.999282      -272.0943
   5   2.0000      -9.960254      -271.0323
   6   2.0000      -9.959525      -271.0124
   7   2.0000      -9.955742      -270.9095
   8   2.0000      -9.916112      -269.8311
   9   2.0000      -9.914898      -269.7981
  10   2.0000      -9.908657      -269.6283
  11   2.0000      -9.905221      -269.5348
  12   2.0000      -9.883152      -268.9342
  13   2.0000      -9.177124      -249.7222
  14   2.0000      -9.176550      -249.7066
  15   2.0000      -7.008678      -190.7158
  16   2.0000      -7.008134      -190.7010
  17   2.0000      -6.997095      -190.4006
  18   2.0000      -6.996596      -190.3871
  19   2.0000      -6.996336      -190.3800
  20   2.0000      -6.995670      -190.3619
  21   2.0000      -0.954234       -25.9660
  22   2.0000      -0.874489       -23.7960
  23   2.0000      -0.832799       -22.6616
  24   2.0000      -0.778384       -21.1809
  25   2.0000      -0.764355       -20.7992
  26   2.0000      -0.714645       -19.4465
  27   2.0000      -0.680512       -18.5177
  28   2.0000      -0.667215       -18.1558
  29   2.0000      -0.602634       -16.3985
  30   2.0000      -0.577787       -15.7224
  31   2.0000      -0.549908       -14.9638
  32   2.0000      -0.532361       -14.4863
  33   2.0000      -0.496339       -13.5061
  34   2.0000      -0.451970       -12.2987
  35   2.0000      -0.445583       -12.1249
  36   2.0000      -0.437692       -11.9102
  37   2.0000      -0.433971       -11.8090
  38   2.0000      -0.409093       -11.1320
  39   2.0000      -0.397484       -10.8161
  40   2.0000      -0.390989       -10.6393
  41   2.0000      -0.373120       -10.1531
  42   2.0000      -0.365177        -9.9370
  43   2.0000      -0.360087        -9.7985
  44   2.0000      -0.340903        -9.2764
  45   2.0000      -0.337362        -9.1801
  46   2.0000      -0.327712        -8.9175
  47   2.0000      -0.322368        -8.7721
  48   2.0000      -0.309379        -8.4186
  49   2.0000      -0.302825        -8.2403
  50   2.0000      -0.279954        -7.6179
  51   2.0000      -0.264380        -7.1942
  52   2.0000      -0.256926        -6.9913
  53   2.0000      -0.230682        -6.2772
  54   2.0000      -0.216662        -5.8957
  55   2.0000      -0.201943        -5.4951
  56   0.0000      -0.057222        -1.5571
  57   0.0000      -0.053407        -1.4533
  58   0.0000      -0.013136        -0.3574
  59   0.0000      -0.004871        -0.1325
  60   0.0000       0.007527         0.2048

MULLIKEN ATOMIC CHARGES
-----------------------
   0 C :   -0.251388
   1 C :   -0.244413
   2 C :    0.091441
   3 O :   -0.202490
   4 N :   -0.188108
   5 C :    0.211944
   6 C :   -0.131233
   7 C :   -0.112922
   8 C :    0.090129
   9 C :    0.088131
  10 C :   -0.192153
  11 Cl:   -0.052236
  12 Cl:   -0.062993
  13 H :    0.115814
  14 H :    0.115899
  15 H :    0.102201
  16 H :    0.113661
  17 H :    0.113317
  18 H :    0.230706
  19 H :    0.037324
  20 H :    0.054425
  21 H :    0.072945
Sum of atomic charges:   -0.0000000

LOEWDIN ATOMIC CHARGES
----------------------
   0 C :   -0.334794
   1 C :   -0.267686
   2 C :    0.034385
   3 O :   -0.166706
   4 N :   -0.107327
   5 C :    0.006554
   6 C :   -0.148893
   7 C :   -0.128457
   8 C :   -0.166781
   9 C :   -0.143698
  10 C :   -0.155045
  11 Cl:    0.144624
  12 Cl:    0.135299
  13 H :    0.128236
  14 H :    0.128283
  15 H :    0.121241
  16 H :    0.134593
  17 H :    0.134377
  18 H :    0.240552
  19 H :    0.125323
  20 H :    0.135360
  21 H :    0.150561

  Mayer bond orders larger than 0.100000
B(  0-C ,  1-C ) :   1.1761 B(  0-C , 13-H ) :   0.9531 B(  0-C , 14-H ) :   0.9530
B(  0-C , 15-H ) :   0.9467 B(  1-C ,  2-C ) :   0.9917 B(  1-C , 16-H ) :   0.9052
B(  1-C , 17-H ) :   0.9055 B(  2-C ,  3-O ) :   2.0415 B(  2-C ,  4-N ) :   1.1622
B(  4-N ,  5-C ) :   1.0977 B(  4-N , 18-H ) :   0.8430 B(  5-C ,  6-C ) :   1.2914
B(  5-C , 10-C ) :   1.3358 B(  6-C ,  7-C ) :   1.3694 B(  6-C , 19-H ) :   0.9592
B(  7-C ,  8-C ) :   1.3751 B(  7-C , 20-H ) :   0.9626 B(  8-C ,  9-C ) :   1.4120
B(  8-C , 12-Cl) :   1.0280 B(  9-C , 10-C ) :   1.3279 B(  9-C , 11-Cl) :   1.0446
B( 10-C , 21-H ) :   0.9489

Dispersion correction           -0.027620919
FINAL SINGLE POINT ENERGY     -1397.095842585780

DIPOLE MOMENT
-------------

Method             : SCF
Type of density    : Electron Density
Multiplicity       :   1
Irrep              :   0
Energy             : -1397.1566105509007230 Eh
Relativity type    :
Basis              : AO
                                X                 Y                 Z
Electronic contribution:    -33.126230969      -5.520872315      -0.101335976
Nuclear contribution   :     34.256583684       7.126026344       0.236879253
                        -----------------------------------------
Total Dipole Moment    :      1.130352714       1.605154029       0.135543277
                        -----------------------------------------
Magnitude (a.u.)       :      1.967889401
Magnitude (Debye)      :      5.001977344

Rotational constants in cm-1:             0.049152             0.009195             0.007768
Rotational constants in MHz :          1473.537192           275.660728           232.889120

                             ****ORCA TERMINATED NORMALLY****
TOTAL RUN TIME: 0 days 0 hours 0 minutes 14 seconds 616 msec
