                         Program Version 6.0.0  -   RELEASE  -
|  1> ! pbe def2-sv(p) def2/J RI DEFGRID1 loosescf d4 GCP(DFT/SV(P)) printgap
|  2> %output
|  3>     printlevel normal
|  4> end
|  5> * xyz 0 1
|  6> C -1.0090994396 -0.432328735 -0.3535320571
|  7> C 0.1327313908 0.379992647 0.264322467
|  8> C 1.4815212216 -0.0833055234 -0.3111387331
|  9> O 1.6879595383 -1.433869001 0.0334524417
| 10> O -0.0266004277 1.7681041318 0.1037017232
| 11> O -2.208079273 -0.149870539 0.3335815916
| 12> H -0.74334098 -1.4920418195 -0.2659743929
| 13> H -1.1049437388 -0.1703585134 -1.4175231073
| 14> H 0.1295646055 0.2093196901 1.3456608257
| 15> H 2.2639551345 0.5595576588 0.1089832762
| 16> H 1.4689058723 0.0377942736 -1.4039888382
| 17> H 2.5772000646 -1.7009812497 -0.238895466
| 18> H -0.2124998505 1.9673195997 -0.8256828987
| 19> H -2.9116295488 -0.7207741351 -0.0041409736
| 20> *
| 21>
| 22>                          ****END OF INPUT****

CARTESIAN COORDINATES (ANGSTROEM)
---------------------------------
  C     -1.009099   -0.432329   -0.353532
  C      0.132731    0.379993    0.264322
  C      1.481521   -0.083306   -0.311139
  O      1.687960   -1.433869    0.033452
  O     -0.026600    1.768104    0.103702
  O     -2.208079   -0.149871    0.333582
  H     -0.743341   -1.492042   -0.265974
  H     -1.104944   -0.170359   -1.417523
  H      0.129565    0.209320    1.345661
  H      2.263955    0.559558    0.108983
  H      1.468906    0.037794   -1.403989
  H      2.577200   -1.700981   -0.238895
  H     -0.212500    1.967320   -0.825683
  H     -2.911630   -0.720774   -0.004141

 Total Charge           Charge          ....    0
 Multiplicity           Mult            ....    1
 Number of Electrons    NEL             ....   50
 Basis Dimension        Dim             ....  100

ORBITAL ENERGIES
----------------

  NO   OCC          E(Eh)            E(eV)
   0   2.0000     -18.752047      -510.2691
   1   2.0000     -18.741235      -509.9749
   2   2.0000     -18.738603      -509.9033
   3   2.0000      -9.932710      -270.2828
   4   2.0000      -9.930515      -270.2230
   5   2.0000      -9.925694      -270.0919
   6   2.0000      -0.931931       -25.3591
   7   2.0000      -0.921173       -25.0664
   8   2.0000      -0.907327       -24.6896
   9   2.0000      -0.678037       -18.4503
  10   2.0000      -0.600502       -16.3405
  11   2.0000      -0.539656       -14.6848
  12   2.0000      -0.474735       -12.9182
  13   2.0000      -0.462407       -12.5827
  14   2.0000      -0.424502       -11.5513
  15   2.0000      -0.418182       -11.3793
  16   2.0000      -0.390818       -10.6347
  17   2.0000      -0.367418        -9.9980
  18   2.0000      -0.334826        -9.1111
  19   2.0000      -0.302753        -8.2383
  20   2.0000      -0.286834        -7.8051
  21   2.0000      -0.260666        -7.0931
  22   2.0000      -0.223082        -6.0704
  23   2.0000      -0.214500        -5.8369
  24   2.0000      -0.207043        -5.6339
  25   0.0000       0.020265         0.5515
  26   0.0000       0.026064         0.7092
  27   0.0000       0.042524         1.1571
  28   0.0000       0.082297         2.2394
  29   0.0000       0.094580         2.5737

MULLIKEN ATOMIC CHARGES
-----------------------
   0 C :    0.000194
   1 C :    0.026766
   2 C :    0.007031
   3 O :   -0.432341
   4 O :   -0.419773
   5 O :   -0.425613
   6 H :    0.090124
   7 H :    0.042298
   8 H :    0.083791
   9 H :    0.085771
  10 H :    0.048981
  11 H :    0.302544
  12 H :    0.292119
  13 H :    0.298107
Sum of atomic charges:   -0.0000000

LOEWDIN ATOMIC CHARGES
----------------------
   0 C :   -0.140748
   1 C :   -0.076700
   2 C :   -0.138723
   3 O :   -0.344275
   4 O :   -0.313364
   5 O :   -0.344229
   6 H :    0.106825
   7 H :    0.085677
   8 H :    0.122776
   9 H :    0.102108
  10 H :    0.086630
  11 H :    0.288216
  12 H :    0.280802
  13 H :    0.285006

  Mayer bond orders larger than 0.100000
B(  0-C ,  1-C ) :   1.0708 B(  0-C ,  5-O ) :   1.1051 B(  0-C ,  6-H ) :   0.9094
B(  0-C ,  7-H ) :   0.8995 B(  1-C ,  2-C ) :   1.0367 B(  1-C ,  4-O ) :   1.0437
B(  1-C ,  8-H ) :   0.8878 B(  2-C ,  3-O ) :   1.0711 B(  2-C ,  9-H ) :   0.9209
B(  2-C , 10-H ) :   0.9064 B(  3-O , 11-H ) :   0.8491 B(  4-O , 12-H ) :   0.8518
B(  5-O , 13-H ) :   0.8534

Dispersion correction           -0.008976962
FINAL SINGLE POINT ENERGY      -344.002419902230

DIPOLE MOMENT
-------------

Method             : SCF
Type of density    : Electron Density
Multiplicity       :   1
Irrep              :   0
Energy             :  -344.0749952918390022 Eh
Relativity type    :
Basis              : AO
                                X                 Y                 Z
Electronic contribution:     -0.978561478       0.671094340       1.427409562
Nuclear contribution   :      1.368379298      -1.226423388      -2.527542089
                        -----------------------------------------
Total Dipole Moment    :      0.389817820      -0.555329048      -1.100132528
                        -----------------------------------------
Magnitude (a.u.)       :      1.292532345
Magnitude (Debye)      :      3.285356130

Rotational constants in cm-1:             0.169420             0.081037             0.059140
Rotational constants in MHz :          5079.074926          2429.442273          1772.987501

                             ****ORCA TERMINATED NORMALLY****
TOTAL RUN TIME: 0 days 0 hours 0 minutes 6 seconds 951 msec
