                         Program Version 6.0.0  -   RELEASE  -
|  1> ! pbe def2-sv(p) def2/J RI DEFGRID1 loosescf d4 GCP(DFT/SV(P)) printgap
|  2> %output
|  3>     printlevel normal
|  4> end
|  5> * xyz 0 1
|  6> C -1.2010101224 0.1565499522 -0.4923676696
|  7> C -0.047196793 0.4828375246 0.4798474402
|  8> C 0.9927960255 -0.6481255679 0.5747894954
|  9> O 1.762719811 -0.8410437284 -0.5839285475
| 10> O 0.6337044227 1.6552182737 0.0904295244
| 11> O -2.119540865 -0.7673446423 0.0398550349
| 12> H -0.8073080986 -0.1865710303 -1.4572711752
| 13> H -1.7789309983 1.0668029259 -0.6724616098
| 14> H -0.4835884769 0.6018423533 1.483986707
| 15> H 0.4817687457 -1.5784170166 0.8606180829
| 16> H 1.7119171953 -0.3917524662 1.3551705868
| 17> H 1.1847075219 -0.9342174345 -1.3535899115
| 18> H 0.0413043201 2.4169949013 0.1490789979
| 19> H -1.7014341652 -1.633905993 0.1352578756
| 20> *
| 21>
| 22>                          ****END OF INPUT****

CARTESIAN COORDINATES (ANGSTROEM)
---------------------------------
  C     -1.201010    0.156550   -0.492368
  C     -0.047197    0.482838    0.479847
  C      0.992796   -0.648126    0.574789
  O      1.762720   -0.841044   -0.583929
  O      0.633704    1.655218    0.090430
  O     -2.119541   -0.767345    0.039855
  H     -0.807308   -0.186571   -1.457271
  H     -1.778931    1.066803   -0.672462
  H     -0.483588    0.601842    1.483987
  H      0.481769   -1.578417    0.860618
  H      1.711917   -0.391752    1.355171
  H      1.184708   -0.934217   -1.353590
  H      0.041304    2.416995    0.149079
  H     -1.701434   -1.633906    0.135258

 Total Charge           Charge          ....    0
 Multiplicity           Mult            ....    1
 Number of Electrons    NEL             ....   50
 Basis Dimension        Dim             ....  100

ORBITAL ENERGIES
----------------

  NO   OCC          E(Eh)            E(eV)
   0   2.0000     -18.757843      -510.4269
   1   2.0000     -18.751926      -510.2659
   2   2.0000     -18.746107      -510.1075
   3   2.0000      -9.942071      -270.5375
   4   2.0000      -9.940990      -270.5081
   5   2.0000      -9.935753      -270.3656
   6   2.0000      -0.940930       -25.6040
   7   2.0000      -0.928288       -25.2600
   8   2.0000      -0.915587       -24.9144
   9   2.0000      -0.680660       -18.5217
  10   2.0000      -0.620626       -16.8881
  11   2.0000      -0.544898       -14.8274
  12   2.0000      -0.484400       -13.1812
  13   2.0000      -0.477288       -12.9877
  14   2.0000      -0.447030       -12.1643
  15   2.0000      -0.409685       -11.1481
  16   2.0000      -0.393820       -10.7164
  17   2.0000      -0.366799        -9.9811
  18   2.0000      -0.352558        -9.5936
  19   2.0000      -0.310969        -8.4619
  20   2.0000      -0.292624        -7.9627
  21   2.0000      -0.271751        -7.3947
  22   2.0000      -0.242804        -6.6070
  23   2.0000      -0.220425        -5.9981
  24   2.0000      -0.209503        -5.7009
  25   0.0000       0.000858         0.0233
  26   0.0000       0.020909         0.5690
  27   0.0000       0.039978         1.0878
  28   0.0000       0.075602         2.0572
  29   0.0000       0.083400         2.2694

MULLIKEN ATOMIC CHARGES
-----------------------
   0 C :    0.015003
   1 C :   -0.040493
   2 C :    0.045284
   3 O :   -0.427371
   4 O :   -0.412982
   5 O :   -0.430012
   6 H :    0.058086
   7 H :    0.081258
   8 H :    0.067877
   9 H :    0.053074
  10 H :    0.097868
  11 H :    0.292360
  12 H :    0.301002
  13 H :    0.299045
Sum of atomic charges:   -0.0000000

LOEWDIN ATOMIC CHARGES
----------------------
   0 C :   -0.140663
   1 C :   -0.105412
   2 C :   -0.126122
   3 O :   -0.329124
   4 O :   -0.321215
   5 O :   -0.333428
   6 H :    0.088596
   7 H :    0.111690
   8 H :    0.103061
   9 H :    0.086217
  10 H :    0.122268
  11 H :    0.276902
  12 H :    0.286038
  13 H :    0.281193

  Mayer bond orders larger than 0.100000
B(  0-C ,  1-C ) :   1.0045 B(  0-C ,  5-O ) :   1.0675 B(  0-C ,  6-H ) :   0.9063
B(  0-C ,  7-H ) :   0.9272 B(  1-C ,  2-C ) :   1.0326 B(  1-C ,  4-O ) :   1.0628
B(  1-C ,  8-H ) :   0.8953 B(  2-C ,  3-O ) :   1.0803 B(  2-C ,  9-H ) :   0.9107
B(  2-C , 10-H ) :   0.9178 B(  3-O , 11-H ) :   0.8467 B(  4-O , 12-H ) :   0.8496
B(  5-O , 13-H ) :   0.8472

Dispersion correction           -0.009234754
FINAL SINGLE POINT ENERGY      -344.001449083405

DIPOLE MOMENT
-------------

Method             : SCF
Type of density    : Electron Density
Multiplicity       :   1
Irrep              :   0
Energy             :  -344.0741798459502547 Eh
Relativity type    :
Basis              : AO
                                X                 Y                 Z
Electronic contribution:      0.677739896       0.555562281      -0.473846968
Nuclear contribution   :     -1.263889232      -0.599007227       0.463090208
                        -----------------------------------------
Total Dipole Moment    :     -0.586149336      -0.043444946      -0.010756760
                        -----------------------------------------
Magnitude (a.u.)       :      0.587855607
Magnitude (Debye)      :      1.494210207

Rotational constants in cm-1:             0.152789             0.087275             0.065847
Rotational constants in MHz :          4580.502528          2616.452803          1974.053672

                             ****ORCA TERMINATED NORMALLY****
TOTAL RUN TIME: 0 days 0 hours 0 minutes 6 seconds 614 msec
