                         Program Version 6.0.0  -   RELEASE  -
|  1> ! r2scan-3c def2/J RI DEFGRID2 scfconv6 printgap
|  2> %output
|  3>     printlevel normal
|  4> end
|  5> * xyz 0 1
|  6> C 1.8851515306 1.1033278097 0.1266905847
|  7> C 1.3794267649 -0.2380551599 -0.3962449112
|  8> H 2.0218108715 -0.5396022118 -1.2424922649
|  9> C -0.0618405313 -0.1737472677 -0.9347623133
| 10> C -1.1168972595 0.4497279035 -0.0124696882
| 11> C -2.4260119985 0.6224958401 -0.7834764941
| 12> C -1.35515198 -0.3957295946 1.2362515285
| 13> O 1.5461522172 -1.1847144255 0.6480383064
| 14> H 1.3701096943 1.3618430733 1.0469108133
| 15> H 2.9473269938 1.0291222767 0.3437093738
| 16> H 1.7235431372 1.8795674397 -0.6144620769
| 17> H -0.027781275 0.4044786765 -1.8606911743
| 18> H -0.3794113467 -1.1878670108 -1.1933742057
| 19> H -0.7724137814 1.4410873691 0.2954674015
| 20> H -3.1838461993 1.0703106074 -0.1452132007
| 21> H -2.7948388826 -0.3414604011 -1.1279290682
| 22> H -2.283056171 1.2651226671 -1.6491456963
| 23> H -1.7539575673 -1.3704383083 0.961888656
| 24> H -0.4286539121 -0.5425497835 1.7841914809
| 25> H -2.0718431765 0.0936129123 1.8921700555
| 26> H 1.2923254942 -2.0595688165 0.3266259918
| 27> *
| 28>
| 29>                          ****END OF INPUT****

CARTESIAN COORDINATES (ANGSTROEM)
---------------------------------
  C      1.885152    1.103328    0.126691
  C      1.379427   -0.238055   -0.396245
  H      2.021811   -0.539602   -1.242492
  C     -0.061841   -0.173747   -0.934762
  C     -1.116897    0.449728   -0.012470
  C     -2.426012    0.622496   -0.783476
  C     -1.355152   -0.395730    1.236252
  O      1.546152   -1.184714    0.648038
  H      1.370110    1.361843    1.046911
  H      2.947327    1.029122    0.343709
  H      1.723543    1.879567   -0.614462
  H     -0.027781    0.404479   -1.860691
  H     -0.379411   -1.187867   -1.193374
  H     -0.772414    1.441087    0.295467
  H     -3.183846    1.070311   -0.145213
  H     -2.794839   -0.341460   -1.127929
  H     -2.283056    1.265123   -1.649146
  H     -1.753958   -1.370438    0.961889
  H     -0.428654   -0.542550    1.784191
  H     -2.071843    0.093613    1.892170
  H      1.292325   -2.059569    0.326626

 Total Charge           Charge          ....    0
 Multiplicity           Mult            ....    1
 Number of Electrons    NEL             ....   58
 Basis Dimension        Dim             ....  208

ORBITAL ENERGIES
----------------

  NO   OCC          E(Eh)            E(eV)
   0   2.0000     -18.944645      -515.5100
   1   2.0000     -10.081488      -274.3312
   2   2.0000     -10.030739      -272.9503
   3   2.0000     -10.024350      -272.7764
   4   2.0000     -10.016560      -272.5644
   5   2.0000     -10.013486      -272.4808
   6   2.0000     -10.005374      -272.2601
   7   2.0000      -0.983301       -26.7570
   8   2.0000      -0.775890       -21.1130
   9   2.0000      -0.720367       -19.6022
  10   2.0000      -0.650453       -17.6997
  11   2.0000      -0.644314       -17.5327
  12   2.0000      -0.563475       -15.3329
  13   2.0000      -0.523172       -14.2362
  14   2.0000      -0.474440       -12.9102
  15   2.0000      -0.438082       -11.9208
  16   2.0000      -0.418739       -11.3945
  17   2.0000      -0.398229       -10.8364
  18   2.0000      -0.384890       -10.4734
  19   2.0000      -0.362287        -9.8583
  20   2.0000      -0.353551        -9.6206
  21   2.0000      -0.349550        -9.5117
  22   2.0000      -0.330901        -9.0043
  23   2.0000      -0.327151        -8.9022
  24   2.0000      -0.304901        -8.2968
  25   2.0000      -0.300716        -8.1829
  26   2.0000      -0.291412        -7.9297
  27   2.0000      -0.277351        -7.5471
  28   2.0000      -0.226873        -6.1735
  29   0.0000       0.058689         1.5970
  30   0.0000       0.093431         2.5424
  31   0.0000       0.112585         3.0636
  32   0.0000       0.123658         3.3649
  33   0.0000       0.129473         3.5231

MULLIKEN ATOMIC CHARGES
-----------------------
   0 C :   -0.508018
   1 C :    0.025553
   2 H :    0.133729
   3 C :   -0.313620
   4 C :   -0.021444
   5 C :   -0.485417
   6 C :   -0.521070
   7 O :   -0.414980
   8 H :    0.161511
   9 H :    0.155821
  10 H :    0.149484
  11 H :    0.148486
  12 H :    0.141549
  13 H :    0.151991
  14 H :    0.147710
  15 H :    0.146137
  16 H :    0.143031
  17 H :    0.141367
  18 H :    0.188351
  19 H :    0.141661
  20 H :    0.288166
Sum of atomic charges:   -0.0000000

LOEWDIN ATOMIC CHARGES
----------------------
   0 C :   -0.385047
   1 C :    0.048007
   2 H :    0.161626
   3 C :   -0.287820
   4 C :   -0.243149
   5 C :   -0.417122
   6 C :   -0.418470
   7 O :   -0.621433
   8 H :    0.162187
   9 H :    0.161030
  10 H :    0.158501
  11 H :    0.164432
  12 H :    0.160376
  13 H :    0.158240
  14 H :    0.153132
  15 H :    0.153037
  16 H :    0.151121
  17 H :    0.151496
  18 H :    0.172432
  19 H :    0.149831
  20 H :    0.267594

  Mayer bond orders larger than 0.100000
B(  0-C ,  1-C ) :   0.9133 B(  0-C ,  8-H ) :   0.9764 B(  0-C ,  9-H ) :   0.9628
B(  0-C , 10-H ) :   0.9768 B(  1-C ,  2-H ) :   0.9734 B(  1-C ,  3-C ) :   0.9168
B(  1-C ,  7-O ) :   0.9309 B(  3-C ,  4-C ) :   0.8728 B(  3-C , 11-H ) :   0.9700
B(  3-C , 12-H ) :   0.9950 B(  4-C ,  5-C ) :   0.9054 B(  4-C ,  6-C ) :   0.9008
B(  4-C , 13-H ) :   0.9510 B(  5-C , 14-H ) :   0.9774 B(  5-C , 15-H ) :   0.9880
B(  5-C , 16-H ) :   0.9781 B(  6-C , 17-H ) :   0.9892 B(  6-C , 18-H ) :   0.9619
B(  6-C , 19-H ) :   0.9733 B(  7-O , 20-H ) :   0.8990

Dispersion correction           -0.005710339
FINAL SINGLE POINT ENERGY      -312.201675777521

DIPOLE MOMENT
-------------

Method             : SCF
Type of density    : Electron Density
Multiplicity       :   1
Irrep              :   0
Energy             :  -312.2071760370308766 Eh
Relativity type    :
Basis              : AO
                                X                 Y                 Z
Electronic contribution:      3.913966033      -2.414327936       0.592508332
Nuclear contribution   :     -4.049327392       2.331259051      -1.099614570
                        -----------------------------------------
Total Dipole Moment    :     -0.135361359      -0.083068886      -0.507106239
                        -----------------------------------------
Magnitude (a.u.)       :      0.531394274
Magnitude (Debye)      :      1.350696904

Rotational constants in cm-1:             0.132681             0.054043             0.048098
Rotational constants in MHz :          3977.677195          1620.176852          1441.939269

                             ****ORCA TERMINATED NORMALLY****
TOTAL RUN TIME: 0 days 0 hours 0 minutes 30 seconds 922 msec
