                         Program Version 6.0.0  -   RELEASE  -
|  1> ! r2scan-3c def2/J RI DEFGRID2 scfconv6 printgap
|  2> %output
|  3>     printlevel normal
|  4> end
|  5> %cpcm
|  6>     smd true
|  7>     smdsolvent "water"
|  8> end
|  9> * xyz 0 1
| 10> C 1.8851515306 1.1033278097 0.1266905847
| 11> C 1.3794267649 -0.2380551599 -0.3962449112
| 12> H 2.0218108715 -0.5396022118 -1.2424922649
| 13> C -0.0618405313 -0.1737472677 -0.9347623133
| 14> C -1.1168972595 0.4497279035 -0.0124696882
| 15> C -2.4260119985 0.6224958401 -0.7834764941
| 16> C -1.35515198 -0.3957295946 1.2362515285
| 17> O 1.5461522172 -1.1847144255 0.6480383064
| 18> H 1.3701096943 1.3618430733 1.0469108133
| 19> H 2.9473269938 1.0291222767 0.3437093738
| 20> H 1.7235431372 1.8795674397 -0.6144620769
| 21> H -0.027781275 0.4044786765 -1.8606911743
| 22> H -0.3794113467 -1.1878670108 -1.1933742057
| 23> H -0.7724137814 1.4410873691 0.2954674015
| 24> H -3.1838461993 1.0703106074 -0.1452132007
| 25> H -2.7948388826 -0.3414604011 -1.1279290682
| 26> H -2.283056171 1.2651226671 -1.6491456963
| 27> H -1.7539575673 -1.3704383083 0.961888656
| 28> H -0.4286539121 -0.5425497835 1.7841914809
| 29> H -2.0718431765 0.0936129123 1.8921700555
| 30> H 1.2923254942 -2.0595688165 0.3266259918
| 31> *
| 32>
| 33>                          ****END OF INPUT****

CARTESIAN COORDINATES (ANGSTROEM)
---------------------------------
  C      1.885152    1.103328    0.126691
  C      1.379427   -0.238055   -0.396245
  H      2.021811   -0.539602   -1.242492
  C     -0.061841   -0.173747   -0.934762
  C     -1.116897    0.449728   -0.012470
  C     -2.426012    0.622496   -0.783476
  C     -1.355152   -0.395730    1.236252
  O      1.546152   -1.184714    0.648038
  H      1.370110    1.361843    1.046911
  H      2.947327    1.029122    0.343709
  H      1.723543    1.879567   -0.614462
  H     -0.027781    0.404479   -1.860691
  H     -0.379411   -1.187867   -1.193374
  H     -0.772414    1.441087    0.295467
  H     -3.183846    1.070311   -0.145213
  H     -2.794839   -0.341460   -1.127929
  H     -2.283056    1.265123   -1.649146
  H     -1.753958   -1.370438    0.961889
  H     -0.428654   -0.542550    1.784191
  H     -2.071843    0.093613    1.892170
  H      1.292325   -2.059569    0.326626

 Total Charge           Charge          ....    0
 Multiplicity           Mult            ....    1
 Number of Electrons    NEL             ....   58
 Basis Dimension        Dim             ....  208

ORBITAL ENERGIES
----------------

  NO   OCC          E(Eh)            E(eV)
   0   2.0000     -18.945195      -515.5250
   1   2.0000     -10.074790      -274.1490
   2   2.0000     -10.023135      -272.7434
   3   2.0000     -10.013207      -272.4732
   4   2.0000     -10.009816      -272.3809
   5   2.0000     -10.005469      -272.2626
   6   2.0000     -10.001836      -272.1638
   7   2.0000      -0.982791       -26.7431
   8   2.0000      -0.768184       -20.9034
   9   2.0000      -0.714156       -19.4332
  10   2.0000      -0.643091       -17.4994
  11   2.0000      -0.638696       -17.3798
  12   2.0000      -0.557505       -15.1705
  13   2.0000      -0.516578       -14.0568
  14   2.0000      -0.468354       -12.7446
  15   2.0000      -0.431896       -11.7525
  16   2.0000      -0.412258       -11.2181
  17   2.0000      -0.391114       -10.6428
  18   2.0000      -0.379929       -10.3384
  19   2.0000      -0.359034        -9.7698
  20   2.0000      -0.346935        -9.4406
  21   2.0000      -0.343299        -9.3416
  22   2.0000      -0.325453        -8.8560
  23   2.0000      -0.320439        -8.7196
  24   2.0000      -0.301330        -8.1996
  25   2.0000      -0.296719        -8.0741
  26   2.0000      -0.284120        -7.7313
  27   2.0000      -0.271496        -7.3878
  28   2.0000      -0.226436        -6.1616
  29   0.0000       0.075164         2.0453
  30   0.0000       0.103603         2.8192
  31   0.0000       0.121640         3.3100
  32   0.0000       0.131537         3.5793
  33   0.0000       0.137385         3.7384

MULLIKEN ATOMIC CHARGES
-----------------------
   0 C :   -0.548813
   1 C :    0.039666
   2 H :    0.143718
   3 C :   -0.325386
   4 C :   -0.007285
   5 C :   -0.534276
   6 C :   -0.556256
   7 O :   -0.494790
   8 H :    0.169408
   9 H :    0.162906
  10 H :    0.170306
  11 H :    0.161435
  12 H :    0.160823
  13 H :    0.159429
  14 H :    0.157204
  15 H :    0.159195
  16 H :    0.156632
  17 H :    0.158685
  18 H :    0.172505
  19 H :    0.153251
  20 H :    0.341642
Sum of atomic charges:   -0.0000000

LOEWDIN ATOMIC CHARGES
----------------------
   0 C :   -0.394847
   1 C :    0.050101
   2 H :    0.168266
   3 C :   -0.286396
   4 C :   -0.241000
   5 C :   -0.425518
   6 C :   -0.426510
   7 O :   -0.654674
   8 H :    0.162679
   9 H :    0.160447
  10 H :    0.166479
  11 H :    0.169414
  12 H :    0.167630
  13 H :    0.160209
  14 H :    0.154656
  15 H :    0.155895
  16 H :    0.154713
  17 H :    0.156030
  18 H :    0.165399
  19 H :    0.151881
  20 H :    0.285146

  Mayer bond orders larger than 0.100000
B(  0-C ,  1-C ) :   0.9091 B(  0-C ,  8-H ) :   0.9722 B(  0-C ,  9-H ) :   0.9632
B(  0-C , 10-H ) :   0.9707 B(  1-C ,  2-H ) :   0.9664 B(  1-C ,  3-C ) :   0.9269
B(  1-C ,  7-O ) :   0.9161 B(  3-C ,  4-C ) :   0.8747 B(  3-C , 11-H ) :   0.9670
B(  3-C , 12-H ) :   0.9880 B(  4-C ,  5-C ) :   0.8947 B(  4-C ,  6-C ) :   0.8902
B(  4-C , 13-H ) :   0.9539 B(  5-C , 14-H ) :   0.9756 B(  5-C , 15-H ) :   0.9866
B(  5-C , 16-H ) :   0.9755 B(  6-C , 17-H ) :   0.9850 B(  6-C , 18-H ) :   0.9669
B(  6-C , 19-H ) :   0.9732 B(  7-O , 20-H ) :   0.8729

Dispersion correction           -0.005710339
FINAL SINGLE POINT ENERGY      -312.206373124898

DIPOLE MOMENT
-------------

Method             : SCF
Type of density    : Electron Density
Multiplicity       :   1
Irrep              :   0
Energy             :  -312.2118733844079088 Eh
Relativity type    :
Basis              : AO
                                X                 Y                 Z
Electronic contribution:      3.801311646      -2.455848114       0.299959086
Nuclear contribution   :     -4.049327392       2.331259051      -1.099614570
                        -----------------------------------------
Total Dipole Moment    :     -0.248015746      -0.124589063      -0.799655485
                        -----------------------------------------
Magnitude (a.u.)       :      0.846453271
Magnitude (Debye)      :      2.151513231

Rotational constants in cm-1:             0.132681             0.054043             0.048098
Rotational constants in MHz :          3977.677195          1620.176852          1441.939269

                             ****ORCA TERMINATED NORMALLY****
TOTAL RUN TIME: 0 days 0 hours 0 minutes 36 seconds 903 msec
