                         Program Version 6.0.0  -   RELEASE  -
|  1> ! r2scan-3c def2/J RI DEFGRID2 scfconv6 printgap
|  2> %output
|  3>     printlevel normal
|  4> end
|  5> * xyz 0 1
|  6> C -3.4393845755 0.8198756823 -0.230016775
|  7> C -2.041504211 0.4652721716 0.2693825454
|  8> C -2.0989052125 -0.7492063513 1.1920539045
|  9> C -1.1107600699 0.2039891027 -0.930449676
| 10> C 0.3067746734 0.0305361954 -0.4920501183
| 11> C 0.8941233934 -1.2275813943 -0.3374415893
| 12> N 2.138542486 -1.3814906308 0.0847928349
| 13> C 2.822804664 -0.277270124 0.3582143714
| 14> C 2.2541552305 0.978168092 0.199866078
| 15> N 1.0074502558 1.1299827753 -0.2205591822
| 16> H -4.1002287396 1.0177651148 0.6100733557
| 17> H -3.8547479828 -0.0026626449 -0.8077845327
| 18> H -3.4100327087 1.7051754318 -0.8598856652
| 19> H -1.6370465749 1.3158585076 0.8278297721
| 20> H -1.1104946272 -0.9953428904 1.5751876952
| 21> H -2.7511404292 -0.5485704546 2.0383690893
| 22> H -2.4866257166 -1.6139295856 0.6577978386
| 23> H -1.1619250683 1.0627821864 -1.6002251248
| 24> H -1.4456745569 -0.6880988201 -1.4609497751
| 25> H 0.3523513691 -2.1361527784 -0.5604248626
| 26> H 3.8367680462 -0.4130656508 0.704139214
| 27> H 2.8009593175 1.8862931479 0.4103590188
| 28> *
| 29>
| 30>                          ****END OF INPUT****

CARTESIAN COORDINATES (ANGSTROEM)
---------------------------------
  C     -3.439385    0.819876   -0.230017
  C     -2.041504    0.465272    0.269383
  C     -2.098905   -0.749206    1.192054
  C     -1.110760    0.203989   -0.930450
  C      0.306775    0.030536   -0.492050
  C      0.894123   -1.227581   -0.337442
  N      2.138542   -1.381491    0.084793
  C      2.822805   -0.277270    0.358214
  C      2.254155    0.978168    0.199866
  N      1.007450    1.129983   -0.220559
  H     -4.100229    1.017765    0.610073
  H     -3.854748   -0.002663   -0.807785
  H     -3.410033    1.705175   -0.859886
  H     -1.637047    1.315859    0.827830
  H     -1.110495   -0.995343    1.575188
  H     -2.751140   -0.548570    2.038369
  H     -2.486626   -1.613930    0.657798
  H     -1.161925    1.062782   -1.600225
  H     -1.445675   -0.688099   -1.460950
  H      0.352351   -2.136153   -0.560425
  H      3.836768   -0.413066    0.704139
  H      2.800959    1.886293    0.410359

 Total Charge           Charge          ....    0
 Multiplicity           Mult            ....    1
 Number of Electrons    NEL             ....   74
 Basis Dimension        Dim             ....  260

ORBITAL ENERGIES
----------------

  NO   OCC          E(Eh)            E(eV)
   0   2.0000     -14.173181      -385.6719
   1   2.0000     -14.171313      -385.6210
   2   2.0000     -10.083039      -274.3734
   3   2.0000     -10.077131      -274.2127
   4   2.0000     -10.074437      -274.1394
   5   2.0000     -10.074231      -274.1338
   6   2.0000     -10.042941      -273.2823
   7   2.0000     -10.036955      -273.1194
   8   2.0000     -10.020638      -272.6754
   9   2.0000     -10.020160      -272.6624
  10   2.0000      -0.954108       -25.9626
  11   2.0000      -0.879851       -23.9420
  12   2.0000      -0.792458       -21.5639
  13   2.0000      -0.747719       -20.3465
  14   2.0000      -0.676302       -18.4031
  15   2.0000      -0.656137       -17.8544
  16   2.0000      -0.629682       -17.1345
  17   2.0000      -0.599995       -16.3267
  18   2.0000      -0.535407       -14.5692
  19   2.0000      -0.495575       -13.4853
  20   2.0000      -0.486802       -13.2466
  21   2.0000      -0.453204       -12.3323
  22   2.0000      -0.430307       -11.7092
  23   2.0000      -0.423686       -11.5291
  24   2.0000      -0.407208       -11.0807
  25   2.0000      -0.391316       -10.6483
  26   2.0000      -0.379664       -10.3312
  27   2.0000      -0.359976        -9.7954
  28   2.0000      -0.354347        -9.6423
  29   2.0000      -0.343301        -9.3417
  30   2.0000      -0.321006        -8.7350
  31   2.0000      -0.305727        -8.3192
  32   2.0000      -0.303093        -8.2476
  33   2.0000      -0.299671        -8.1545
  34   2.0000      -0.275327        -7.4920
  35   2.0000      -0.249069        -6.7775
  36   2.0000      -0.214855        -5.8465
  37   0.0000      -0.078260        -2.1296
  38   0.0000      -0.049351        -1.3429
  39   0.0000       0.071651         1.9497
  40   0.0000       0.084568         2.3012
  41   0.0000       0.099382         2.7043

MULLIKEN ATOMIC CHARGES
-----------------------
   0 C :   -0.479091
   1 C :    0.020432
   2 C :   -0.538032
   3 C :   -0.466863
   4 C :    0.348041
   5 C :   -0.238517
   6 N :   -0.153516
   7 C :   -0.067847
   8 C :   -0.057510
   9 N :   -0.189933
  10 H :    0.150055
  11 H :    0.147228
  12 H :    0.149066
  13 H :    0.165987
  14 H :    0.162538
  15 H :    0.148497
  16 H :    0.151404
  17 H :    0.166722
  18 H :    0.163663
  19 H :    0.144008
  20 H :    0.136171
  21 H :    0.137499
Sum of atomic charges:   -0.0000000

LOEWDIN ATOMIC CHARGES
----------------------
   0 C :   -0.412859
   1 C :   -0.227047
   2 C :   -0.410830
   3 C :   -0.247349
   4 C :    0.146535
   5 C :    0.095610
   6 N :   -0.569607
   7 C :    0.086389
   8 C :    0.100240
   9 N :   -0.569618
  10 H :    0.154977
  11 H :    0.153816
  12 H :    0.154442
  13 H :    0.164989
  14 H :    0.160218
  15 H :    0.155408
  16 H :    0.153552
  17 H :    0.181395
  18 H :    0.167546
  19 H :    0.189102
  20 H :    0.186632
  21 H :    0.186455

  Mayer bond orders larger than 0.100000
B(  0-C ,  1-C ) :   0.8917 B(  0-C , 10-H ) :   0.9746 B(  0-C , 11-H ) :   0.9864
B(  0-C , 12-H ) :   0.9786 B(  1-C ,  2-C ) :   0.8822 B(  1-C ,  3-C ) :   0.8632
B(  1-C , 13-H ) :   0.9584 B(  2-C , 14-H ) :   0.9668 B(  2-C , 15-H ) :   0.9686
B(  2-C , 16-H ) :   0.9827 B(  3-C ,  4-C ) :   0.8698 B(  3-C ,  9-N ) :   0.1143
B(  3-C , 17-H ) :   0.9651 B(  3-C , 18-H ) :   1.0289 B(  4-C ,  5-C ) :   1.2845
B(  4-C ,  9-N ) :   1.2421 B(  5-C ,  6-N ) :   1.4762 B(  5-C ,  8-C ) :   0.1140
B(  5-C , 19-H ) :   0.9721 B(  6-N ,  7-C ) :   1.4299 B(  7-C ,  8-C ) :   1.3030
B(  7-C , 20-H ) :   0.9704 B(  8-C ,  9-N ) :   1.4547 B(  8-C , 21-H ) :   0.9658

Dispersion correction           -0.007437325
FINAL SINGLE POINT ENERGY      -421.453726669660

DIPOLE MOMENT
-------------

Method             : SCF
Type of density    : Electron Density
Multiplicity       :   1
Irrep              :   0
Energy             :  -421.4588516054786851 Eh
Relativity type    :
Basis              : AO
                                X                 Y                 Z
Electronic contribution:     13.723652573      -0.419182383      -1.417254888
Nuclear contribution   :    -14.025102660       0.552188856       1.438861654
                        -----------------------------------------
Total Dipole Moment    :     -0.301450088       0.133006472       0.021606765
                        -----------------------------------------
Magnitude (a.u.)       :      0.330196501
Magnitude (Debye)      :      0.839292806

Rotational constants in cm-1:             0.106562             0.026075             0.023736
Rotational constants in MHz :          3194.658148           781.697909           711.597436

                             ****ORCA TERMINATED NORMALLY****
TOTAL RUN TIME: 0 days 0 hours 0 minutes 36 seconds 218 msec
