                         Program Version 6.0.0  -   RELEASE  -
|  1> ! r2scan-3c def2/J RI DEFGRID2 scfconv6 printgap
|  2> %output
|  3>     printlevel normal
|  4> end
|  5> %cpcm
|  6>     smd true
|  7>     smdsolvent "water"
|  8> end
|  9> * xyz 0 1
| 10> C -3.4393845755 0.8198756823 -0.230016775
| 11> C -2.041504211 0.4652721716 0.2693825454
| 12> C -2.0989052125 -0.7492063513 1.1920539045
| 13> C -1.1107600699 0.2039891027 -0.930449676
| 14> C 0.3067746734 0.0305361954 -0.4920501183
| 15> C 0.8941233934 -1.2275813943 -0.3374415893
| 16> N 2.138542486 -1.3814906308 0.0847928349
| 17> C 2.822804664 -0.277270124 0.3582143714
| 18> C 2.2541552305 0.978168092 0.199866078
| 19> N 1.0074502558 1.1299827753 -0.2205591822
| 20> H -4.1002287396 1.0177651148 0.6100733557
| 21> H -3.8547479828 -0.0026626449 -0.8077845327
| 22> H -3.4100327087 1.7051754318 -0.8598856652
| 23> H -1.6370465749 1.3158585076 0.8278297721
| 24> H -1.1104946272 -0.9953428904 1.5751876952
| 25> H -2.7511404292 -0.5485704546 2.0383690893
| 26> H -2.4866257166 -1.6139295856 0.6577978386
| 27> H -1.1619250683 1.0627821864 -1.6002251248
| 28> H -1.4456745569 -0.6880988201 -1.4609497751
| 29> H 0.3523513691 -2.1361527784 -0.5604248626
| 30> H 3.8367680462 -0.4130656508 0.704139214
| 31> H 2.8009593175 1.8862931479 0.4103590188
| 32> *
| 33>
| 34>                          ****END OF INPUT****

CARTESIAN COORDINATES (ANGSTROEM)
---------------------------------
  C     -3.439385    0.819876   -0.230017
  C     -2.041504    0.465272    0.269383
  C     -2.098905   -0.749206    1.192054
  C     -1.110760    0.203989   -0.930450
  C      0.306775    0.030536   -0.492050
  C      0.894123   -1.227581   -0.337442
  N      2.138542   -1.381491    0.084793
  C      2.822805   -0.277270    0.358214
  C      2.254155    0.978168    0.199866
  N      1.007450    1.129983   -0.220559
  H     -4.100229    1.017765    0.610073
  H     -3.854748   -0.002663   -0.807785
  H     -3.410033    1.705175   -0.859886
  H     -1.637047    1.315859    0.827830
  H     -1.110495   -0.995343    1.575188
  H     -2.751140   -0.548570    2.038369
  H     -2.486626   -1.613930    0.657798
  H     -1.161925    1.062782   -1.600225
  H     -1.445675   -0.688099   -1.460950
  H      0.352351   -2.136153   -0.560425
  H      3.836768   -0.413066    0.704139
  H      2.800959    1.886293    0.410359

 Total Charge           Charge          ....    0
 Multiplicity           Mult            ....    1
 Number of Electrons    NEL             ....   74
 Basis Dimension        Dim             ....  260

ORBITAL ENERGIES
----------------

  NO   OCC          E(Eh)            E(eV)
   0   2.0000     -14.174205      -385.6997
   1   2.0000     -14.171350      -385.6220
   2   2.0000     -10.079736      -274.2836
   3   2.0000     -10.072424      -274.0846
   4   2.0000     -10.069921      -274.0165
   5   2.0000     -10.069845      -274.0144
   6   2.0000     -10.033410      -273.0230
   7   2.0000     -10.026217      -272.8272
   8   2.0000     -10.008433      -272.3433
   9   2.0000     -10.008180      -272.3364
  10   2.0000      -0.953152       -25.9366
  11   2.0000      -0.879770       -23.9398
  12   2.0000      -0.783693       -21.3254
  13   2.0000      -0.741214       -20.1695
  14   2.0000      -0.668818       -18.1995
  15   2.0000      -0.644924       -17.5493
  16   2.0000      -0.625645       -17.0247
  17   2.0000      -0.594878       -16.1875
  18   2.0000      -0.525727       -14.3058
  19   2.0000      -0.492061       -13.3897
  20   2.0000      -0.482305       -13.1242
  21   2.0000      -0.444150       -12.0859
  22   2.0000      -0.421387       -11.4665
  23   2.0000      -0.416103       -11.3227
  24   2.0000      -0.398175       -10.8349
  25   2.0000      -0.386229       -10.5098
  26   2.0000      -0.370535       -10.0828
  27   2.0000      -0.347781        -9.4636
  28   2.0000      -0.344528        -9.3751
  29   2.0000      -0.332885        -9.0583
  30   2.0000      -0.317700        -8.6451
  31   2.0000      -0.296723        -8.0742
  32   2.0000      -0.294648        -8.0178
  33   2.0000      -0.290421        -7.9028
  34   2.0000      -0.281076        -7.6485
  35   2.0000      -0.244394        -6.6503
  36   2.0000      -0.217109        -5.9078
  37   0.0000      -0.077867        -2.1189
  38   0.0000      -0.045844        -1.2475
  39   0.0000       0.075937         2.0664
  40   0.0000       0.089715         2.4413
  41   0.0000       0.108157         2.9431

MULLIKEN ATOMIC CHARGES
-----------------------
   0 C :   -0.527931
   1 C :    0.042006
   2 C :   -0.573965
   3 C :   -0.482709
   4 C :    0.333405
   5 C :   -0.226975
   6 N :   -0.206579
   7 C :   -0.081903
   8 C :   -0.064467
   9 N :   -0.227377
  10 H :    0.162121
  11 H :    0.162713
  12 H :    0.159931
  13 H :    0.162859
  14 H :    0.166030
  15 H :    0.160649
  16 H :    0.167275
  17 H :    0.178487
  18 H :    0.185836
  19 H :    0.173120
  20 H :    0.168014
  21 H :    0.169461
Sum of atomic charges:   -0.0000000

LOEWDIN ATOMIC CHARGES
----------------------
   0 C :   -0.420007
   1 C :   -0.224163
   2 C :   -0.417023
   3 C :   -0.247980
   4 C :    0.149154
   5 C :    0.100710
   6 N :   -0.605226
   7 C :    0.087903
   8 C :    0.103542
   9 N :   -0.597695
  10 H :    0.157672
  11 H :    0.157936
  12 H :    0.156768
  13 H :    0.162814
  14 H :    0.160444
  15 H :    0.157726
  16 H :    0.158587
  17 H :    0.183251
  18 H :    0.177384
  19 H :    0.201038
  20 H :    0.198442
  21 H :    0.198723

  Mayer bond orders larger than 0.100000
B(  0-C ,  1-C ) :   0.8813 B(  0-C , 10-H ) :   0.9722 B(  0-C , 11-H ) :   0.9856
B(  0-C , 12-H ) :   0.9760 B(  1-C ,  2-C ) :   0.8787 B(  1-C ,  3-C ) :   0.8629
B(  1-C , 13-H ) :   0.9618 B(  2-C , 14-H ) :   0.9655 B(  2-C , 15-H ) :   0.9676
B(  2-C , 16-H ) :   0.9785 B(  3-C ,  4-C ) :   0.8777 B(  3-C ,  9-N ) :   0.1227
B(  3-C , 17-H ) :   0.9700 B(  3-C , 18-H ) :   1.0103 B(  4-C ,  5-C ) :   1.3045
B(  4-C ,  9-N ) :   1.2402 B(  5-C ,  6-N ) :   1.4744 B(  5-C ,  8-C ) :   0.1137
B(  5-C , 19-H ) :   0.9558 B(  6-N ,  7-C ) :   1.4252 B(  7-C ,  8-C ) :   1.3179
B(  7-C , 20-H ) :   0.9595 B(  8-C ,  9-N ) :   1.4448 B(  8-C , 21-H ) :   0.9553

Dispersion correction           -0.007437325
FINAL SINGLE POINT ENERGY      -421.462466465740

DIPOLE MOMENT
-------------

Method             : SCF
Type of density    : Electron Density
Multiplicity       :   1
Irrep              :   0
Energy             :  -421.4675914015581384 Eh
Relativity type    :
Basis              : AO
                                X                 Y                 Z
Electronic contribution:     13.634395477      -0.454536344      -1.447876610
Nuclear contribution   :    -14.025102660       0.552188856       1.438861654
                        -----------------------------------------
Total Dipole Moment    :     -0.390707183       0.097652512      -0.009014957
                        -----------------------------------------
Magnitude (a.u.)       :      0.402826744
Magnitude (Debye)      :      1.023904212

Rotational constants in cm-1:             0.106562             0.026075             0.023736
Rotational constants in MHz :          3194.658148           781.697909           711.597436

                             ****ORCA TERMINATED NORMALLY****
TOTAL RUN TIME: 0 days 0 hours 0 minutes 49 seconds 760 msec
