                         Program Version 6.0.0  -   RELEASE  -
|  1> ! pbe def2-sv(p) def2/J RI DEFGRID1 loosescf d4 GCP(DFT/SV(P)) printgap
|  2> %output
|  3>     printlevel normal
|  4> end
|  5> * xyz 0 1
|  6> C 1.7806539261 -0.6168451322 1.0888569001
|  7> C 1.1773754227 0.4617772623 0.191706433
|  8> H 0.838578971 1.3046159148 0.8141775331
|  9> C 0.0059439289 -0.0580853713 -0.6480695393
| 10> C -1.2474273704 -0.4705645802 0.1290005883
| 11> C -1.8938484092 0.7146542356 0.8432288492
| 12> C -2.2500336202 -1.1033725306 -0.8359642916
| 13> O 2.1362003944 0.9471541806 -0.7408009424
| 14> H 2.1157462189 -1.4558760738 0.4836051201
| 15> H 2.6308812153 -0.2206759073 1.6400563712
| 16> H 1.043547611 -0.9668388541 1.8044144697
| 17> H -0.2541196251 0.7287240002 -1.3602509039
| 18> H 0.3717491145 -0.9094938521 -1.2263575167
| 19> H -0.9734722848 -1.222972007 0.8751988845
| 20> H -2.822960105 0.4053814173 1.316223896
| 21> H -2.1173165192 1.5069062601 0.1321604368
| 22> H -1.240334886 1.1156517074 1.6131420998
| 23> H -2.5462960043 -0.3850916016 -1.5972557603
| 24> H -1.8139880304 -1.9675511841 -1.3312306279
| 25> H -3.1405237637 -1.4262032571 -0.3021090859
| 26> H 2.9246898235 1.2383699556 -0.2634943604
| 27> *
| 28>
| 29>                          ****END OF INPUT****

CARTESIAN COORDINATES (ANGSTROEM)
---------------------------------
  C      1.780654   -0.616845    1.088857
  C      1.177375    0.461777    0.191706
  H      0.838579    1.304616    0.814178
  C      0.005944   -0.058085   -0.648070
  C     -1.247427   -0.470565    0.129001
  C     -1.893848    0.714654    0.843229
  C     -2.250034   -1.103373   -0.835964
  O      2.136200    0.947154   -0.740801
  H      2.115746   -1.455876    0.483605
  H      2.630881   -0.220676    1.640056
  H      1.043548   -0.966839    1.804414
  H     -0.254120    0.728724   -1.360251
  H      0.371749   -0.909494   -1.226358
  H     -0.973472   -1.222972    0.875199
  H     -2.822960    0.405381    1.316224
  H     -2.117317    1.506906    0.132160
  H     -1.240335    1.115652    1.613142
  H     -2.546296   -0.385092   -1.597256
  H     -1.813988   -1.967551   -1.331231
  H     -3.140524   -1.426203   -0.302109
  H      2.924690    1.238370   -0.263494

 Total Charge           Charge          ....    0
 Multiplicity           Mult            ....    1
 Number of Electrons    NEL             ....   58
 Basis Dimension        Dim             ....  126

ORBITAL ENERGIES
----------------

  NO   OCC          E(Eh)            E(eV)
   0   2.0000     -18.734380      -509.7884
   1   2.0000      -9.933668      -270.3088
   2   2.0000      -9.894333      -269.2385
   3   2.0000      -9.875485      -268.7256
   4   2.0000      -9.875278      -268.7200
   5   2.0000      -9.871567      -268.6190
   6   2.0000      -9.870073      -268.5783
   7   2.0000      -0.911681       -24.8081
   8   2.0000      -0.731656       -19.9094
   9   2.0000      -0.673583       -18.3291
  10   2.0000      -0.611701       -16.6452
  11   2.0000      -0.608389       -16.5551
  12   2.0000      -0.535138       -14.5619
  13   2.0000      -0.488435       -13.2910
  14   2.0000      -0.452556       -12.3147
  15   2.0000      -0.421835       -11.4787
  16   2.0000      -0.393738       -10.7142
  17   2.0000      -0.385852       -10.4996
  18   2.0000      -0.377382       -10.2691
  19   2.0000      -0.358526        -9.7560
  20   2.0000      -0.340552        -9.2669
  21   2.0000      -0.332550        -9.0491
  22   2.0000      -0.313607        -8.5337
  23   2.0000      -0.310562        -8.4508
  24   2.0000      -0.293848        -7.9960
  25   2.0000      -0.283164        -7.7053
  26   2.0000      -0.279691        -7.6108
  27   2.0000      -0.259916        -7.0727
  28   2.0000      -0.208773        -5.6810
  29   0.0000       0.026748         0.7279
  30   0.0000       0.042513         1.1568
  31   0.0000       0.065510         1.7826
  32   0.0000       0.070884         1.9289
  33   0.0000       0.079430         2.1614

MULLIKEN ATOMIC CHARGES
-----------------------
   0 C :   -0.275718
   1 C :    0.027429
   2 H :    0.060209
   3 C :   -0.115289
   4 C :   -0.195515
   5 C :   -0.252650
   6 C :   -0.232420
   7 O :   -0.427698
   8 H :    0.102202
   9 H :    0.090883
  10 H :    0.106191
  11 H :    0.083856
  12 H :    0.077928
  13 H :    0.076448
  14 H :    0.096746
  15 H :    0.094474
  16 H :    0.106228
  17 H :    0.092749
  18 H :    0.097158
  19 H :    0.096521
  20 H :    0.290271
Sum of atomic charges:   -0.0000000

LOEWDIN ATOMIC CHARGES
----------------------
   0 C :   -0.353735
   1 C :   -0.056827
   2 H :    0.094585
   3 C :   -0.218344
   4 C :   -0.158308
   5 C :   -0.331448
   6 C :   -0.326437
   7 O :   -0.336673
   8 H :    0.122293
   9 H :    0.113851
  10 H :    0.122395
  11 H :    0.120296
  12 H :    0.117181
  13 H :    0.112637
  14 H :    0.117496
  15 H :    0.118286
  16 H :    0.114129
  17 H :    0.116972
  18 H :    0.116821
  19 H :    0.115709
  20 H :    0.279121

  Mayer bond orders larger than 0.100000
B(  0-C ,  1-C ) :   1.1038 B(  0-C ,  8-H ) :   0.9419 B(  0-C ,  9-H ) :   0.9446
B(  0-C , 10-H ) :   0.9308 B(  1-C ,  2-H ) :   0.9047 B(  1-C ,  3-C ) :   1.0833
B(  1-C ,  7-O ) :   1.0612 B(  3-C ,  4-C ) :   1.0701 B(  3-C , 11-H ) :   0.9074
B(  3-C , 12-H ) :   0.9111 B(  4-C ,  5-C ) :   1.1022 B(  4-C ,  6-C ) :   1.1143
B(  4-C , 13-H ) :   0.8964 B(  5-C , 14-H ) :   0.9490 B(  5-C , 15-H ) :   0.9498
B(  5-C , 16-H ) :   0.9446 B(  6-C , 17-H ) :   0.9501 B(  6-C , 18-H ) :   0.9499
B(  6-C , 19-H ) :   0.9511 B(  7-O , 20-H ) :   0.8535

Dispersion correction           -0.016234805
FINAL SINGLE POINT ENERGY      -311.518137776509

DIPOLE MOMENT
-------------

Method             : SCF
Type of density    : Electron Density
Multiplicity       :   1
Irrep              :   0
Energy             :  -311.5975880745561994 Eh
Relativity type    :
Basis              : AO
                                X                 Y                 Z
Electronic contribution:      4.775611413       2.080775978      -1.849208912
Nuclear contribution   :     -4.643933754      -2.101552472       2.426618044
                        -----------------------------------------
Total Dipole Moment    :      0.131677659      -0.020776494       0.577409132
                        -----------------------------------------
Magnitude (a.u.)       :      0.592597650
Magnitude (Debye)      :      1.506263520

Rotational constants in cm-1:             0.141438             0.045362             0.044014
Rotational constants in MHz :          4240.209859          1359.912867          1319.507423

                             ****ORCA TERMINATED NORMALLY****
TOTAL RUN TIME: 0 days 0 hours 0 minutes 10 seconds 92 msec
