                         Program Version 6.0.0  -   RELEASE  -
|  1> ! r2scan-3c def2/J RI DEFGRID2 scfconv6 printgap
|  2> %output
|  3>     printlevel normal
|  4> end
|  5> * xyz 0 1
|  6> C -2.9432689728 0.5002797799 3.9449e-05
|  7> C -1.7756550323 -0.4791098966 -0.0026375267
|  8> C -0.4351665472 0.2521999266 0.0024672103
|  9> C 0.7370800364 -0.7394434014 0.0015869234
| 10> C 1.9957282684 -0.0518737177 0.0004186528
| 11> N 2.992483245 0.5137283346 -0.0018140489
| 12> H -3.8888939859 -0.0354991518 -0.0043840894
| 13> H -2.909967412 1.1319438558 0.8848282352
| 14> H -2.9066647256 1.1407150316 -0.8782829811
| 15> H -1.8415198749 -1.1229517247 0.8769780257
| 16> H -1.8388832903 -1.1150180806 -0.8882142647
| 17> H -0.3688532872 0.8902487594 0.8864108033
| 18> H -0.3653506242 0.8957639726 -0.8772029246
| 19> H 0.6944777843 -1.3764226732 0.8887236316
| 20> H 0.6933166749 -1.3758129956 -0.8859870095
| 21> *
| 22>
| 23>                          ****END OF INPUT****

CARTESIAN COORDINATES (ANGSTROEM)
---------------------------------
  C     -2.943269    0.500280    0.000039
  C     -1.775655   -0.479110   -0.002638
  C     -0.435167    0.252200    0.002467
  C      0.737080   -0.739443    0.001587
  C      1.995728   -0.051874    0.000419
  N      2.992483    0.513728   -0.001814
  H     -3.888894   -0.035499   -0.004384
  H     -2.909967    1.131944    0.884828
  H     -2.906665    1.140715   -0.878283
  H     -1.841520   -1.122952    0.876978
  H     -1.838883   -1.115018   -0.888214
  H     -0.368853    0.890249    0.886411
  H     -0.365351    0.895764   -0.877203
  H      0.694478   -1.376423    0.888724
  H      0.693317   -1.375813   -0.885987

 Total Charge           Charge          ....    0
 Multiplicity           Mult            ....    1
 Number of Electrons    NEL             ....   46
 Basis Dimension        Dim             ....  164

ORBITAL ENERGIES
----------------

  NO   OCC          E(Eh)            E(eV)
   0   2.0000     -14.148194      -384.9919
   1   2.0000     -10.083099      -274.3751
   2   2.0000     -10.063533      -273.8427
   3   2.0000     -10.055624      -273.6274
   4   2.0000     -10.045858      -273.3617
   5   2.0000     -10.031199      -272.9628
   6   2.0000      -0.873676       -23.7739
   7   2.0000      -0.798699       -21.7337
   8   2.0000      -0.737624       -20.0718
   9   2.0000      -0.643403       -17.5079
  10   2.0000      -0.571155       -15.5419
  11   2.0000      -0.486590       -13.2408
  12   2.0000      -0.475959       -12.9515
  13   2.0000      -0.427154       -11.6235
  14   2.0000      -0.423575       -11.5261
  15   2.0000      -0.379482       -10.3262
  16   2.0000      -0.357634        -9.7317
  17   2.0000      -0.345501        -9.4016
  18   2.0000      -0.327880        -8.9221
  19   2.0000      -0.319073        -8.6824
  20   2.0000      -0.317820        -8.6483
  21   2.0000      -0.300128        -8.1669
  22   2.0000      -0.295146        -8.0313
  23   0.0000       0.009706         0.2641
  24   0.0000       0.015130         0.4117
  25   0.0000       0.062720         1.7067
  26   0.0000       0.085850         2.3361
  27   0.0000       0.114094         3.1047

MULLIKEN ATOMIC CHARGES
-----------------------
   0 C :   -0.462685
   1 C :   -0.233011
   2 C :   -0.248647
   3 C :   -0.411292
   4 C :    0.227675
   5 N :   -0.248847
   6 H :    0.152135
   7 H :    0.144944
   8 H :    0.144881
   9 H :    0.138050
  10 H :    0.138260
  11 H :    0.153166
  12 H :    0.153247
  13 H :    0.176067
  14 H :    0.176057
Sum of atomic charges:   -0.0000000

LOEWDIN ATOMIC CHARGES
----------------------
   0 C :   -0.419504
   1 C :   -0.313818
   2 C :   -0.281798
   3 C :   -0.257697
   4 C :    0.129806
   5 N :   -0.320892
   6 H :    0.153290
   7 H :    0.151986
   8 H :    0.152000
   9 H :    0.152931
  10 H :    0.152931
  11 H :    0.164358
  12 H :    0.164395
  13 H :    0.185986
  14 H :    0.186025

  Mayer bond orders larger than 0.100000
B(  0-C ,  1-C ) :   0.9103 B(  0-C ,  6-H ) :   0.9735 B(  0-C ,  7-H ) :   0.9811
B(  0-C ,  8-H ) :   0.9809 B(  1-C ,  2-C ) :   0.9153 B(  1-C ,  9-H ) :   0.9718
B(  1-C , 10-H ) :   0.9722 B(  2-C ,  3-C ) :   0.9000 B(  2-C , 11-H ) :   0.9614
B(  2-C , 12-H ) :   0.9621 B(  3-C ,  4-C ) :   1.0175 B(  3-C , 13-H ) :   0.9787
B(  3-C , 14-H ) :   0.9795 B(  4-C ,  5-N ) :   2.8853

Dispersion correction           -0.003365241
FINAL SINGLE POINT ENERGY      -250.612608153320

DIPOLE MOMENT
-------------

Method             : SCF
Type of density    : Electron Density
Multiplicity       :   1
Irrep              :   0
Energy             :  -250.6153967257644126 Eh
Relativity type    :
Basis              : AO
                                X                 Y                 Z
Electronic contribution:     10.341566352       0.212719634      -0.000761685
Nuclear contribution   :    -11.928649967      -0.904414407       0.002682026
                        -----------------------------------------
Total Dipole Moment    :     -1.587083614      -0.691694773       0.001920341
                        -----------------------------------------
Magnitude (a.u.)       :      1.731265360
Magnitude (Debye)      :      4.400526829

Rotational constants in cm-1:             0.500670             0.045481             0.043033
Rotational constants in MHz :         15009.704961          1363.500424          1290.109769

                             ****ORCA TERMINATED NORMALLY****
TOTAL RUN TIME: 0 days 0 hours 0 minutes 14 seconds 870 msec
