                         Program Version 6.0.0  -   RELEASE  -
|  1> ! r2scan-3c def2/J RI DEFGRID2 scfconv6 printgap
|  2> %output
|  3>     printlevel normal
|  4> end
|  5> %cpcm
|  6>     smd true
|  7>     smdsolvent "water"
|  8> end
|  9> * xyz 0 1
| 10> C -2.9432689728 0.5002797799 3.9449e-05
| 11> C -1.7756550323 -0.4791098966 -0.0026375267
| 12> C -0.4351665472 0.2521999266 0.0024672103
| 13> C 0.7370800364 -0.7394434014 0.0015869234
| 14> C 1.9957282684 -0.0518737177 0.0004186528
| 15> N 2.992483245 0.5137283346 -0.0018140489
| 16> H -3.8888939859 -0.0354991518 -0.0043840894
| 17> H -2.909967412 1.1319438558 0.8848282352
| 18> H -2.9066647256 1.1407150316 -0.8782829811
| 19> H -1.8415198749 -1.1229517247 0.8769780257
| 20> H -1.8388832903 -1.1150180806 -0.8882142647
| 21> H -0.3688532872 0.8902487594 0.8864108033
| 22> H -0.3653506242 0.8957639726 -0.8772029246
| 23> H 0.6944777843 -1.3764226732 0.8887236316
| 24> H 0.6933166749 -1.3758129956 -0.8859870095
| 25> *
| 26>
| 27>                          ****END OF INPUT****

CARTESIAN COORDINATES (ANGSTROEM)
---------------------------------
  C     -2.943269    0.500280    0.000039
  C     -1.775655   -0.479110   -0.002638
  C     -0.435167    0.252200    0.002467
  C      0.737080   -0.739443    0.001587
  C      1.995728   -0.051874    0.000419
  N      2.992483    0.513728   -0.001814
  H     -3.888894   -0.035499   -0.004384
  H     -2.909967    1.131944    0.884828
  H     -2.906665    1.140715   -0.878283
  H     -1.841520   -1.122952    0.876978
  H     -1.838883   -1.115018   -0.888214
  H     -0.368853    0.890249    0.886411
  H     -0.365351    0.895764   -0.877203
  H      0.694478   -1.376423    0.888724
  H      0.693317   -1.375813   -0.885987

 Total Charge           Charge          ....    0
 Multiplicity           Mult            ....    1
 Number of Electrons    NEL             ....   46
 Basis Dimension        Dim             ....  164

ORBITAL ENERGIES
----------------

  NO   OCC          E(Eh)            E(eV)
   0   2.0000     -14.154537      -385.1645
   1   2.0000     -10.074295      -274.1355
   2   2.0000     -10.063195      -273.8335
   3   2.0000     -10.034082      -273.0413
   4   2.0000     -10.022292      -272.7204
   5   2.0000     -10.009879      -272.3827
   6   2.0000      -0.882032       -24.0013
   7   2.0000      -0.779711       -21.2170
   8   2.0000      -0.718806       -19.5597
   9   2.0000      -0.624356       -16.9896
  10   2.0000      -0.548641       -14.9293
  11   2.0000      -0.471494       -12.8300
  12   2.0000      -0.453534       -12.3413
  13   2.0000      -0.408269       -11.1096
  14   2.0000      -0.402881       -10.9629
  15   2.0000      -0.360815        -9.8183
  16   2.0000      -0.345999        -9.4151
  17   2.0000      -0.339584        -9.2405
  18   2.0000      -0.326924        -8.8960
  19   2.0000      -0.303538        -8.2597
  20   2.0000      -0.303210        -8.2508
  21   2.0000      -0.292822        -7.9681
  22   2.0000      -0.291996        -7.9456
  23   0.0000       0.007500         0.2041
  24   0.0000       0.012387         0.3371
  25   0.0000       0.069948         1.9034
  26   0.0000       0.108345         2.9482
  27   0.0000       0.134745         3.6666

MULLIKEN ATOMIC CHARGES
-----------------------
   0 C :   -0.508429
   1 C :   -0.250174
   2 C :   -0.259306
   3 C :   -0.408943
   4 C :    0.273016
   5 N :   -0.368468
   6 H :    0.160194
   7 H :    0.154930
   8 H :    0.154841
   9 H :    0.152207
  10 H :    0.152392
  11 H :    0.164872
  12 H :    0.164833
  13 H :    0.209024
  14 H :    0.209012
Sum of atomic charges:   -0.0000000

LOEWDIN ATOMIC CHARGES
----------------------
   0 C :   -0.428874
   1 C :   -0.311878
   2 C :   -0.279525
   3 C :   -0.252394
   4 C :    0.159609
   5 N :   -0.400355
   6 H :    0.154531
   7 H :    0.153495
   8 H :    0.153493
   9 H :    0.157043
  10 H :    0.157039
  11 H :    0.166900
  12 H :    0.166888
  13 H :    0.201998
  14 H :    0.202030

  Mayer bond orders larger than 0.100000
B(  0-C ,  1-C ) :   0.8926 B(  0-C ,  6-H ) :   0.9716 B(  0-C ,  7-H ) :   0.9798
B(  0-C ,  8-H ) :   0.9797 B(  1-C ,  2-C ) :   0.9076 B(  1-C ,  9-H ) :   0.9734
B(  1-C , 10-H ) :   0.9737 B(  2-C ,  3-C ) :   0.8751 B(  2-C , 11-H ) :   0.9619
B(  2-C , 12-H ) :   0.9627 B(  3-C ,  4-C ) :   1.0239 B(  3-C , 13-H ) :   0.9640
B(  3-C , 14-H ) :   0.9648 B(  4-C ,  5-N ) :   2.8637

Dispersion correction           -0.003365241
FINAL SINGLE POINT ENERGY      -250.618575951429

DIPOLE MOMENT
-------------

Method             : SCF
Type of density    : Electron Density
Multiplicity       :   1
Irrep              :   0
Energy             :  -250.6213645238733534 Eh
Relativity type    :
Basis              : AO
                                X                 Y                 Z
Electronic contribution:      9.950422630      -0.077714652      -0.000052661
Nuclear contribution   :    -11.928649967      -0.904414407       0.002682026
                        -----------------------------------------
Total Dipole Moment    :     -1.978227336      -0.982129059       0.002629365
                        -----------------------------------------
Magnitude (a.u.)       :      2.208612188
Magnitude (Debye)      :      5.613846041

Rotational constants in cm-1:             0.500670             0.045481             0.043033
Rotational constants in MHz :         15009.704961          1363.500424          1290.109769

                             ****ORCA TERMINATED NORMALLY****
TOTAL RUN TIME: 0 days 0 hours 0 minutes 20 seconds 451 msec
