                         Program Version 6.0.0  -   RELEASE  -
|  1> ! pbe def2-sv(p) def2/J RI DEFGRID1 loosescf d4 GCP(DFT/SV(P)) printgap
|  2> %output
|  3>     printlevel normal
|  4> end
|  5> * xyz 0 1
|  6> C 3.0724839019 -0.4652127583 0.1790347428
|  7> C 1.8930246245 0.2923686452 -0.4184959813
|  8> C 0.5636565951 -0.2057468513 0.1456412283
|  9> C -0.6106269912 0.5521347342 -0.4496270105
| 10> S -2.1817448851 -0.094764494 0.2575827553
| 11> H 4.0084731715 -0.0987730792 -0.2344656325
| 12> H 2.9919754725 -1.5278203197 -0.0382172419
| 13> H 3.0991070443 -0.3380652621 1.2588165859
| 14> H 1.8923191194 0.168687302 -1.5035940288
| 15> H 1.9981254924 1.3581361482 -0.2044392375
| 16> H 0.555723821 -0.0847800909 1.2319195982
| 17> H 0.4487778377 -1.2714041114 -0.0685688153
| 18> H -0.5547933237 1.6130294008 -0.2082558182
| 19> H -0.6569921711 0.4159453498 -1.5294982811
| 20> H -2.9865229121 0.7117421423 -0.4221886667
| 21> *
| 22>
| 23>                          ****END OF INPUT****

CARTESIAN COORDINATES (ANGSTROEM)
---------------------------------
  C      3.072484   -0.465213    0.179035
  C      1.893025    0.292369   -0.418496
  C      0.563657   -0.205747    0.145641
  C     -0.610627    0.552135   -0.449627
  S     -2.181745   -0.094764    0.257583
  H      4.008473   -0.098773   -0.234466
  H      2.991975   -1.527820   -0.038217
  H      3.099107   -0.338065    1.258817
  H      1.892319    0.168687   -1.503594
  H      1.998125    1.358136   -0.204439
  H      0.555724   -0.084780    1.231920
  H      0.448778   -1.271404   -0.068569
  H     -0.554793    1.613029   -0.208256
  H     -0.656992    0.415945   -1.529498
  H     -2.986523    0.711742   -0.422189

 Total Charge           Charge          ....    0
 Multiplicity           Mult            ....    1
 Number of Electrons    NEL             ....   50
 Basis Dimension        Dim             ....   94

ORBITAL ENERGIES
----------------

  NO   OCC          E(Eh)            E(eV)
   0   2.0000     -88.009305     -2394.8549
   1   2.0000      -9.915232      -269.8072
   2   2.0000      -9.891678      -269.1662
   3   2.0000      -9.889550      -269.1083
   4   2.0000      -9.876266      -268.7469
   5   2.0000      -7.655885      -208.3272
   6   2.0000      -5.684339      -154.6787
   7   2.0000      -5.680524      -154.5749
   8   2.0000      -5.671880      -154.3397
   9   2.0000      -0.737521       -20.0690
  10   2.0000      -0.689272       -18.7560
  11   2.0000      -0.622255       -16.9324
  12   2.0000      -0.545640       -14.8476
  13   2.0000      -0.521015       -14.1775
  14   2.0000      -0.435893       -11.8613
  15   2.0000      -0.403813       -10.9883
  16   2.0000      -0.384428       -10.4608
  17   2.0000      -0.374089       -10.1795
  18   2.0000      -0.351823        -9.5736
  19   2.0000      -0.322468        -8.7748
  20   2.0000      -0.304264        -8.2794
  21   2.0000      -0.294114        -8.0033
  22   2.0000      -0.291930        -7.9438
  23   2.0000      -0.279810        -7.6140
  24   2.0000      -0.189803        -5.1648
  25   0.0000       0.005113         0.1391
  26   0.0000       0.035717         0.9719
  27   0.0000       0.047837         1.3017
  28   0.0000       0.066383         1.8064
  29   0.0000       0.069190         1.8828

MULLIKEN ATOMIC CHARGES
-----------------------
   0 C :   -0.257750
   1 C :   -0.190625
   2 C :   -0.178351
   3 C :   -0.254649
   4 S :   -0.184692
   5 H :    0.104316
   6 H :    0.100268
   7 H :    0.100305
   8 H :    0.087388
   9 H :    0.087423
  10 H :    0.097533
  11 H :    0.097552
  12 H :    0.124280
  13 H :    0.124083
  14 H :    0.142917
Sum of atomic charges:    0.0000000

LOEWDIN ATOMIC CHARGES
----------------------
   0 C :   -0.338576
   1 C :   -0.232088
   2 C :   -0.245274
   3 C :   -0.325918
   4 S :    0.001388
   5 H :    0.119921
   6 H :    0.118431
   7 H :    0.118427
   8 H :    0.115260
   9 H :    0.115280
  10 H :    0.118959
  11 H :    0.118941
  12 H :    0.119186
  13 H :    0.119203
  14 H :    0.076860

  Mayer bond orders larger than 0.100000
B(  0-C ,  1-C ) :   1.1605 B(  0-C ,  5-H ) :   0.9531 B(  0-C ,  6-H ) :   0.9544
B(  0-C ,  7-H ) :   0.9544 B(  1-C ,  2-C ) :   1.1352 B(  1-C ,  8-H ) :   0.9269
B(  1-C ,  9-H ) :   0.9268 B(  2-C ,  3-C ) :   1.1187 B(  2-C , 10-H ) :   0.9212
B(  2-C , 11-H ) :   0.9209 B(  3-C ,  4-S ) :   1.0578 B(  3-C , 12-H ) :   0.9235
B(  3-C , 13-H ) :   0.9236 B(  4-S , 14-H ) :   0.9092

Dispersion correction           -0.010484109
FINAL SINGLE POINT ENERGY      -555.912070003052

DIPOLE MOMENT
-------------

Method             : SCF
Type of density    : Electron Density
Multiplicity       :   1
Irrep              :   0
Energy             :  -555.9642037386807942 Eh
Relativity type    :
Basis              : AO
                                X                 Y                 Z
Electronic contribution:     -9.816102863      -0.510051908       1.242303547
Nuclear contribution   :     10.190609808       0.890854991      -1.619551731
                        -----------------------------------------
Total Dipole Moment    :      0.374506946       0.380803083      -0.377248185
                        -----------------------------------------
Magnitude (a.u.)       :      0.653898030
Magnitude (Debye)      :      1.662076704

Rotational constants in cm-1:             0.534888             0.044633             0.042507
Rotational constants in MHz :         16035.535915          1338.067396          1274.325491

                             ****ORCA TERMINATED NORMALLY****
TOTAL RUN TIME: 0 days 0 hours 0 minutes 5 seconds 307 msec
