                         Program Version 6.0.0  -   RELEASE  -
|  1> ! r2scan-3c def2/J RI DEFGRID2 scfconv6 printgap
|  2> %output
|  3>     printlevel normal
|  4> end
|  5> * xyz 0 1
|  6> C 5.5011341868 -0.6416112567 -0.1254323378
|  7> C 4.4618148473 0.4668736984 -0.0138496021
|  8> C 3.0491080985 -0.0826672879 -0.0480297033
|  9> O 2.7928897991 -1.2695296964 -0.1560368474
| 10> N 2.1061544264 0.8984487934 0.0554734465
| 11> C 0.7194412926 0.7906098301 0.0634666867
| 12> C -0.0324671587 1.9619886335 0.1832747193
| 13> C -1.4108253388 1.9143590301 0.1972141267
| 14> C -2.0660878098 0.696444567 0.0918214848
| 15> C -1.3235049704 -0.4710247767 -0.0276024657
| 16> C 0.0592773513 -0.4315174485 -0.0423795726
| 17> Cl -2.1241621776 -2.0034624158 -0.1605113548
| 18> Cl -3.7987002505 0.6365872717 0.1095015446
| 19> H 5.371679159 -1.1875370369 -1.056635664
| 20> H 5.3867057845 -1.3492319044 0.6919617316
| 21> H 6.5038050905 -0.2256053897 -0.0955654419
| 22> H 4.5784425659 1.1705418555 -0.8400344964
| 23> H 4.5980210588 1.0116024495 0.9221048711
| 24> H 2.4508169834 1.8469631447 0.1396769078
| 25> H 0.4631205278 2.9157682104 0.2661020237
| 26> H -1.9908132471 2.8172811697 0.2896064194
| 27> H 0.622332235 -1.3449186079 -0.1355679086
| 28> *
| 29>
| 30>                          ****END OF INPUT****

CARTESIAN COORDINATES (ANGSTROEM)
---------------------------------
  C      5.501134   -0.641611   -0.125432
  C      4.461815    0.466874   -0.013850
  C      3.049108   -0.082667   -0.048030
  O      2.792890   -1.269530   -0.156037
  N      2.106154    0.898449    0.055473
  C      0.719441    0.790610    0.063467
  C     -0.032467    1.961989    0.183275
  C     -1.410825    1.914359    0.197214
  C     -2.066088    0.696445    0.091821
  C     -1.323505   -0.471025   -0.027602
  C      0.059277   -0.431517   -0.042380
  Cl    -2.124162   -2.003462   -0.160511
  Cl    -3.798700    0.636587    0.109502
  H      5.371679   -1.187537   -1.056636
  H      5.386706   -1.349232    0.691962
  H      6.503805   -0.225605   -0.095565
  H      4.578443    1.170542   -0.840034
  H      4.598021    1.011602    0.922105
  H      2.450817    1.846963    0.139677
  H      0.463121    2.915768    0.266102
  H     -1.990813    2.817281    0.289606
  H      0.622332   -1.344919   -0.135568

 Total Charge           Charge          ....    0
 Multiplicity           Mult            ....    1
 Number of Electrons    NEL             ....  112
 Basis Dimension        Dim             ....  318

ORBITAL ENERGIES
----------------

  NO   OCC          E(Eh)            E(eV)
   0   2.0000    -101.224237     -2754.4515
   1   2.0000    -101.223653     -2754.4356
   2   2.0000     -18.934573      -515.2359
   3   2.0000     -14.222228      -387.0065
   4   2.0000     -10.149339      -276.1775
   5   2.0000     -10.114046      -275.2172
   6   2.0000     -10.109559      -275.0951
   7   2.0000     -10.105719      -274.9906
   8   2.0000     -10.063788      -273.8496
   9   2.0000     -10.060587      -273.7625
  10   2.0000     -10.057078      -273.6670
  11   2.0000     -10.052302      -273.5370
  12   2.0000     -10.029472      -272.9158
  13   2.0000      -9.379941      -255.2412
  14   2.0000      -9.379336      -255.2247
  15   2.0000      -7.126386      -193.9188
  16   2.0000      -7.125826      -193.9036
  17   2.0000      -7.116188      -193.6413
  18   2.0000      -7.115650      -193.6267
  19   2.0000      -7.115549      -193.6239
  20   2.0000      -7.114846      -193.6048
  21   2.0000      -1.023150       -27.8413
  22   2.0000      -0.934233       -25.4218
  23   2.0000      -0.885546       -24.0969
  24   2.0000      -0.824075       -22.4242
  25   2.0000      -0.812375       -22.1059
  26   2.0000      -0.762377       -20.7453
  27   2.0000      -0.728429       -19.8216
  28   2.0000      -0.711503       -19.3610
  29   2.0000      -0.641989       -17.4694
  30   2.0000      -0.612552       -16.6684
  31   2.0000      -0.585191       -15.9239
  32   2.0000      -0.561774       -15.2866
  33   2.0000      -0.520433       -14.1617
  34   2.0000      -0.478360       -13.0168
  35   2.0000      -0.471133       -12.8202
  36   2.0000      -0.457787       -12.4570
  37   2.0000      -0.454882       -12.3780
  38   2.0000      -0.431291       -11.7360
  39   2.0000      -0.417172       -11.3518
  40   2.0000      -0.410445       -11.1688
  41   2.0000      -0.398928       -10.8554
  42   2.0000      -0.384359       -10.4589
  43   2.0000      -0.379718       -10.3327
  44   2.0000      -0.356897        -9.7117
  45   2.0000      -0.353623        -9.6226
  46   2.0000      -0.344385        -9.3712
  47   2.0000      -0.338421        -9.2089
  48   2.0000      -0.325888        -8.8679
  49   2.0000      -0.323049        -8.7906
  50   2.0000      -0.300357        -8.1731
  51   2.0000      -0.281672        -7.6647
  52   2.0000      -0.277886        -7.5617
  53   2.0000      -0.244692        -6.6584
  54   2.0000      -0.236804        -6.4438
  55   2.0000      -0.214477        -5.8362
  56   0.0000      -0.058260        -1.5853
  57   0.0000      -0.055840        -1.5195
  58   0.0000      -0.017961        -0.4887
  59   0.0000      -0.002656        -0.0723
  60   0.0000       0.032686         0.8894

MULLIKEN ATOMIC CHARGES
-----------------------
   0 C :   -0.462273
   1 C :   -0.296501
   2 C :    0.306743
   3 O :   -0.451924
   4 N :   -0.052029
   5 C :    0.200191
   6 C :   -0.355548
   7 C :   -0.212640
   8 C :    0.113237
   9 C :    0.066558
  10 C :   -0.185397
  11 Cl:   -0.110693
  12 Cl:   -0.118649
  13 H :    0.159668
  14 H :    0.159728
  15 H :    0.145669
  16 H :    0.156303
  17 H :    0.155871
  18 H :    0.259779
  19 H :    0.135352
  20 H :    0.164994
  21 H :    0.221562
Sum of atomic charges:    0.0000000

LOEWDIN ATOMIC CHARGES
----------------------
   0 C :   -0.398584
   1 C :   -0.251093
   2 C :    0.345884
   3 O :   -0.456093
   4 N :   -0.594563
   5 C :    0.158100
   6 C :   -0.138054
   7 C :   -0.154719
   8 C :   -0.193995
   9 C :   -0.169796
  10 C :   -0.124032
  11 Cl:    0.153903
  12 Cl:    0.142192
  13 H :    0.163827
  14 H :    0.163872
  15 H :    0.150964
  16 H :    0.172894
  17 H :    0.172755
  18 H :    0.283831
  19 H :    0.172327
  20 H :    0.182033
  21 H :    0.218347

  Mayer bond orders larger than 0.100000
B(  0-C ,  1-C ) :   0.9597 B(  0-C , 13-H ) :   0.9737 B(  0-C , 14-H ) :   0.9740
B(  0-C , 15-H ) :   0.9710 B(  1-C ,  2-C ) :   0.9292 B(  1-C , 16-H ) :   0.9472
B(  1-C , 17-H ) :   0.9479 B(  2-C ,  3-O ) :   1.8023 B(  2-C ,  4-N ) :   1.1041
B(  4-N ,  5-C ) :   1.0319 B(  4-N , 18-H ) :   0.9168 B(  5-C ,  6-C ) :   1.2667
B(  5-C , 10-C ) :   1.4212 B(  6-C ,  7-C ) :   1.3907 B(  6-C , 19-H ) :   0.9448
B(  7-C ,  8-C ) :   1.3606 B(  7-C , 20-H ) :   0.9330 B(  8-C ,  9-C ) :   1.2925
B(  8-C , 12-Cl) :   1.0331 B(  9-C , 10-C ) :   1.1542 B(  9-C , 11-Cl) :   1.0849
B( 10-C , 21-H ) :   0.9221

Dispersion correction           -0.008976038
FINAL SINGLE POINT ENERGY     -1398.619107788379

DIPOLE MOMENT
-------------

Method             : SCF
Type of density    : Electron Density
Multiplicity       :   1
Irrep              :   0
Energy             : -1398.6233130169755441 Eh
Relativity type    :
Basis              : AO
                                X                 Y                 Z
Electronic contribution:    -32.943287460      -5.377868108      -0.090135457
Nuclear contribution   :     34.256583684       7.126026344       0.236879253
                        -----------------------------------------
Total Dipole Moment    :      1.313296223       1.748158236       0.146743796
                        -----------------------------------------
Magnitude (a.u.)       :      2.191423722
Magnitude (Debye)      :      5.570156435

Rotational constants in cm-1:             0.049152             0.009195             0.007768
Rotational constants in MHz :          1473.537192           275.660728           232.889120

                             ****ORCA TERMINATED NORMALLY****
TOTAL RUN TIME: 0 days 0 hours 0 minutes 45 seconds 327 msec
