                         Program Version 6.0.0  -   RELEASE  -
|  1> ! r2scan-3c def2/J RI DEFGRID2 scfconv6 printgap
|  2> %output
|  3>     printlevel normal
|  4> end
|  5> %cpcm
|  6>     smd true
|  7>     smdsolvent "water"
|  8> end
|  9> * xyz 0 1
| 10> C 5.5011341868 -0.6416112567 -0.1254323378
| 11> C 4.4618148473 0.4668736984 -0.0138496021
| 12> C 3.0491080985 -0.0826672879 -0.0480297033
| 13> O 2.7928897991 -1.2695296964 -0.1560368474
| 14> N 2.1061544264 0.8984487934 0.0554734465
| 15> C 0.7194412926 0.7906098301 0.0634666867
| 16> C -0.0324671587 1.9619886335 0.1832747193
| 17> C -1.4108253388 1.9143590301 0.1972141267
| 18> C -2.0660878098 0.696444567 0.0918214848
| 19> C -1.3235049704 -0.4710247767 -0.0276024657
| 20> C 0.0592773513 -0.4315174485 -0.0423795726
| 21> Cl -2.1241621776 -2.0034624158 -0.1605113548
| 22> Cl -3.7987002505 0.6365872717 0.1095015446
| 23> H 5.371679159 -1.1875370369 -1.056635664
| 24> H 5.3867057845 -1.3492319044 0.6919617316
| 25> H 6.5038050905 -0.2256053897 -0.0955654419
| 26> H 4.5784425659 1.1705418555 -0.8400344964
| 27> H 4.5980210588 1.0116024495 0.9221048711
| 28> H 2.4508169834 1.8469631447 0.1396769078
| 29> H 0.4631205278 2.9157682104 0.2661020237
| 30> H -1.9908132471 2.8172811697 0.2896064194
| 31> H 0.622332235 -1.3449186079 -0.1355679086
| 32> *
| 33>
| 34>                          ****END OF INPUT****

CARTESIAN COORDINATES (ANGSTROEM)
---------------------------------
  C      5.501134   -0.641611   -0.125432
  C      4.461815    0.466874   -0.013850
  C      3.049108   -0.082667   -0.048030
  O      2.792890   -1.269530   -0.156037
  N      2.106154    0.898449    0.055473
  C      0.719441    0.790610    0.063467
  C     -0.032467    1.961989    0.183275
  C     -1.410825    1.914359    0.197214
  C     -2.066088    0.696445    0.091821
  C     -1.323505   -0.471025   -0.027602
  C      0.059277   -0.431517   -0.042380
  Cl    -2.124162   -2.003462   -0.160511
  Cl    -3.798700    0.636587    0.109502
  H      5.371679   -1.187537   -1.056636
  H      5.386706   -1.349232    0.691962
  H      6.503805   -0.225605   -0.095565
  H      4.578443    1.170542   -0.840034
  H      4.598021    1.011602    0.922105
  H      2.450817    1.846963    0.139677
  H      0.463121    2.915768    0.266102
  H     -1.990813    2.817281    0.289606
  H      0.622332   -1.344919   -0.135568

 Total Charge           Charge          ....    0
 Multiplicity           Mult            ....    1
 Number of Electrons    NEL             ....  112
 Basis Dimension        Dim             ....  318

ORBITAL ENERGIES
----------------

  NO   OCC          E(Eh)            E(eV)
   0   2.0000    -101.230496     -2754.6218
   1   2.0000    -101.228664     -2754.5720
   2   2.0000     -18.937274      -515.3094
   3   2.0000     -14.207742      -386.6123
   4   2.0000     -10.145692      -276.0783
   5   2.0000     -10.114343      -275.2253
   6   2.0000     -10.108087      -275.0550
   7   2.0000     -10.099373      -274.8179
   8   2.0000     -10.056168      -273.6423
   9   2.0000     -10.050439      -273.4863
  10   2.0000     -10.049437      -273.4591
  11   2.0000     -10.035905      -273.0909
  12   2.0000     -10.015289      -272.5299
  13   2.0000      -9.386378      -255.4163
  14   2.0000      -9.384542      -255.3664
  15   2.0000      -7.132688      -194.0903
  16   2.0000      -7.130828      -194.0397
  17   2.0000      -7.122723      -193.8191
  18   2.0000      -7.121997      -193.7994
  19   2.0000      -7.120847      -193.7681
  20   2.0000      -7.120218      -193.7510
  21   2.0000      -1.024260       -27.8715
  22   2.0000      -0.924308       -25.1517
  23   2.0000      -0.886440       -24.1213
  24   2.0000      -0.828593       -22.5472
  25   2.0000      -0.808689       -22.0055
  26   2.0000      -0.747936       -20.3524
  27   2.0000      -0.723953       -19.6998
  28   2.0000      -0.705633       -19.2012
  29   2.0000      -0.632849       -17.2207
  30   2.0000      -0.604477       -16.4487
  31   2.0000      -0.575543       -15.6613
  32   2.0000      -0.550790       -14.9878
  33   2.0000      -0.510350       -13.8873
  34   2.0000      -0.471635       -12.8338
  35   2.0000      -0.468407       -12.7460
  36   2.0000      -0.447382       -12.1739
  37   2.0000      -0.442909       -12.0522
  38   2.0000      -0.428470       -11.6593
  39   2.0000      -0.411559       -11.1991
  40   2.0000      -0.405275       -11.0281
  41   2.0000      -0.400422       -10.8960
  42   2.0000      -0.379707       -10.3324
  43   2.0000      -0.376441       -10.2435
  44   2.0000      -0.347942        -9.4680
  45   2.0000      -0.340626        -9.2689
  46   2.0000      -0.334567        -9.1040
  47   2.0000      -0.330822        -9.0021
  48   2.0000      -0.328758        -8.9460
  49   2.0000      -0.314101        -8.5471
  50   2.0000      -0.305996        -8.3266
  51   2.0000      -0.284288        -7.7359
  52   2.0000      -0.280354        -7.6288
  53   2.0000      -0.244488        -6.6529
  54   2.0000      -0.239750        -6.5239
  55   2.0000      -0.211366        -5.7516
  56   0.0000      -0.055305        -1.5049
  57   0.0000      -0.052044        -1.4162
  58   0.0000      -0.020581        -0.5600
  59   0.0000       0.003242         0.0882
  60   0.0000       0.038504         1.0477

MULLIKEN ATOMIC CHARGES
-----------------------
   0 C :   -0.524082
   1 C :   -0.270442
   2 C :    0.312526
   3 O :   -0.543165
   4 N :   -0.063821
   5 C :    0.177405
   6 C :   -0.358626
   7 C :   -0.218642
   8 C :    0.108798
   9 C :    0.057204
  10 C :   -0.212827
  11 Cl:   -0.136405
  12 Cl:   -0.140161
  13 H :    0.163410
  14 H :    0.163479
  15 H :    0.164947
  16 H :    0.186229
  17 H :    0.186128
  18 H :    0.332408
  19 H :    0.188517
  20 H :    0.200898
  21 H :    0.226222
Sum of atomic charges:    0.0000000

LOEWDIN ATOMIC CHARGES
----------------------
   0 C :   -0.409920
   1 C :   -0.241178
   2 C :    0.354926
   3 O :   -0.528057
   4 N :   -0.562290
   5 C :    0.158289
   6 C :   -0.119430
   7 C :   -0.152407
   8 C :   -0.203707
   9 C :   -0.179856
  10 C :   -0.138569
  11 Cl:    0.133450
  12 Cl:    0.124944
  13 H :    0.160095
  14 H :    0.160140
  15 H :    0.158375
  16 H :    0.187316
  17 H :    0.187273
  18 H :    0.305354
  19 H :    0.194461
  20 H :    0.194968
  21 H :    0.215823

  Mayer bond orders larger than 0.100000
B(  0-C ,  1-C ) :   0.9035 B(  0-C , 13-H ) :   0.9790 B(  0-C , 14-H ) :   0.9793
B(  0-C , 15-H ) :   0.9649 B(  1-C ,  2-C ) :   0.9576 B(  1-C , 16-H ) :   0.9322
B(  1-C , 17-H ) :   0.9330 B(  2-C ,  3-O ) :   1.7326 B(  2-C ,  4-N ) :   1.1365
B(  4-N ,  5-C ) :   1.0158 B(  4-N , 18-H ) :   0.8895 B(  5-C ,  6-C ) :   1.2827
B(  5-C , 10-C ) :   1.3954 B(  6-C ,  7-C ) :   1.3798 B(  6-C , 19-H ) :   0.9580
B(  7-C ,  8-C ) :   1.3137 B(  7-C , 20-H ) :   0.9379 B(  8-C ,  9-C ) :   1.2774
B(  8-C , 12-Cl) :   1.0176 B(  9-C , 10-C ) :   1.1572 B(  9-C , 11-Cl) :   1.0585
B( 10-C , 21-H ) :   0.9197

Dispersion correction           -0.008976038
FINAL SINGLE POINT ENERGY     -1398.631994811066

DIPOLE MOMENT
-------------

Method             : SCF
Type of density    : Electron Density
Multiplicity       :   1
Irrep              :   0
Energy             : -1398.6362000396627536 Eh
Relativity type    :
Basis              : AO
                                X                 Y                 Z
Electronic contribution:    -32.473475688      -4.263399253       0.008227850
Nuclear contribution   :     34.256583684       7.126026344       0.236879253
                        -----------------------------------------
Total Dipole Moment    :      1.783107995       2.862627092       0.245107103
                        -----------------------------------------
Magnitude (a.u.)       :      3.381447246
Magnitude (Debye)      :      8.594955848

Rotational constants in cm-1:             0.049152             0.009195             0.007768
Rotational constants in MHz :          1473.537192           275.660728           232.889120

                             ****ORCA TERMINATED NORMALLY****
TOTAL RUN TIME: 0 days 0 hours 1 minutes 3 seconds 827 msec
