                         Program Version 6.0.0  -   RELEASE  -
|  1> ! r2scan-3c def2/J RI DEFGRID2 scfconv6 printgap
|  2> %output
|  3>     printlevel normal
|  4> end
|  5> * xyz 0 1
|  6> C 2.8321562816 -0.346461665 0.13096855
|  7> C 1.4320456676 -0.5052185427 -0.4513389773
|  8> C 0.4068607524 0.3073892597 0.3357260208
|  9> C -1.0003632911 0.275893594 -0.2761042758
| 10> H -0.9402662099 0.5615300675 -1.3329879914
| 11> C -1.6564280138 -1.0989212731 -0.1570934635
| 12> O -1.8192709228 1.2804363589 0.3039309077
| 13> H 3.1402764597 0.6962450408 0.1047952943
| 14> H 3.5498327717 -0.9315316398 -0.4385063434
| 15> H 2.8552452977 -0.684582591 1.164385701
| 16> H 1.4311975251 -0.1738565717 -1.4919533192
| 17> H 1.1568236927 -1.5606842162 -0.4362137657
| 18> H 0.3600243205 -0.0633350699 1.3629666444
| 19> H 0.7292499789 1.3512031385 0.3706831676
| 20> H -1.1249324209 -1.8250582988 -0.7633825184
| 21> H -1.6524789933 -1.4330626852 0.878422974
| 22> H -2.6852661528 -1.0425324457 -0.5044790186
| 23> H -1.9443917975 1.0741646753 1.2410363643
| 24> *
| 25>
| 26>                          ****END OF INPUT****

CARTESIAN COORDINATES (ANGSTROEM)
---------------------------------
  C      2.832156   -0.346462    0.130969
  C      1.432046   -0.505219   -0.451339
  C      0.406861    0.307389    0.335726
  C     -1.000363    0.275894   -0.276104
  H     -0.940266    0.561530   -1.332988
  C     -1.656428   -1.098921   -0.157093
  O     -1.819271    1.280436    0.303931
  H      3.140276    0.696245    0.104795
  H      3.549833   -0.931532   -0.438506
  H      2.855245   -0.684583    1.164386
  H      1.431198   -0.173857   -1.491953
  H      1.156824   -1.560684   -0.436214
  H      0.360024   -0.063335    1.362967
  H      0.729250    1.351203    0.370683
  H     -1.124932   -1.825058   -0.763383
  H     -1.652479   -1.433063    0.878423
  H     -2.685266   -1.042532   -0.504479
  H     -1.944392    1.074165    1.241036

 Total Charge           Charge          ....    0
 Multiplicity           Mult            ....    1
 Number of Electrons    NEL             ....   50
 Basis Dimension        Dim             ....  179

ORBITAL ENERGIES
----------------

  NO   OCC          E(Eh)            E(eV)
   0   2.0000     -18.941695      -515.4297
   1   2.0000     -10.078875      -274.2601
   2   2.0000     -10.028786      -272.8972
   3   2.0000     -10.023385      -272.7502
   4   2.0000     -10.019000      -272.6309
   5   2.0000     -10.018587      -272.6196
   6   2.0000      -0.980213       -26.6729
   7   2.0000      -0.766311       -20.8524
   8   2.0000      -0.711382       -19.3577
   9   2.0000      -0.649610       -17.6768
  10   2.0000      -0.580110       -15.7856
  11   2.0000      -0.549389       -14.9496
  12   2.0000      -0.453808       -12.3487
  13   2.0000      -0.441889       -12.0244
  14   2.0000      -0.419421       -11.4130
  15   2.0000      -0.403217       -10.9721
  16   2.0000      -0.376439       -10.2434
  17   2.0000      -0.360854        -9.8193
  18   2.0000      -0.345817        -9.4102
  19   2.0000      -0.338469        -9.2102
  20   2.0000      -0.319745        -8.7007
  21   2.0000      -0.305583        -8.3153
  22   2.0000      -0.299771        -8.1572
  23   2.0000      -0.281505        -7.6601
  24   2.0000      -0.230362        -6.2685
  25   0.0000       0.067191         1.8284
  26   0.0000       0.092323         2.5122
  27   0.0000       0.110874         3.0170
  28   0.0000       0.119790         3.2597
  29   0.0000       0.126492         3.4420

MULLIKEN ATOMIC CHARGES
-----------------------
   0 C :   -0.469559
   1 C :   -0.266769
   2 C :   -0.250697
   3 C :    0.022243
   4 H :    0.134750
   5 C :   -0.504326
   6 O :   -0.406195
   7 H :    0.144823
   8 H :    0.146199
   9 H :    0.141573
  10 H :    0.142474
  11 H :    0.139345
  12 H :    0.125410
  13 H :    0.157807
  14 H :    0.149602
  15 H :    0.140983
  16 H :    0.164215
  17 H :    0.288122
Sum of atomic charges:   -0.0000000

LOEWDIN ATOMIC CHARGES
----------------------
   0 C :   -0.422696
   1 C :   -0.313105
   2 C :   -0.290302
   3 C :    0.041713
   4 H :    0.179305
   5 C :   -0.401971
   6 O :   -0.609665
   7 H :    0.150659
   8 H :    0.150085
   9 H :    0.149868
  10 H :    0.153008
  11 H :    0.151273
  12 H :    0.154633
  13 H :    0.167120
  14 H :    0.157681
  15 H :    0.152910
  16 H :    0.163065
  17 H :    0.266419

  Mayer bond orders larger than 0.100000
B(  0-C ,  1-C ) :   0.8964 B(  0-C ,  7-H ) :   0.9856 B(  0-C ,  8-H ) :   0.9728
B(  0-C ,  9-H ) :   0.9826 B(  1-C ,  2-C ) :   0.9179 B(  1-C , 10-H ) :   0.9769
B(  1-C , 11-H ) :   0.9644 B(  2-C ,  3-C ) :   0.9133 B(  2-C , 12-H ) :   0.9637
B(  2-C , 13-H ) :   0.9733 B(  3-C ,  4-H ) :   0.9610 B(  3-C ,  5-C ) :   0.9333
B(  3-C ,  6-O ) :   0.9530 B(  5-C , 14-H ) :   0.9704 B(  5-C , 15-H ) :   0.9770
B(  5-C , 16-H ) :   0.9687 B(  6-O , 17-H ) :   0.8970

Dispersion correction           -0.004175090
FINAL SINGLE POINT ENERGY      -272.902683545592

DIPOLE MOMENT
-------------

Method             : SCF
Type of density    : Electron Density
Multiplicity       :   1
Irrep              :   0
Energy             :  -272.9080079108019277 Eh
Relativity type    :
Basis              : AO
                                X                 Y                 Z
Electronic contribution:     -4.255136517       3.253001053       0.098030396
Nuclear contribution   :      4.546843911      -3.763204972       0.149707419
                        -----------------------------------------
Total Dipole Moment    :      0.291707395      -0.510203920       0.247737815
                        -----------------------------------------
Magnitude (a.u.)       :      0.637789361
Magnitude (Debye)      :      1.621131722

Rotational constants in cm-1:             0.232258             0.057674             0.050013
Rotational constants in MHz :          6962.920467          1729.034441          1499.339614

                             ****ORCA TERMINATED NORMALLY****
TOTAL RUN TIME: 0 days 0 hours 0 minutes 22 seconds 2 msec
