                         Program Version 6.0.0  -   RELEASE  -
|  1> ! r2scan-3c def2/J RI DEFGRID2 scfconv6 printgap
|  2> %output
|  3>     printlevel normal
|  4> end
|  5> %cpcm
|  6>     smd true
|  7>     smdsolvent "water"
|  8> end
|  9> * xyz 0 1
| 10> C 2.8321562816 -0.346461665 0.13096855
| 11> C 1.4320456676 -0.5052185427 -0.4513389773
| 12> C 0.4068607524 0.3073892597 0.3357260208
| 13> C -1.0003632911 0.275893594 -0.2761042758
| 14> H -0.9402662099 0.5615300675 -1.3329879914
| 15> C -1.6564280138 -1.0989212731 -0.1570934635
| 16> O -1.8192709228 1.2804363589 0.3039309077
| 17> H 3.1402764597 0.6962450408 0.1047952943
| 18> H 3.5498327717 -0.9315316398 -0.4385063434
| 19> H 2.8552452977 -0.684582591 1.164385701
| 20> H 1.4311975251 -0.1738565717 -1.4919533192
| 21> H 1.1568236927 -1.5606842162 -0.4362137657
| 22> H 0.3600243205 -0.0633350699 1.3629666444
| 23> H 0.7292499789 1.3512031385 0.3706831676
| 24> H -1.1249324209 -1.8250582988 -0.7633825184
| 25> H -1.6524789933 -1.4330626852 0.878422974
| 26> H -2.6852661528 -1.0425324457 -0.5044790186
| 27> H -1.9443917975 1.0741646753 1.2410363643
| 28> *
| 29>
| 30>                          ****END OF INPUT****

CARTESIAN COORDINATES (ANGSTROEM)
---------------------------------
  C      2.832156   -0.346462    0.130969
  C      1.432046   -0.505219   -0.451339
  C      0.406861    0.307389    0.335726
  C     -1.000363    0.275894   -0.276104
  H     -0.940266    0.561530   -1.332988
  C     -1.656428   -1.098921   -0.157093
  O     -1.819271    1.280436    0.303931
  H      3.140276    0.696245    0.104795
  H      3.549833   -0.931532   -0.438506
  H      2.855245   -0.684583    1.164386
  H      1.431198   -0.173857   -1.491953
  H      1.156824   -1.560684   -0.436214
  H      0.360024   -0.063335    1.362967
  H      0.729250    1.351203    0.370683
  H     -1.124932   -1.825058   -0.763383
  H     -1.652479   -1.433063    0.878423
  H     -2.685266   -1.042532   -0.504479
  H     -1.944392    1.074165    1.241036

 Total Charge           Charge          ....    0
 Multiplicity           Mult            ....    1
 Number of Electrons    NEL             ....   50
 Basis Dimension        Dim             ....  179

ORBITAL ENERGIES
----------------

  NO   OCC          E(Eh)            E(eV)
   0   2.0000     -18.946756      -515.5674
   1   2.0000     -10.073804      -274.1222
   2   2.0000     -10.017707      -272.5957
   3   2.0000     -10.014048      -272.4961
   4   2.0000     -10.008889      -272.3557
   5   2.0000     -10.008255      -272.3385
   6   2.0000      -0.983899       -26.7733
   7   2.0000      -0.757100       -20.6017
   8   2.0000      -0.703152       -19.1337
   9   2.0000      -0.640596       -17.4315
  10   2.0000      -0.573983       -15.6189
  11   2.0000      -0.540806       -14.7161
  12   2.0000      -0.448693       -12.2096
  13   2.0000      -0.434209       -11.8154
  14   2.0000      -0.412117       -11.2143
  15   2.0000      -0.397654       -10.8207
  16   2.0000      -0.367779       -10.0078
  17   2.0000      -0.352230        -9.5847
  18   2.0000      -0.340686        -9.2705
  19   2.0000      -0.330188        -8.9849
  20   2.0000      -0.312614        -8.5067
  21   2.0000      -0.295729        -8.0472
  22   2.0000      -0.290719        -7.9109
  23   2.0000      -0.279146        -7.5960
  24   2.0000      -0.234982        -6.3942
  25   0.0000       0.081770         2.2251
  26   0.0000       0.103583         2.8186
  27   0.0000       0.120708         3.2846
  28   0.0000       0.129363         3.5201
  29   0.0000       0.135990         3.7005

MULLIKEN ATOMIC CHARGES
-----------------------
   0 C :   -0.512268
   1 C :   -0.272692
   2 C :   -0.271225
   3 C :    0.047703
   4 H :    0.145632
   5 C :   -0.545248
   6 O :   -0.502171
   7 H :    0.154786
   8 H :    0.155800
   9 H :    0.153874
  10 H :    0.151222
  11 H :    0.151989
  12 H :    0.149630
  13 H :    0.152537
  14 H :    0.167110
  15 H :    0.164797
  16 H :    0.162473
  17 H :    0.346051
Sum of atomic charges:   -0.0000000

LOEWDIN ATOMIC CHARGES
----------------------
   0 C :   -0.431490
   1 C :   -0.313016
   2 C :   -0.290200
   3 C :    0.041839
   4 H :    0.182158
   5 C :   -0.405734
   6 O :   -0.649941
   7 H :    0.152402
   8 H :    0.152253
   9 H :    0.152616
  10 H :    0.155377
  11 H :    0.155353
  12 H :    0.162261
  13 H :    0.164885
  14 H :    0.163824
  15 H :    0.160927
  16 H :    0.161495
  17 H :    0.284990

  Mayer bond orders larger than 0.100000
B(  0-C ,  1-C ) :   0.8844 B(  0-C ,  7-H ) :   0.9837 B(  0-C ,  8-H ) :   0.9703
B(  0-C ,  9-H ) :   0.9804 B(  1-C ,  2-C ) :   0.9179 B(  1-C , 10-H ) :   0.9759
B(  1-C , 11-H ) :   0.9635 B(  2-C ,  3-C ) :   0.9127 B(  2-C , 12-H ) :   0.9639
B(  2-C , 13-H ) :   0.9716 B(  3-C ,  4-H ) :   0.9636 B(  3-C ,  5-C ) :   0.9235
B(  3-C ,  6-O ) :   0.9365 B(  5-C , 14-H ) :   0.9654 B(  5-C , 15-H ) :   0.9749
B(  5-C , 16-H ) :   0.9663 B(  6-O , 17-H ) :   0.8691

Dispersion correction           -0.004175090
FINAL SINGLE POINT ENERGY      -272.909150056697

DIPOLE MOMENT
-------------

Method             : SCF
Type of density    : Electron Density
Multiplicity       :   1
Irrep              :   0
Energy             :  -272.9144744219070162 Eh
Relativity type    :
Basis              : AO
                                X                 Y                 Z
Electronic contribution:     -4.161068155       3.022658209       0.232632725
Nuclear contribution   :      4.546843911      -3.763204972       0.149707419
                        -----------------------------------------
Total Dipole Moment    :      0.385775757      -0.740546763       0.382340144
                        -----------------------------------------
Magnitude (a.u.)       :      0.918377062
Magnitude (Debye)      :      2.334328980

Rotational constants in cm-1:             0.232258             0.057674             0.050013
Rotational constants in MHz :          6962.920467          1729.034441          1499.339614

                             ****ORCA TERMINATED NORMALLY****
TOTAL RUN TIME: 0 days 0 hours 0 minutes 26 seconds 523 msec
