                         Program Version 6.0.0  -   RELEASE  -
|  1> ! pbe def2-sv(p) def2/J RI DEFGRID1 loosescf d4 GCP(DFT/SV(P)) printgap
|  2> %output
|  3>     printlevel normal
|  4> end
|  5> * xyz 0 1
|  6> C -2.1781479604 1.0669130821 0.5690420244
|  7> C -2.0882527364 -0.2933006574 -0.1121342489
|  8> C -0.8217072046 -0.4139389408 -0.9652333156
|  9> C 0.4130074978 -0.4082190628 -0.1018889909
| 10> O 0.5954447374 -1.12660105 0.8587035634
| 11> O 1.3014959445 0.4827138758 -0.5282411026
| 12> C 2.5418684169 0.6007863145 0.174359068
| 13> H -2.1642968384 1.865875859 -0.168444085
| 14> H -3.0966511395 1.1423435364 1.1447610641
| 15> H -1.3378886896 1.2081364091 1.246359691
| 16> H -2.9586440094 -0.4416636173 -0.7515785922
| 17> H -2.0764927442 -1.0815735622 0.6428808326
| 18> H -0.7495930149 0.4039084106 -1.6811628678
| 19> H -0.8365048594 -1.3633536348 -1.5035201035
| 20> H 3.2745145106 0.930388688 -0.5565548723
| 21> H 2.8189242767 -0.3620578334 0.6052434608
| 22> H 2.436024952 1.3380840261 0.9702830308
| 23> *
| 24>
| 25>                          ****END OF INPUT****

CARTESIAN COORDINATES (ANGSTROEM)
---------------------------------
  C     -2.178148    1.066913    0.569042
  C     -2.088253   -0.293301   -0.112134
  C     -0.821707   -0.413939   -0.965233
  C      0.413007   -0.408219   -0.101889
  O      0.595445   -1.126601    0.858704
  O      1.301496    0.482714   -0.528241
  C      2.541868    0.600786    0.174359
  H     -2.164297    1.865876   -0.168444
  H     -3.096651    1.142344    1.144761
  H     -1.337889    1.208136    1.246360
  H     -2.958644   -0.441664   -0.751579
  H     -2.076493   -1.081574    0.642881
  H     -0.749593    0.403908   -1.681163
  H     -0.836505   -1.363354   -1.503520
  H      3.274515    0.930389   -0.556555
  H      2.818924   -0.362058    0.605243
  H      2.436025    1.338084    0.970283

 Total Charge           Charge          ....    0
 Multiplicity           Mult            ....    1
 Number of Electrons    NEL             ....   56
 Basis Dimension        Dim             ....  118

ORBITAL ENERGIES
----------------

  NO   OCC          E(Eh)            E(eV)
   0   2.0000     -18.800126      -511.5774
   1   2.0000     -18.731715      -509.7159
   2   2.0000     -10.005003      -272.2500
   3   2.0000      -9.941029      -270.5091
   4   2.0000      -9.896472      -269.2967
   5   2.0000      -9.890697      -269.1395
   6   2.0000      -9.876956      -268.7657
   7   2.0000      -1.005010       -27.3477
   8   2.0000      -0.908923       -24.7330
   9   2.0000      -0.725068       -19.7301
  10   2.0000      -0.671932       -18.2842
  11   2.0000      -0.620219       -16.8770
  12   2.0000      -0.539706       -14.6862
  13   2.0000      -0.499599       -13.5948
  14   2.0000      -0.451008       -12.2725
  15   2.0000      -0.438501       -11.9322
  16   2.0000      -0.420044       -11.4300
  17   2.0000      -0.403352       -10.9758
  18   2.0000      -0.389469       -10.5980
  19   2.0000      -0.361834        -9.8460
  20   2.0000      -0.355543        -9.6748
  21   2.0000      -0.343511        -9.3474
  22   2.0000      -0.310553        -8.4506
  23   2.0000      -0.298665        -8.1271
  24   2.0000      -0.297328        -8.0907
  25   2.0000      -0.292715        -7.9652
  26   2.0000      -0.257221        -6.9993
  27   2.0000      -0.218936        -5.9575
  28   0.0000      -0.020345        -0.5536
  29   0.0000       0.041126         1.1191
  30   0.0000       0.059549         1.6204
  31   0.0000       0.079769         2.1706
  32   0.0000       0.082892         2.2556

MULLIKEN ATOMIC CHARGES
-----------------------
   0 C :   -0.289451
   1 C :   -0.197834
   2 C :   -0.128487
   3 C :    0.085365
   4 O :   -0.209528
   5 O :   -0.237215
   6 C :   -0.123242
   7 H :    0.098896
   8 H :    0.107794
   9 H :    0.115534
  10 H :    0.091062
  11 H :    0.108396
  12 H :    0.093776
  13 H :    0.114348
  14 H :    0.122109
  15 H :    0.128248
  16 H :    0.120230
Sum of atomic charges:   -0.0000000

LOEWDIN ATOMIC CHARGES
----------------------
   0 C :   -0.342437
   1 C :   -0.227609
   2 C :   -0.247001
   3 C :    0.034890
   4 O :   -0.172481
   5 O :   -0.072999
   6 C :   -0.207040
   7 H :    0.117186
   8 H :    0.121726
   9 H :    0.120345
  10 H :    0.117925
  11 H :    0.124961
  12 H :    0.126790
  13 H :    0.142933
  14 H :    0.120823
  15 H :    0.122542
  16 H :    0.119447

  Mayer bond orders larger than 0.100000
B(  0-C ,  1-C ) :   1.1548 B(  0-C ,  7-H ) :   0.9537 B(  0-C ,  8-H ) :   0.9522
B(  0-C ,  9-H ) :   0.9494 B(  1-C ,  2-C ) :   1.1131 B(  1-C , 10-H ) :   0.9282
B(  1-C , 11-H ) :   0.9192 B(  2-C ,  3-C ) :   1.0160 B(  2-C , 12-H ) :   0.9115
B(  2-C , 13-H ) :   0.8916 B(  3-C ,  4-O ) :   2.0538 B(  3-C ,  5-O ) :   1.2201
B(  5-O ,  6-C ) :   0.9382 B(  6-C , 14-H ) :   0.9607 B(  6-C , 15-H ) :   0.9375
B(  6-C , 16-H ) :   0.9590

Dispersion correction           -0.012324643
FINAL SINGLE POINT ENERGY      -346.239930675593

DIPOLE MOMENT
-------------

Method             : SCF
Type of density    : Electron Density
Multiplicity       :   1
Irrep              :   0
Energy             :  -346.3046145397396458 Eh
Relativity type    :
Basis              : AO
                                X                 Y                 Z
Electronic contribution:      4.530197935      -2.914011631      -0.376253134
Nuclear contribution   :     -4.372449824       3.405465064      -0.043634192
                        -----------------------------------------
Total Dipole Moment    :      0.157748111       0.491453433      -0.419887326
                        -----------------------------------------
Magnitude (a.u.)       :      0.665369303
Magnitude (Debye)      :      1.691234364

Rotational constants in cm-1:             0.164795             0.051413             0.048853
Rotational constants in MHz :          4940.430062          1541.322099          1464.565651

                             ****ORCA TERMINATED NORMALLY****
TOTAL RUN TIME: 0 days 0 hours 0 minutes 10 seconds 328 msec
