                         Program Version 6.0.0  -   RELEASE  -
|  1> ! r2scan-3c def2/J RI DEFGRID2 scfconv6 printgap
|  2> %output
|  3>     printlevel normal
|  4> end
|  5> * xyz 0 1
|  6> C 2.3327629141 -0.498080212 0.5607497005
|  7> C 1.4808428807 -0.1711232717 -0.6604211351
|  8> C 0.5693593984 1.0396308679 -0.4540662981
|  9> C -0.546863111 0.8030962161 0.5503241477
| 10> S -1.690993829 -0.5100142083 -0.0543825766
| 11> H 1.7154685731 -0.8098775377 1.3992318054
| 12> H 2.9150280235 0.3701304416 0.8618072792
| 13> H 3.0184748559 -1.3095459272 0.3303254293
| 14> H 0.8695471522 -1.0381312946 -0.9231425983
| 15> H 2.1383830086 0.0358195067 -1.507301224
| 16> H 0.1217529421 1.3134109346 -1.4128283302
| 17> H 1.1648457145 1.8870451756 -0.1057088726
| 18> H -0.1570208267 0.4776997721 1.5128499867
| 19> H -1.141264691 1.706726036 0.6767606526
| 20> H -2.5624493288 -0.3924557794 0.9387105755
| 21> *
| 22>
| 23>                          ****END OF INPUT****

CARTESIAN COORDINATES (ANGSTROEM)
---------------------------------
  C      2.332763   -0.498080    0.560750
  C      1.480843   -0.171123   -0.660421
  C      0.569359    1.039631   -0.454066
  C     -0.546863    0.803096    0.550324
  S     -1.690994   -0.510014   -0.054383
  H      1.715469   -0.809878    1.399232
  H      2.915028    0.370130    0.861807
  H      3.018475   -1.309546    0.330325
  H      0.869547   -1.038131   -0.923143
  H      2.138383    0.035820   -1.507301
  H      0.121753    1.313411   -1.412828
  H      1.164846    1.887045   -0.105709
  H     -0.157021    0.477700    1.512850
  H     -1.141265    1.706726    0.676761
  H     -2.562449   -0.392456    0.938711

 Total Charge           Charge          ....    0
 Multiplicity           Mult            ....    1
 Number of Electrons    NEL             ....   50
 Basis Dimension        Dim             ....  153

ORBITAL ENERGIES
----------------

  NO   OCC          E(Eh)            E(eV)
   0   2.0000     -88.549063     -2409.5425
   1   2.0000     -10.064406      -273.8664
   2   2.0000     -10.036786      -273.1148
   3   2.0000     -10.027851      -272.8717
   4   2.0000     -10.018590      -272.6197
   5   2.0000      -7.844165      -213.4506
   6   2.0000      -5.791205      -157.5867
   7   2.0000      -5.787741      -157.4924
   8   2.0000      -5.781235      -157.3154
   9   2.0000      -0.784689       -21.3525
  10   2.0000      -0.724782       -19.7223
  11   2.0000      -0.661101       -17.9895
  12   2.0000      -0.596924       -16.2431
  13   2.0000      -0.531784       -14.4706
  14   2.0000      -0.446839       -12.1591
  15   2.0000      -0.441129       -12.0037
  16   2.0000      -0.396847       -10.7988
  17   2.0000      -0.374908       -10.2018
  18   2.0000      -0.370855       -10.0915
  19   2.0000      -0.341199        -9.2845
  20   2.0000      -0.323021        -8.7899
  21   2.0000      -0.303468        -8.2578
  22   2.0000      -0.301394        -8.2013
  23   2.0000      -0.287378        -7.8199
  24   2.0000      -0.207351        -5.6423
  25   0.0000       0.009771         0.2659
  26   0.0000       0.055685         1.5153
  27   0.0000       0.092404         2.5145
  28   0.0000       0.114970         3.1285
  29   0.0000       0.123810         3.3690

MULLIKEN ATOMIC CHARGES
-----------------------
   0 C :   -0.482895
   1 C :   -0.228248
   2 C :   -0.269274
   3 C :   -0.225373
   4 S :   -0.279012
   5 H :    0.148688
   6 H :    0.142587
   7 H :    0.148138
   8 H :    0.148238
   9 H :    0.143372
  10 H :    0.156667
  11 H :    0.142273
  12 H :    0.156625
  13 H :    0.160853
  14 H :    0.137363
Sum of atomic charges:   -0.0000000

LOEWDIN ATOMIC CHARGES
----------------------
   0 C :   -0.424570
   1 C :   -0.321961
   2 C :   -0.317619
   3 C :   -0.350918
   4 S :   -0.117085
   5 H :    0.149725
   6 H :    0.149380
   7 H :    0.153068
   8 H :    0.160482
   9 H :    0.153100
  10 H :    0.161660
  11 H :    0.159670
  12 H :    0.157922
  13 H :    0.160330
  14 H :    0.126817

  Mayer bond orders larger than 0.100000
B(  0-C ,  1-C ) :   0.9033 B(  0-C ,  5-H ) :   0.9807 B(  0-C ,  6-H ) :   0.9824
B(  0-C ,  7-H ) :   0.9685 B(  1-C ,  2-C ) :   0.9111 B(  1-C ,  8-H ) :   0.9628
B(  1-C ,  9-H ) :   0.9656 B(  2-C ,  3-C ) :   0.9334 B(  2-C , 10-H ) :   0.9650
B(  2-C , 11-H ) :   0.9677 B(  3-C ,  4-S ) :   0.9779 B(  3-C , 12-H ) :   0.9701
B(  3-C , 13-H ) :   0.9523 B(  4-S , 14-H ) :   0.9600

Dispersion correction           -0.003750272
FINAL SINGLE POINT ENERGY      -556.554386345747

DIPOLE MOMENT
-------------

Method             : SCF
Type of density    : Electron Density
Multiplicity       :   1
Irrep              :   0
Energy             :  -556.5610215442402477 Eh
Relativity type    :
Basis              : AO
                                X                 Y                 Z
Electronic contribution:     -7.350609986      -1.660130593      -1.308392412
Nuclear contribution   :      7.631018624       2.116751129       1.662769941
                        -----------------------------------------
Total Dipole Moment    :      0.280408638       0.456620536       0.354377529
                        -----------------------------------------
Magnitude (a.u.)       :      0.642428791
Magnitude (Debye)      :      1.632924215

Rotational constants in cm-1:             0.237036             0.066554             0.062145
Rotational constants in MHz :          7106.170259          1995.232646          1863.071896

                             ****ORCA TERMINATED NORMALLY****
TOTAL RUN TIME: 0 days 0 hours 0 minutes 14 seconds 210 msec
