                         Program Version 6.0.0  -   RELEASE  -
|  1> ! r2scan-3c def2/J RI DEFGRID2 scfconv6 printgap
|  2> %output
|  3>     printlevel normal
|  4> end
|  5> %cpcm
|  6>     smd true
|  7>     smdsolvent "water"
|  8> end
|  9> * xyz 0 1
| 10> C 2.3327629141 -0.498080212 0.5607497005
| 11> C 1.4808428807 -0.1711232717 -0.6604211351
| 12> C 0.5693593984 1.0396308679 -0.4540662981
| 13> C -0.546863111 0.8030962161 0.5503241477
| 14> S -1.690993829 -0.5100142083 -0.0543825766
| 15> H 1.7154685731 -0.8098775377 1.3992318054
| 16> H 2.9150280235 0.3701304416 0.8618072792
| 17> H 3.0184748559 -1.3095459272 0.3303254293
| 18> H 0.8695471522 -1.0381312946 -0.9231425983
| 19> H 2.1383830086 0.0358195067 -1.507301224
| 20> H 0.1217529421 1.3134109346 -1.4128283302
| 21> H 1.1648457145 1.8870451756 -0.1057088726
| 22> H -0.1570208267 0.4776997721 1.5128499867
| 23> H -1.141264691 1.706726036 0.6767606526
| 24> H -2.5624493288 -0.3924557794 0.9387105755
| 25> *
| 26>
| 27>                          ****END OF INPUT****

CARTESIAN COORDINATES (ANGSTROEM)
---------------------------------
  C      2.332763   -0.498080    0.560750
  C      1.480843   -0.171123   -0.660421
  C      0.569359    1.039631   -0.454066
  C     -0.546863    0.803096    0.550324
  S     -1.690994   -0.510014   -0.054383
  H      1.715469   -0.809878    1.399232
  H      2.915028    0.370130    0.861807
  H      3.018475   -1.309546    0.330325
  H      0.869547   -1.038131   -0.923143
  H      2.138383    0.035820   -1.507301
  H      0.121753    1.313411   -1.412828
  H      1.164846    1.887045   -0.105709
  H     -0.157021    0.477700    1.512850
  H     -1.141265    1.706726    0.676761
  H     -2.562449   -0.392456    0.938711

 Total Charge           Charge          ....    0
 Multiplicity           Mult            ....    1
 Number of Electrons    NEL             ....   50
 Basis Dimension        Dim             ....  153

ORBITAL ENERGIES
----------------

  NO   OCC          E(Eh)            E(eV)
   0   2.0000     -88.547532     -2409.5009
   1   2.0000     -10.053913      -273.5809
   2   2.0000     -10.025205      -272.7997
   3   2.0000     -10.018820      -272.6260
   4   2.0000     -10.008442      -272.3435
   5   2.0000      -7.842761      -213.4124
   6   2.0000      -5.789552      -157.5417
   7   2.0000      -5.786192      -157.4503
   8   2.0000      -5.780260      -157.2889
   9   2.0000      -0.775555       -21.1039
  10   2.0000      -0.717462       -19.5231
  11   2.0000      -0.653445       -17.7811
  12   2.0000      -0.588032       -16.0012
  13   2.0000      -0.522033       -14.2052
  14   2.0000      -0.437623       -11.9083
  15   2.0000      -0.430544       -11.7157
  16   2.0000      -0.388535       -10.5726
  17   2.0000      -0.364829        -9.9275
  18   2.0000      -0.360816        -9.8183
  19   2.0000      -0.332388        -9.0447
  20   2.0000      -0.316638        -8.6161
  21   2.0000      -0.293211        -7.9787
  22   2.0000      -0.291735        -7.9385
  23   2.0000      -0.280829        -7.6417
  24   2.0000      -0.208060        -5.6616
  25   0.0000       0.013644         0.3713
  26   0.0000       0.061685         1.6785
  27   0.0000       0.102187         2.7806
  28   0.0000       0.125714         3.4208
  29   0.0000       0.132881         3.6159

MULLIKEN ATOMIC CHARGES
-----------------------
   0 C :   -0.519712
   1 C :   -0.240451
   2 C :   -0.274759
   3 C :   -0.238054
   4 S :   -0.356895
   5 H :    0.159685
   6 H :    0.156295
   7 H :    0.156900
   8 H :    0.143625
   9 H :    0.154521
  10 H :    0.162560
  11 H :    0.161188
  12 H :    0.178066
  13 H :    0.182372
  14 H :    0.174659
Sum of atomic charges:   -0.0000000

LOEWDIN ATOMIC CHARGES
----------------------
   0 C :   -0.432684
   1 C :   -0.324719
   2 C :   -0.318623
   3 C :   -0.345302
   4 S :   -0.153811
   5 H :    0.152232
   6 H :    0.153939
   7 H :    0.154109
   8 H :    0.156683
   9 H :    0.156246
  10 H :    0.162259
  11 H :    0.166908
  12 H :    0.165664
  13 H :    0.167972
  14 H :    0.139127

  Mayer bond orders larger than 0.100000
B(  0-C ,  1-C ) :   0.9000 B(  0-C ,  5-H ) :   0.9777 B(  0-C ,  6-H ) :   0.9787
B(  0-C ,  7-H ) :   0.9670 B(  1-C ,  2-C ) :   0.8990 B(  1-C ,  8-H ) :   0.9675
B(  1-C ,  9-H ) :   0.9653 B(  2-C ,  3-C ) :   0.9208 B(  2-C , 10-H ) :   0.9658
B(  2-C , 11-H ) :   0.9631 B(  3-C ,  4-S ) :   0.9607 B(  3-C , 12-H ) :   0.9675
B(  3-C , 13-H ) :   0.9501 B(  4-S , 14-H ) :   0.9534

Dispersion correction           -0.003750272
FINAL SINGLE POINT ENERGY      -556.555863032219

DIPOLE MOMENT
-------------

Method             : SCF
Type of density    : Electron Density
Multiplicity       :   1
Irrep              :   0
Energy             :  -556.5624982307120945 Eh
Relativity type    :
Basis              : AO
                                X                 Y                 Z
Electronic contribution:     -7.264808177      -1.449300579      -1.149047568
Nuclear contribution   :      7.631018624       2.116751129       1.662769941
                        -----------------------------------------
Total Dipole Moment    :      0.366210447       0.667450550       0.513722373
                        -----------------------------------------
Magnitude (a.u.)       :      0.918428552
Magnitude (Debye)      :      2.334459857

Rotational constants in cm-1:             0.237036             0.066554             0.062145
Rotational constants in MHz :          7106.170259          1995.232646          1863.071896

                             ****ORCA TERMINATED NORMALLY****
TOTAL RUN TIME: 0 days 0 hours 0 minutes 16 seconds 799 msec
