                         Program Version 6.0.0  -   RELEASE  -
|  1> ! pbe def2-sv(p) def2/J RI DEFGRID1 loosescf d4 GCP(DFT/SV(P)) printgap
|  2> %output
|  3>     printlevel normal
|  4> end
|  5> * xyz 0 1
|  6> C -2.4144874494 -0.0552817843 0.1586823506
|  7> O -1.1741761654 0.1522028485 -0.4857483303
|  8> C -0.0687004708 -0.1055186333 0.3525992202
|  9> C 1.2081985722 0.1467911061 -0.443188727
| 10> O 2.3098470262 -0.1287122585 0.3926027286
| 11> H -2.5123605508 -1.0939969709 0.4915193289
| 12> H -3.1794321931 0.1708462719 -0.5794616554
| 13> H -2.5213660133 0.6090057762 1.0227237736
| 14> H -0.0885700176 0.5513819983 1.2341309552
| 15> H -0.0817194989 -1.1478998551 0.7025641694
| 16> H 1.2148962687 1.191444152 -0.7776333252
| 17> H 1.2060825992 -0.5053810457 -1.3250857058
| 18> H 3.1284758167 0.0186616531 -0.1016260309
| 19> *
| 20>
| 21>                          ****END OF INPUT****

CARTESIAN COORDINATES (ANGSTROEM)
---------------------------------
  C     -2.414487   -0.055282    0.158682
  O     -1.174176    0.152203   -0.485748
  C     -0.068700   -0.105519    0.352599
  C      1.208199    0.146791   -0.443189
  O      2.309847   -0.128712    0.392603
  H     -2.512361   -1.093997    0.491519
  H     -3.179432    0.170846   -0.579462
  H     -2.521366    0.609006    1.022724
  H     -0.088570    0.551382    1.234131
  H     -0.081719   -1.147900    0.702564
  H      1.214896    1.191444   -0.777633
  H      1.206083   -0.505381   -1.325086
  H      3.128476    0.018662   -0.101626

 Total Charge           Charge          ....    0
 Multiplicity           Mult            ....    1
 Number of Electrons    NEL             ....   42
 Basis Dimension        Dim             ....   86

ORBITAL ENERGIES
----------------

  NO   OCC          E(Eh)            E(eV)
   0   2.0000     -18.752675      -510.2862
   1   2.0000     -18.745085      -510.0797
   2   2.0000      -9.928356      -270.1643
   3   2.0000      -9.926536      -270.1148
   4   2.0000      -9.924363      -270.0556
   5   2.0000      -0.933987       -25.4151
   6   2.0000      -0.918413       -24.9913
   7   2.0000      -0.676492       -18.4083
   8   2.0000      -0.596793       -16.2396
   9   2.0000      -0.534096       -14.5335
  10   2.0000      -0.470258       -12.7964
  11   2.0000      -0.435985       -11.8638
  12   2.0000      -0.414722       -11.2852
  13   2.0000      -0.406579       -11.0636
  14   2.0000      -0.387687       -10.5495
  15   2.0000      -0.338340        -9.2067
  16   2.0000      -0.328105        -8.9282
  17   2.0000      -0.282969        -7.7000
  18   2.0000      -0.265047        -7.2123
  19   2.0000      -0.215317        -5.8591
  20   2.0000      -0.204127        -5.5546
  21   0.0000       0.025088         0.6827
  22   0.0000       0.044096         1.1999
  23   0.0000       0.081371         2.2142
  24   0.0000       0.089003         2.4219
  25   0.0000       0.101494         2.7618

MULLIKEN ATOMIC CHARGES
-----------------------
   0 C :   -0.098616
   1 O :   -0.347761
   2 C :   -0.009576
   3 C :    0.002209
   4 O :   -0.442169
   5 H :    0.086399
   6 H :    0.115102
   7 H :    0.086398
   8 H :    0.075572
   9 H :    0.075425
  10 H :    0.077162
  11 H :    0.077379
  12 H :    0.302477
Sum of atomic charges:   -0.0000000

LOEWDIN ATOMIC CHARGES
----------------------
   0 C :   -0.204586
   1 O :   -0.184177
   2 C :   -0.120679
   3 C :   -0.131263
   4 O :   -0.347935
   5 H :    0.097219
   6 H :    0.115378
   7 H :    0.097222
   8 H :    0.097875
   9 H :    0.097888
  10 H :    0.097610
  11 H :    0.097729
  12 H :    0.287719

  Mayer bond orders larger than 0.100000
B(  0-C ,  1-O ) :   1.0196 B(  0-C ,  5-H ) :   0.9435 B(  0-C ,  6-H ) :   0.9649
B(  0-C ,  7-H ) :   0.9436 B(  1-O ,  2-C ) :   1.0218 B(  2-C ,  3-C ) :   1.1092
B(  2-C ,  8-H ) :   0.9124 B(  2-C ,  9-H ) :   0.9125 B(  3-C ,  4-O ) :   1.0809
B(  3-C , 10-H ) :   0.9208 B(  3-C , 11-H ) :   0.9210 B(  4-O , 12-H ) :   0.8528

Dispersion correction           -0.007013525
FINAL SINGLE POINT ENERGY      -268.933569630967

DIPOLE MOMENT
-------------

Method             : SCF
Type of density    : Electron Density
Multiplicity       :   1
Irrep              :   0
Energy             :  -268.9938605969314835 Eh
Relativity type    :
Basis              : AO
                                X                 Y                 Z
Electronic contribution:      2.719293453       0.236801872      -0.769648530
Nuclear contribution   :     -2.641894670      -0.192856268       0.624500062
                        -----------------------------------------
Total Dipole Moment    :      0.077398784       0.043945604      -0.145148468
                        -----------------------------------------
Magnitude (a.u.)       :      0.170264106
Magnitude (Debye)      :      0.432776964

Rotational constants in cm-1:             0.759932             0.071461             0.067845
Rotational constants in MHz :         22782.178786          2142.351539          2033.955648

                             ****ORCA TERMINATED NORMALLY****
TOTAL RUN TIME: 0 days 0 hours 0 minutes 6 seconds 90 msec
