                         Program Version 6.0.0  -   RELEASE  -
|  1> ! pbe def2-sv(p) def2/J RI DEFGRID1 loosescf d4 GCP(DFT/SV(P)) printgap
|  2> %output
|  3>     printlevel normal
|  4> end
|  5> * xyz 0 1
|  6> C -2.2022462909 0.8850841109 0.7307586062
|  7> C -1.8076289679 0.3820674911 -0.6524905023
|  8> C -0.9166222879 -0.8643983008 -0.5714882796
|  9> C 0.4068915392 -0.5450154904 0.0723218008
| 10> O 0.8074962745 -1.0116776789 1.1186830175
| 11> O 1.1073788618 0.3255250636 -0.6463974486
| 12> C 2.3819303022 0.7266340062 -0.1405317727
| 13> H -2.8238372311 1.7726882414 0.649141554
| 14> H -2.7578544118 0.1215529174 1.2700685919
| 15> H -1.3193438659 1.134674067 1.316431713
| 16> H -1.2725305598 1.16400042 -1.1931022048
| 17> H -2.7058853729 0.129295829 -1.2165898395
| 18> H -0.7184916327 -1.2330820965 -1.5783832799
| 19> H -1.4011396502 -1.6445422369 0.0153465699
| 20> H 2.7704739176 1.441631962 -0.8587122691
| 21> H 3.0385905108 -0.1399876962 -0.0548726677
| 22> H 2.2676744535 1.1818767962 0.8440955571
| 23> *
| 24>
| 25>                          ****END OF INPUT****

CARTESIAN COORDINATES (ANGSTROEM)
---------------------------------
  C     -2.202246    0.885084    0.730759
  C     -1.807629    0.382067   -0.652491
  C     -0.916622   -0.864398   -0.571488
  C      0.406892   -0.545015    0.072322
  O      0.807496   -1.011678    1.118683
  O      1.107379    0.325525   -0.646397
  C      2.381930    0.726634   -0.140532
  H     -2.823837    1.772688    0.649142
  H     -2.757854    0.121553    1.270069
  H     -1.319344    1.134674    1.316432
  H     -1.272531    1.164000   -1.193102
  H     -2.705885    0.129296   -1.216590
  H     -0.718492   -1.233082   -1.578383
  H     -1.401140   -1.644542    0.015347
  H      2.770474    1.441632   -0.858712
  H      3.038591   -0.139988   -0.054873
  H      2.267674    1.181877    0.844096

 Total Charge           Charge          ....    0
 Multiplicity           Mult            ....    1
 Number of Electrons    NEL             ....   56
 Basis Dimension        Dim             ....  118

ORBITAL ENERGIES
----------------

  NO   OCC          E(Eh)            E(eV)
   0   2.0000     -18.799778      -511.5680
   1   2.0000     -18.730918      -509.6942
   2   2.0000     -10.003988      -272.2223
   3   2.0000      -9.942509      -270.5494
   4   2.0000      -9.896850      -269.3070
   5   2.0000      -9.894248      -269.2362
   6   2.0000      -9.877815      -268.7890
   7   2.0000      -1.005801       -27.3692
   8   2.0000      -0.907336       -24.6899
   9   2.0000      -0.728253       -19.8168
  10   2.0000      -0.669353       -18.2140
  11   2.0000      -0.620875       -16.8949
  12   2.0000      -0.540293       -14.7021
  13   2.0000      -0.506916       -13.7939
  14   2.0000      -0.450681       -12.2637
  15   2.0000      -0.437489       -11.9047
  16   2.0000      -0.412768       -11.2320
  17   2.0000      -0.400051       -10.8859
  18   2.0000      -0.397125       -10.8063
  19   2.0000      -0.365641        -9.9496
  20   2.0000      -0.349756        -9.5174
  21   2.0000      -0.343139        -9.3373
  22   2.0000      -0.316305        -8.6071
  23   2.0000      -0.300591        -8.1795
  24   2.0000      -0.299449        -8.1484
  25   2.0000      -0.297073        -8.0838
  26   2.0000      -0.257783        -7.0146
  27   2.0000      -0.213801        -5.8178
  28   0.0000      -0.020154        -0.5484
  29   0.0000       0.038630         1.0512
  30   0.0000       0.058356         1.5879
  31   0.0000       0.077518         2.1094
  32   0.0000       0.083673         2.2769

MULLIKEN ATOMIC CHARGES
-----------------------
   0 C :   -0.286314
   1 C :   -0.216448
   2 C :   -0.102256
   3 C :    0.075893
   4 O :   -0.206106
   5 O :   -0.244297
   6 C :   -0.107418
   7 H :    0.106296
   8 H :    0.103224
   9 H :    0.118106
  10 H :    0.103072
  11 H :    0.094442
  12 H :    0.106623
  13 H :    0.097481
  14 H :    0.120394
  15 H :    0.119334
  16 H :    0.117973
Sum of atomic charges:    0.0000000

LOEWDIN ATOMIC CHARGES
----------------------
   0 C :   -0.342214
   1 C :   -0.229405
   2 C :   -0.242212
   3 C :    0.031482
   4 O :   -0.167051
   5 O :   -0.076019
   6 C :   -0.202986
   7 H :    0.120807
   8 H :    0.120510
   9 H :    0.120674
  10 H :    0.119755
  11 H :    0.118643
  12 H :    0.137324
  13 H :    0.132219
  14 H :    0.119972
  15 H :    0.119601
  16 H :    0.118900

  Mayer bond orders larger than 0.100000
B(  0-C ,  1-C ) :   1.1522 B(  0-C ,  7-H ) :   0.9515 B(  0-C ,  8-H ) :   0.9535
B(  0-C ,  9-H ) :   0.9486 B(  1-C ,  2-C ) :   1.1088 B(  1-C , 10-H ) :   0.9246
B(  1-C , 11-H ) :   0.9271 B(  2-C ,  3-C ) :   1.0340 B(  2-C , 12-H ) :   0.8951
B(  2-C , 13-H ) :   0.9108 B(  3-C ,  4-O ) :   2.0653 B(  3-C ,  5-O ) :   1.1923
B(  5-O ,  6-C ) :   0.9424 B(  6-C , 14-H ) :   0.9587 B(  6-C , 15-H ) :   0.9530
B(  6-C , 16-H ) :   0.9513

Dispersion correction           -0.012467711
FINAL SINGLE POINT ENERGY      -346.239570736016

DIPOLE MOMENT
-------------

Method             : SCF
Type of density    : Electron Density
Multiplicity       :   1
Irrep              :   0
Energy             :  -346.3041291179501968 Eh
Relativity type    :
Basis              : AO
                                X                 Y                 Z
Electronic contribution:      4.606114616      -3.187372870       0.164994163
Nuclear contribution   :     -4.589591308       3.675049274      -0.749701227
                        -----------------------------------------
Total Dipole Moment    :      0.016523308       0.487676405      -0.584707064
                        -----------------------------------------
Magnitude (a.u.)       :      0.761566574
Magnitude (Debye)      :      1.935748394

Rotational constants in cm-1:             0.147424             0.055028             0.051539
Rotational constants in MHz :          4419.661739          1649.686463          1545.088655

                             ****ORCA TERMINATED NORMALLY****
TOTAL RUN TIME: 0 days 0 hours 0 minutes 10 seconds 566 msec
