                         Program Version 6.0.0  -   RELEASE  -
|  1> ! pbe def2-sv(p) def2/J RI DEFGRID1 loosescf d4 GCP(DFT/SV(P)) printgap
|  2> %output
|  3>     printlevel normal
|  4> end
|  5> * xyz 0 1
|  6> C -3.2190032662 0.9622316574 -0.0463040584
|  7> C -2.6835842622 0.5672123794 1.1679654621
|  8> C -1.5546763928 -0.2327270311 1.2007358505
|  9> C -0.9523194455 -0.6468930598 0.0203250965
| 10> C -1.4926087599 -0.2441844627 -1.1939348932
| 11> C -2.6220584624 0.5545570454 -1.2275099077
| 12> C 0.309480196 -1.4767892004 0.0537987164
| 13> N 1.4713678095 -0.6168150695 0.0415151165
| 14> C 2.0403634277 -0.0080869367 1.1219828999
| 15> C 3.0517538649 0.7659594563 0.6320138082
| 16> N 3.1104057948 0.651624973 -0.7231350154
| 17> C 2.1479798181 -0.1767697569 -1.0395225638
| 18> H -4.0992664691 1.5861936333 -0.0723261365
| 19> H -3.1451697965 0.8829348759 2.0912042029
| 20> H -1.1419719372 -0.539615958 2.1505956335
| 21> H -1.0283708945 -0.5584268975 -2.1172123746
| 22> H -3.0361213072 0.8594620896 -2.1765553224
| 23> H 0.3404508762 -2.0858434759 0.9599951776
| 24> H 0.3592848491 -2.1277677892 -0.8216153868
| 25> H 1.6964095794 -0.175685164 2.1208136231
| 26> H 3.7416278782 1.3929148299 1.1603097957
| 27> H 1.9230810395 -0.4866739101 -2.0400693601
| 28> *
| 29>
| 30>                          ****END OF INPUT****

CARTESIAN COORDINATES (ANGSTROEM)
---------------------------------
  C     -3.219003    0.962232   -0.046304
  C     -2.683584    0.567212    1.167965
  C     -1.554676   -0.232727    1.200736
  C     -0.952319   -0.646893    0.020325
  C     -1.492609   -0.244184   -1.193935
  C     -2.622058    0.554557   -1.227510
  C      0.309480   -1.476789    0.053799
  N      1.471368   -0.616815    0.041515
  C      2.040363   -0.008087    1.121983
  C      3.051754    0.765959    0.632014
  N      3.110406    0.651625   -0.723135
  C      2.147980   -0.176770   -1.039523
  H     -4.099266    1.586194   -0.072326
  H     -3.145170    0.882935    2.091204
  H     -1.141972   -0.539616    2.150596
  H     -1.028371   -0.558427   -2.117212
  H     -3.036121    0.859462   -2.176555
  H      0.340451   -2.085843    0.959995
  H      0.359285   -2.127768   -0.821615
  H      1.696410   -0.175685    2.120814
  H      3.741628    1.392915    1.160310
  H      1.923081   -0.486674   -2.040069

 Total Charge           Charge          ....    0
 Multiplicity           Mult            ....    1
 Number of Electrons    NEL             ....   84
 Basis Dimension        Dim             ....  188

ORBITAL ENERGIES
----------------

  NO   OCC          E(Eh)            E(eV)
   0   2.0000     -14.056353      -382.4928
   1   2.0000     -13.955927      -379.7601
   2   2.0000      -9.948673      -270.7172
   3   2.0000      -9.925176      -270.0778
   4   2.0000      -9.915673      -269.8192
   5   2.0000      -9.907312      -269.5917
   6   2.0000      -9.905177      -269.5336
   7   2.0000      -9.904748      -269.5219
   8   2.0000      -9.904228      -269.5078
   9   2.0000      -9.904046      -269.5028
  10   2.0000      -9.903547      -269.4892
  11   2.0000      -9.890556      -269.1357
  12   2.0000      -0.935185       -25.4477
  13   2.0000      -0.811466       -22.0811
  14   2.0000      -0.784632       -21.3509
  15   2.0000      -0.706357       -19.2209
  16   2.0000      -0.683304       -18.5936
  17   2.0000      -0.666919       -18.1478
  18   2.0000      -0.635563       -17.2946
  19   2.0000      -0.559608       -15.2277
  20   2.0000      -0.546316       -14.8660
  21   2.0000      -0.534694       -14.5498
  22   2.0000      -0.513423       -13.9710
  23   2.0000      -0.492028       -13.3888
  24   2.0000      -0.473935       -12.8964
  25   2.0000      -0.432886       -11.7794
  26   2.0000      -0.427853       -11.6425
  27   2.0000      -0.402453       -10.9513
  28   2.0000      -0.395495       -10.7620
  29   2.0000      -0.388340       -10.5673
  30   2.0000      -0.385098       -10.4791
  31   2.0000      -0.362972        -9.8770
  32   2.0000      -0.361960        -9.8494
  33   2.0000      -0.351924        -9.5764
  34   2.0000      -0.340882        -9.2759
  35   2.0000      -0.316970        -8.6252
  36   2.0000      -0.311696        -8.4817
  37   2.0000      -0.245889        -6.6910
  38   2.0000      -0.242185        -6.5902
  39   2.0000      -0.231486        -6.2990
  40   2.0000      -0.207530        -5.6472
  41   2.0000      -0.197960        -5.3868
  42   0.0000      -0.051436        -1.3996
  43   0.0000      -0.047837        -1.3017
  44   0.0000      -0.001001        -0.0272
  45   0.0000       0.027335         0.7438
  46   0.0000       0.038441         1.0460

MULLIKEN ATOMIC CHARGES
-----------------------
   0 C :   -0.043928
   1 C :   -0.046742
   2 C :   -0.106294
   3 C :    0.064534
   4 C :   -0.103563
   5 C :   -0.045910
   6 C :    0.007975
   7 N :   -0.126181
   8 C :   -0.040249
   9 C :   -0.079387
  10 N :   -0.125049
  11 C :   -0.013277
  12 H :    0.059724
  13 H :    0.057470
  14 H :    0.043022
  15 H :    0.044067
  16 H :    0.058523
  17 H :    0.103255
  18 H :    0.102667
  19 H :    0.060709
  20 H :    0.060660
  21 H :    0.067972
Sum of atomic charges:    0.0000000

LOEWDIN ATOMIC CHARGES
----------------------
   0 C :   -0.118378
   1 C :   -0.116335
   2 C :   -0.117504
   3 C :   -0.054274
   4 C :   -0.115626
   5 C :   -0.115490
   6 C :   -0.124600
   7 N :    0.058611
   8 C :   -0.154564
   9 C :   -0.145760
  10 N :   -0.116946
  11 C :   -0.113683
  12 H :    0.126556
  13 H :    0.126563
  14 H :    0.121534
  15 H :    0.122497
  16 H :    0.127028
  17 H :    0.130389
  18 H :    0.131750
  19 H :    0.120455
  20 H :    0.115211
  21 H :    0.112566

  Mayer bond orders larger than 0.100000
B(  0-C ,  1-C ) :   1.3834 B(  0-C ,  5-C ) :   1.3810 B(  0-C , 12-H ) :   0.9650
B(  1-C ,  2-C ) :   1.3785 B(  1-C , 13-H ) :   0.9633 B(  2-C ,  3-C ) :   1.3928
B(  2-C , 14-H ) :   0.9598 B(  3-C ,  4-C ) :   1.3911 B(  3-C ,  6-C ) :   1.0524
B(  4-C ,  5-C ) :   1.3805 B(  4-C , 15-H ) :   0.9602 B(  5-C , 16-H ) :   0.9634
B(  6-C ,  7-N ) :   0.9993 B(  6-C , 17-H ) :   0.9092 B(  6-C , 18-H ) :   0.9074
B(  7-N ,  8-C ) :   1.1903 B(  7-N , 11-C ) :   1.2107 B(  8-C ,  9-C ) :   1.4754
B(  8-C , 19-H ) :   0.9630 B(  9-C , 10-N ) :   1.4124 B(  9-C , 20-H ) :   0.9776
B( 10-N , 11-C ) :   1.6342 B( 11-C , 21-H ) :   0.9546

Dispersion correction           -0.025888137
FINAL SINGLE POINT ENERGY      -495.509543348815

DIPOLE MOMENT
-------------

Method             : SCF
Type of density    : Electron Density
Multiplicity       :   1
Irrep              :   0
Energy             :  -495.5712847394718210 Eh
Relativity type    :
Basis              : AO
                                X                 Y                 Z
Electronic contribution:      2.796390320       0.452051565      -0.752017296
Nuclear contribution   :     -4.093463099      -1.174874745       1.173793853
                        -----------------------------------------
Total Dipole Moment    :     -1.297072779      -0.722823180       0.421776557
                        -----------------------------------------
Magnitude (a.u.)       :      1.543621264
Magnitude (Debye)      :      3.923573442

Rotational constants in cm-1:             0.075350             0.018944             0.017843
Rotational constants in MHz :          2258.932871           567.938020           534.930253

                             ****ORCA TERMINATED NORMALLY****
TOTAL RUN TIME: 0 days 0 hours 0 minutes 13 seconds 719 msec
