                         Program Version 6.0.0  -   RELEASE  -
|  1> ! pbe def2-sv(p) def2/J RI DEFGRID1 loosescf d4 GCP(DFT/SV(P)) printgap
|  2> %output
|  3>     printlevel normal
|  4> end
|  5> * xyz 0 1
|  6> C -1.7661609466 0.9752543577 -0.3421888428
|  7> C -1.0530034089 0.2101996522 0.7687745266
|  8> C 0.1335226496 -0.6497000488 0.3015236921
|  9> C 1.197425349 0.1216012289 -0.4907604697
| 10> C 1.863550592 1.2282612508 0.3170644351
| 11> O -0.3052656394 -1.7839181834 -0.4305688534
| 12> H -2.1230704425 0.301099769 -1.1173490741
| 13> H -2.6276914774 1.4943308772 0.0705887876
| 14> H -1.1114880145 1.7152883428 -0.7943260253
| 15> H -0.6937131021 0.9105126824 1.5228484615
| 16> H -1.7642484019 -0.462760056 1.2534787137
| 17> H 0.6061889332 -1.081837479 1.1928165426
| 18> H 1.9529159621 -0.6024775591 -0.805455226
| 19> H 0.7475495295 0.5403526302 -1.3928699454
| 20> H 2.6755920199 1.6684180616 -0.2560728157
| 21> H 1.155075772 2.0142891871 0.5631080314
| 22> H 2.2722930794 0.8296150081 1.2426033226
| 23> H -0.7164228344 -1.479543525 -1.2513871724
| 24> *
| 25>
| 26>                          ****END OF INPUT****

CARTESIAN COORDINATES (ANGSTROEM)
---------------------------------
  C     -1.766161    0.975254   -0.342189
  C     -1.053003    0.210200    0.768775
  C      0.133523   -0.649700    0.301524
  C      1.197425    0.121601   -0.490760
  C      1.863551    1.228261    0.317064
  O     -0.305266   -1.783918   -0.430569
  H     -2.123070    0.301100   -1.117349
  H     -2.627691    1.494331    0.070589
  H     -1.111488    1.715288   -0.794326
  H     -0.693713    0.910513    1.522848
  H     -1.764248   -0.462760    1.253479
  H      0.606189   -1.081837    1.192817
  H      1.952916   -0.602478   -0.805455
  H      0.747550    0.540353   -1.392870
  H      2.675592    1.668418   -0.256073
  H      1.155076    2.014289    0.563108
  H      2.272293    0.829615    1.242603
  H     -0.716423   -1.479544   -1.251387

 Total Charge           Charge          ....    0
 Multiplicity           Mult            ....    1
 Number of Electrons    NEL             ....   50
 Basis Dimension        Dim             ....  108

ORBITAL ENERGIES
----------------

  NO   OCC          E(Eh)            E(eV)
   0   2.0000     -18.735535      -509.8198
   1   2.0000      -9.931116      -270.2394
   2   2.0000      -9.882488      -268.9162
   3   2.0000      -9.882348      -268.9124
   4   2.0000      -9.880980      -268.8751
   5   2.0000      -9.877694      -268.7857
   6   2.0000      -0.913298       -24.8521
   7   2.0000      -0.714945       -19.4546
   8   2.0000      -0.675135       -18.3714
   9   2.0000      -0.604714       -16.4551
  10   2.0000      -0.556521       -15.1437
  11   2.0000      -0.509625       -13.8676
  12   2.0000      -0.439687       -11.9645
  13   2.0000      -0.423392       -11.5211
  14   2.0000      -0.403914       -10.9911
  15   2.0000      -0.377147       -10.2627
  16   2.0000      -0.366992        -9.9864
  17   2.0000      -0.344679        -9.3792
  18   2.0000      -0.331257        -9.0140
  19   2.0000      -0.325226        -8.8498
  20   2.0000      -0.304036        -8.2733
  21   2.0000      -0.298768        -8.1299
  22   2.0000      -0.287925        -7.8348
  23   2.0000      -0.260527        -7.0893
  24   2.0000      -0.208121        -5.6633
  25   0.0000       0.023494         0.6393
  26   0.0000       0.040925         1.1136
  27   0.0000       0.064152         1.7457
  28   0.0000       0.077562         2.1106
  29   0.0000       0.091749         2.4966

MULLIKEN ATOMIC CHARGES
-----------------------
   0 C :   -0.311458
   1 C :   -0.162038
   2 C :    0.040921
   3 C :   -0.181576
   4 C :   -0.289416
   5 O :   -0.429305
   6 H :    0.087064
   7 H :    0.110493
   8 H :    0.113202
   9 H :    0.086935
  10 H :    0.092097
  11 H :    0.065583
  12 H :    0.092736
  13 H :    0.076474
  14 H :    0.105374
  15 H :    0.108148
  16 H :    0.102839
  17 H :    0.291926
Sum of atomic charges:   -0.0000000

LOEWDIN ATOMIC CHARGES
----------------------
   0 C :   -0.346877
   1 C :   -0.249521
   2 C :   -0.053759
   3 C :   -0.249957
   4 C :   -0.341255
   5 O :   -0.329006
   6 H :    0.109556
   7 H :    0.125354
   8 H :    0.118216
   9 H :    0.118519
  10 H :    0.121591
  11 H :    0.111022
  12 H :    0.120601
  13 H :    0.110011
  14 H :    0.122168
  15 H :    0.116644
  16 H :    0.119620
  17 H :    0.277072

  Mayer bond orders larger than 0.100000
B(  0-C ,  1-C ) :   1.1414 B(  0-C ,  6-H ) :   0.9474 B(  0-C ,  7-H ) :   0.9504
B(  0-C ,  8-H ) :   0.9455 B(  1-C ,  2-C ) :   1.0628 B(  1-C ,  9-H ) :   0.9090
B(  1-C , 10-H ) :   0.9186 B(  2-C ,  3-C ) :   1.0804 B(  2-C ,  5-O ) :   1.0381
B(  2-C , 11-H ) :   0.9017 B(  3-C ,  4-C ) :   1.1377 B(  3-C , 12-H ) :   0.9180
B(  3-C , 13-H ) :   0.9090 B(  4-C , 14-H ) :   0.9482 B(  4-C , 15-H ) :   0.9465
B(  4-C , 16-H ) :   0.9537 B(  5-O , 17-H ) :   0.8509

Dispersion correction           -0.013169367
FINAL SINGLE POINT ENERGY      -272.304671712560

DIPOLE MOMENT
-------------

Method             : SCF
Type of density    : Electron Density
Multiplicity       :   1
Irrep              :   0
Energy             :  -272.3743610066397878 Eh
Relativity type    :
Basis              : AO
                                X                 Y                 Z
Electronic contribution:     -0.421897234      -4.874177763      -0.397357861
Nuclear contribution   :      0.345386950       5.459238716       0.207496086
                        -----------------------------------------
Total Dipole Moment    :     -0.076510284       0.585060953      -0.189861775
                        -----------------------------------------
Magnitude (a.u.)       :      0.619836782
Magnitude (Debye)      :      1.575499892

Rotational constants in cm-1:             0.130776             0.093636             0.066543
Rotational constants in MHz :          3920.563357          2807.141039          1994.909236

                             ****ORCA TERMINATED NORMALLY****
TOTAL RUN TIME: 0 days 0 hours 0 minutes 8 seconds 176 msec
