                         Program Version 6.0.0  -   RELEASE  -
|  1> ! r2scan-3c def2/J RI DEFGRID2 scfconv6 printgap
|  2> %output
|  3>     printlevel normal
|  4> end
|  5> * xyz 0 1
|  6> C 1.7465762854 1.226629639 0.2145161433
|  7> C 1.3265381813 -0.1163829161 -0.3812093279
|  8> C 1.722697431 -1.2761477414 0.5400594709
|  9> O -0.0363825184 -0.1827557017 -0.7981666989
| 10> C -1.0751954765 0.3800664782 -0.0007680236
| 11> C -2.3087703801 0.3856176383 -0.9036617781
| 12> C -1.3604924832 -0.399935039 1.2849576121
| 13> H 1.4416887679 2.0438218617 -0.4351948184
| 14> H 1.3118756975 1.3729232411 1.2005852518
| 15> H 2.8281918909 1.2427210826 0.3095668562
| 16> H 1.8532751251 -0.253079239 -1.336085335
| 17> H 2.8051740485 -1.3680058413 0.5550410634
| 18> H 1.2970019573 -2.2027313553 0.1637773939
| 19> H 1.3750834746 -1.1168446338 1.5562665568
| 20> H -0.8207164662 1.4191665073 0.2550089542
| 21> H -2.5905306721 -0.6362383678 -1.1416311844
| 22> H -3.1354955538 0.8825859039 -0.4059894864
| 23> H -2.082399809 0.9046175541 -1.8308263382
| 24> H -0.5762967227 -0.2541062243 2.0222147021
| 25> H -1.4431608766 -1.460517859 1.0616333609
| 26> H -2.2981279274 -0.0548101631 1.7116795427
| 27> *
| 28>
| 29>                          ****END OF INPUT****

CARTESIAN COORDINATES (ANGSTROEM)
---------------------------------
  C      1.746576    1.226630    0.214516
  C      1.326538   -0.116383   -0.381209
  C      1.722697   -1.276148    0.540059
  O     -0.036383   -0.182756   -0.798167
  C     -1.075195    0.380066   -0.000768
  C     -2.308770    0.385618   -0.903662
  C     -1.360492   -0.399935    1.284958
  H      1.441689    2.043822   -0.435195
  H      1.311876    1.372923    1.200585
  H      2.828192    1.242721    0.309567
  H      1.853275   -0.253079   -1.336085
  H      2.805174   -1.368006    0.555041
  H      1.297002   -2.202731    0.163777
  H      1.375083   -1.116845    1.556267
  H     -0.820716    1.419167    0.255009
  H     -2.590531   -0.636238   -1.141631
  H     -3.135496    0.882586   -0.405989
  H     -2.082400    0.904618   -1.830826
  H     -0.576297   -0.254106    2.022215
  H     -1.443161   -1.460518    1.061633
  H     -2.298128   -0.054810    1.711680

 Total Charge           Charge          ....    0
 Multiplicity           Mult            ....    1
 Number of Electrons    NEL             ....   58
 Basis Dimension        Dim             ....  208

ORBITAL ENERGIES
----------------

  NO   OCC          E(Eh)            E(eV)
   0   2.0000     -18.938083      -515.3314
   1   2.0000     -10.079978      -274.2901
   2   2.0000     -10.078228      -274.2425
   3   2.0000     -10.020838      -272.6809
   4   2.0000     -10.015363      -272.5319
   5   2.0000     -10.013811      -272.4897
   6   2.0000     -10.012068      -272.4422
   7   2.0000      -0.982354       -26.7312
   8   2.0000      -0.759327       -20.6623
   9   2.0000      -0.718337       -19.5469
  10   2.0000      -0.656821       -17.8730
  11   2.0000      -0.650133       -17.6910
  12   2.0000      -0.580421       -15.7941
  13   2.0000      -0.513932       -13.9848
  14   2.0000      -0.460131       -12.5208
  15   2.0000      -0.435486       -11.8502
  16   2.0000      -0.419665       -11.4197
  17   2.0000      -0.389072       -10.5872
  18   2.0000      -0.385737       -10.4964
  19   2.0000      -0.370573       -10.0838
  20   2.0000      -0.360450        -9.8083
  21   2.0000      -0.354870        -9.6565
  22   2.0000      -0.347790        -9.4638
  23   2.0000      -0.331638        -9.0243
  24   2.0000      -0.325251        -8.8505
  25   2.0000      -0.308119        -8.3843
  26   2.0000      -0.295747        -8.0477
  27   2.0000      -0.258994        -7.0476
  28   2.0000      -0.212740        -5.7890
  29   0.0000       0.078576         2.1382
  30   0.0000       0.095704         2.6042
  31   0.0000       0.114877         3.1260
  32   0.0000       0.121766         3.3134
  33   0.0000       0.131101         3.5674

MULLIKEN ATOMIC CHARGES
-----------------------
   0 C :   -0.484183
   1 C :   -0.009144
   2 C :   -0.448024
   3 O :   -0.197225
   4 C :   -0.019690
   5 C :   -0.467353
   6 C :   -0.456983
   7 H :    0.160908
   8 H :    0.152664
   9 H :    0.148636
  10 H :    0.145823
  11 H :    0.140602
  12 H :    0.160165
  13 H :    0.136899
  14 H :    0.143831
  15 H :    0.150369
  16 H :    0.138064
  17 H :    0.154852
  18 H :    0.139561
  19 H :    0.167954
  20 H :    0.142274
Sum of atomic charges:   -0.0000000

LOEWDIN ATOMIC CHARGES
----------------------
   0 C :   -0.401472
   1 C :    0.052442
   2 C :   -0.400095
   3 O :   -0.768218
   4 C :    0.056508
   5 C :   -0.379647
   6 C :   -0.401642
   7 H :    0.160661
   8 H :    0.154757
   9 H :    0.160809
  10 H :    0.181768
  11 H :    0.155536
  12 H :    0.163573
  13 H :    0.152049
  14 H :    0.164545
  15 H :    0.161000
  16 H :    0.153679
  17 H :    0.162489
  18 H :    0.150512
  19 H :    0.163246
  20 H :    0.157500

  Mayer bond orders larger than 0.100000
B(  0-C ,  1-C ) :   0.9047 B(  0-C ,  7-H ) :   0.9711 B(  0-C ,  8-H ) :   0.9726
B(  0-C ,  9-H ) :   0.9613 B(  1-C ,  2-C ) :   0.9478 B(  1-C ,  3-O ) :   0.9201
B(  1-C , 10-H ) :   0.9587 B(  2-C , 11-H ) :   0.9654 B(  2-C , 12-H ) :   0.9738
B(  2-C , 13-H ) :   0.9674 B(  3-O ,  4-C ) :   0.8600 B(  4-C ,  5-C ) :   0.9539
B(  4-C ,  6-C ) :   0.8616 B(  4-C , 14-H ) :   0.9595 B(  5-C , 15-H ) :   0.9795
B(  5-C , 16-H ) :   0.9721 B(  5-C , 17-H ) :   0.9731 B(  6-C , 18-H ) :   0.9700
B(  6-C , 19-H ) :   0.9814 B(  6-C , 20-H ) :   0.9654

Dispersion correction           -0.005591283
FINAL SINGLE POINT ENERGY      -312.190151080725

DIPOLE MOMENT
-------------

Method             : SCF
Type of density    : Electron Density
Multiplicity       :   1
Irrep              :   0
Energy             :  -312.1968276522697465 Eh
Relativity type    :
Basis              : AO
                                X                 Y                 Z
Electronic contribution:      0.174905681      -0.263244405      -3.067217221
Nuclear contribution   :     -0.032847545       0.484666041       3.446269066
                        -----------------------------------------
Total Dipole Moment    :      0.142058136       0.221421636       0.379051846
                        -----------------------------------------
Magnitude (a.u.)       :      0.461398263
Magnitude (Debye)      :      1.172781181

Rotational constants in cm-1:             0.131942             0.055942             0.050687
Rotational constants in MHz :          3955.536161          1677.102827          1519.547133

                             ****ORCA TERMINATED NORMALLY****
TOTAL RUN TIME: 0 days 0 hours 0 minutes 23 seconds 665 msec
