                         Program Version 6.0.0  -   RELEASE  -
|  1> ! r2scan-3c def2/J RI DEFGRID2 scfconv6 printgap
|  2> %output
|  3>     printlevel normal
|  4> end
|  5> %cpcm
|  6>     smd true
|  7>     smdsolvent "water"
|  8> end
|  9> * xyz 0 1
| 10> C 1.7465762854 1.226629639 0.2145161433
| 11> C 1.3265381813 -0.1163829161 -0.3812093279
| 12> C 1.722697431 -1.2761477414 0.5400594709
| 13> O -0.0363825184 -0.1827557017 -0.7981666989
| 14> C -1.0751954765 0.3800664782 -0.0007680236
| 15> C -2.3087703801 0.3856176383 -0.9036617781
| 16> C -1.3604924832 -0.399935039 1.2849576121
| 17> H 1.4416887679 2.0438218617 -0.4351948184
| 18> H 1.3118756975 1.3729232411 1.2005852518
| 19> H 2.8281918909 1.2427210826 0.3095668562
| 20> H 1.8532751251 -0.253079239 -1.336085335
| 21> H 2.8051740485 -1.3680058413 0.5550410634
| 22> H 1.2970019573 -2.2027313553 0.1637773939
| 23> H 1.3750834746 -1.1168446338 1.5562665568
| 24> H -0.8207164662 1.4191665073 0.2550089542
| 25> H -2.5905306721 -0.6362383678 -1.1416311844
| 26> H -3.1354955538 0.8825859039 -0.4059894864
| 27> H -2.082399809 0.9046175541 -1.8308263382
| 28> H -0.5762967227 -0.2541062243 2.0222147021
| 29> H -1.4431608766 -1.460517859 1.0616333609
| 30> H -2.2981279274 -0.0548101631 1.7116795427
| 31> *
| 32>
| 33>                          ****END OF INPUT****

CARTESIAN COORDINATES (ANGSTROEM)
---------------------------------
  C      1.746576    1.226630    0.214516
  C      1.326538   -0.116383   -0.381209
  C      1.722697   -1.276148    0.540059
  O     -0.036383   -0.182756   -0.798167
  C     -1.075195    0.380066   -0.000768
  C     -2.308770    0.385618   -0.903662
  C     -1.360492   -0.399935    1.284958
  H      1.441689    2.043822   -0.435195
  H      1.311876    1.372923    1.200585
  H      2.828192    1.242721    0.309567
  H      1.853275   -0.253079   -1.336085
  H      2.805174   -1.368006    0.555041
  H      1.297002   -2.202731    0.163777
  H      1.375083   -1.116845    1.556267
  H     -0.820716    1.419167    0.255009
  H     -2.590531   -0.636238   -1.141631
  H     -3.135496    0.882586   -0.405989
  H     -2.082400    0.904618   -1.830826
  H     -0.576297   -0.254106    2.022215
  H     -1.443161   -1.460518    1.061633
  H     -2.298128   -0.054810    1.711680

 Total Charge           Charge          ....    0
 Multiplicity           Mult            ....    1
 Number of Electrons    NEL             ....   58
 Basis Dimension        Dim             ....  208

ORBITAL ENERGIES
----------------

  NO   OCC          E(Eh)            E(eV)
   0   2.0000     -18.946205      -515.5524
   1   2.0000     -10.076917      -274.2068
   2   2.0000     -10.075569      -274.1702
   3   2.0000     -10.011228      -272.4194
   4   2.0000     -10.009361      -272.3686
   5   2.0000     -10.007960      -272.3304
   6   2.0000     -10.007327      -272.3132
   7   2.0000      -0.988931       -26.9102
   8   2.0000      -0.756047       -20.5731
   9   2.0000      -0.713526       -19.4160
  10   2.0000      -0.650350       -17.6969
  11   2.0000      -0.645467       -17.5640
  12   2.0000      -0.578900       -15.7527
  13   2.0000      -0.510217       -13.8837
  14   2.0000      -0.456904       -12.4330
  15   2.0000      -0.432317       -11.7639
  16   2.0000      -0.417506       -11.3609
  17   2.0000      -0.383390       -10.4326
  18   2.0000      -0.380814       -10.3625
  19   2.0000      -0.365253        -9.9390
  20   2.0000      -0.352999        -9.6056
  21   2.0000      -0.351410        -9.5623
  22   2.0000      -0.341873        -9.3028
  23   2.0000      -0.327644        -8.9156
  24   2.0000      -0.320940        -8.7332
  25   2.0000      -0.303334        -8.2541
  26   2.0000      -0.290690        -7.9101
  27   2.0000      -0.263326        -7.1655
  28   2.0000      -0.218538        -5.9467
  29   0.0000       0.084865         2.3093
  30   0.0000       0.099991         2.7209
  31   0.0000       0.121877         3.3164
  32   0.0000       0.129270         3.5176
  33   0.0000       0.136181         3.7057

MULLIKEN ATOMIC CHARGES
-----------------------
   0 C :   -0.517180
   1 C :    0.015988
   2 C :   -0.499317
   3 O :   -0.274515
   4 C :    0.007785
   5 C :   -0.514526
   6 C :   -0.501051
   7 H :    0.166748
   8 H :    0.171403
   9 H :    0.167513
  10 H :    0.155186
  11 H :    0.160697
  12 H :    0.161579
  13 H :    0.159901
  14 H :    0.160562
  15 H :    0.160758
  16 H :    0.162153
  17 H :    0.160140
  18 H :    0.164295
  19 H :    0.171097
  20 H :    0.160783
Sum of atomic charges:   -0.0000000

LOEWDIN ATOMIC CHARGES
----------------------
   0 C :   -0.404177
   1 C :    0.053137
   2 C :   -0.406138
   3 O :   -0.809042
   4 C :    0.058088
   5 C :   -0.388753
   6 C :   -0.406007
   7 H :    0.162377
   8 H :    0.161259
   9 H :    0.167131
  10 H :    0.184977
  11 H :    0.162559
  12 H :    0.162009
  13 H :    0.158438
  14 H :    0.172769
  15 H :    0.161686
  16 H :    0.162980
  17 H :    0.161615
  18 H :    0.158261
  19 H :    0.163022
  20 H :    0.163809

  Mayer bond orders larger than 0.100000
B(  0-C ,  1-C ) :   0.9060 B(  0-C ,  7-H ) :   0.9659 B(  0-C ,  8-H ) :   0.9678
B(  0-C ,  9-H ) :   0.9573 B(  1-C ,  2-C ) :   0.9377 B(  1-C ,  3-O ) :   0.9106
B(  1-C , 10-H ) :   0.9557 B(  2-C , 11-H ) :   0.9610 B(  2-C , 12-H ) :   0.9711
B(  2-C , 13-H ) :   0.9672 B(  3-O ,  4-C ) :   0.8517 B(  4-C ,  5-C ) :   0.9403
B(  4-C ,  6-C ) :   0.8606 B(  4-C , 14-H ) :   0.9557 B(  5-C , 15-H ) :   0.9769
B(  5-C , 16-H ) :   0.9662 B(  5-C , 17-H ) :   0.9726 B(  6-C , 18-H ) :   0.9661
B(  6-C , 19-H ) :   0.9767 B(  6-C , 20-H ) :   0.9616

Dispersion correction           -0.005591283
FINAL SINGLE POINT ENERGY      -312.192371926993

DIPOLE MOMENT
-------------

Method             : SCF
Type of density    : Electron Density
Multiplicity       :   1
Irrep              :   0
Energy             :  -312.1990484985385024 Eh
Relativity type    :
Basis              : AO
                                X                 Y                 Z
Electronic contribution:      0.238726357      -0.109269740      -2.782527128
Nuclear contribution   :     -0.032847545       0.484666041       3.446269066
                        -----------------------------------------
Total Dipole Moment    :      0.205878812       0.375396302       0.663741939
                        -----------------------------------------
Magnitude (a.u.)       :      0.789849245
Magnitude (Debye)      :      2.007637231

Rotational constants in cm-1:             0.131942             0.055942             0.050687
Rotational constants in MHz :          3955.536161          1677.102827          1519.547133

                             ****ORCA TERMINATED NORMALLY****
TOTAL RUN TIME: 0 days 0 hours 0 minutes 28 seconds 283 msec
