                         Program Version 6.0.0  -   RELEASE  -
|  1> ! pbe def2-sv(p) def2/J RI DEFGRID1 loosescf d4 GCP(DFT/SV(P)) printgap
|  2> %output
|  3>     printlevel normal
|  4> end
|  5> * xyz 0 1
|  6> C 1.8468705843 -1.069587771 0.3823613761
|  7> C 1.2865849603 0.2720168975 0.8440489988
|  8> C 0.1811333819 0.8678047548 -0.045732102
|  9> H -0.0324738163 1.8728029977 0.3647898656
| 10> C -1.1783459733 0.135900861 -0.0860722992
| 11> C -1.1548785004 -1.1778294131 -0.8649759603
| 12> C -1.751343536 -0.0700100681 1.3129324994
| 13> O 0.6173249524 1.0125531411 -1.3877797384
| 14> H 2.8240604436 -1.2367385995 0.8295860715
| 15> H 1.9533457998 -1.0804479555 -0.6994381858
| 16> H 1.200227104 -1.8911164124 0.6739791841
| 17> H 0.9101106769 0.195437492 1.8634998613
| 18> H 2.1022502361 1.0012910243 0.8567418441
| 19> H -1.8398175577 0.8186891484 -0.6337899801
| 20> H -0.6109579798 -1.0462364686 -1.7960076478
| 21> H -0.6893117138 -1.972226958 -0.2911604162
| 22> H -2.1734641736 -1.4794847991 -1.0981305574
| 23> H -2.7767494647 -0.422989338 1.2394925595
| 24> H -1.7466831368 0.8615194864 1.8744343064
| 25> H -1.1762800229 -0.8119623203 1.8606302407
| 26> H 1.4320606253 1.5320449954 -1.3975145289
| 27> *
| 28>
| 29>                          ****END OF INPUT****

CARTESIAN COORDINATES (ANGSTROEM)
---------------------------------
  C      1.846871   -1.069588    0.382361
  C      1.286585    0.272017    0.844049
  C      0.181133    0.867805   -0.045732
  H     -0.032474    1.872803    0.364790
  C     -1.178346    0.135901   -0.086072
  C     -1.154879   -1.177829   -0.864976
  C     -1.751344   -0.070010    1.312932
  O      0.617325    1.012553   -1.387780
  H      2.824060   -1.236739    0.829586
  H      1.953346   -1.080448   -0.699438
  H      1.200227   -1.891116    0.673979
  H      0.910111    0.195437    1.863500
  H      2.102250    1.001291    0.856742
  H     -1.839818    0.818689   -0.633790
  H     -0.610958   -1.046236   -1.796008
  H     -0.689312   -1.972227   -0.291160
  H     -2.173464   -1.479485   -1.098131
  H     -2.776749   -0.422989    1.239493
  H     -1.746683    0.861519    1.874434
  H     -1.176280   -0.811962    1.860630
  H      1.432061    1.532045   -1.397515

 Total Charge           Charge          ....    0
 Multiplicity           Mult            ....    1
 Number of Electrons    NEL             ....   58
 Basis Dimension        Dim             ....  126

ORBITAL ENERGIES
----------------

  NO   OCC          E(Eh)            E(eV)
   0   2.0000     -18.740904      -509.9659
   1   2.0000      -9.932744      -270.2837
   2   2.0000      -9.888924      -269.0913
   3   2.0000      -9.884104      -268.9601
   4   2.0000      -9.872509      -268.6446
   5   2.0000      -9.869932      -268.5745
   6   2.0000      -9.861042      -268.3326
   7   2.0000      -0.918150       -24.9841
   8   2.0000      -0.722729       -19.6664
   9   2.0000      -0.680462       -18.5163
  10   2.0000      -0.607734       -16.5373
  11   2.0000      -0.600904       -16.3514
  12   2.0000      -0.542024       -14.7492
  13   2.0000      -0.480903       -13.0860
  14   2.0000      -0.442912       -12.0523
  15   2.0000      -0.428819       -11.6688
  16   2.0000      -0.407611       -11.0917
  17   2.0000      -0.381473       -10.3804
  18   2.0000      -0.370661       -10.0862
  19   2.0000      -0.344476        -9.3737
  20   2.0000      -0.334373        -9.0987
  21   2.0000      -0.322701        -8.7811
  22   2.0000      -0.319519        -8.6945
  23   2.0000      -0.318397        -8.6640
  24   2.0000      -0.289446        -7.8762
  25   2.0000      -0.285480        -7.7683
  26   2.0000      -0.277237        -7.5440
  27   2.0000      -0.254404        -6.9227
  28   2.0000      -0.212189        -5.7740
  29   0.0000       0.019315         0.5256
  30   0.0000       0.048126         1.3096
  31   0.0000       0.060632         1.6499
  32   0.0000       0.076997         2.0952
  33   0.0000       0.083827         2.2811

MULLIKEN ATOMIC CHARGES
-----------------------
   0 C :   -0.269312
   1 C :   -0.200456
   2 C :    0.055604
   3 H :    0.051052
   4 C :   -0.155212
   5 C :   -0.246904
   6 C :   -0.257915
   7 O :   -0.415824
   8 H :    0.097489
   9 H :    0.101383
  10 H :    0.110350
  11 H :    0.087643
  12 H :    0.070916
  13 H :    0.073662
  14 H :    0.116654
  15 H :    0.091388
  16 H :    0.092948
  17 H :    0.101255
  18 H :    0.097697
  19 H :    0.102617
  20 H :    0.294965
Sum of atomic charges:   -0.0000000

LOEWDIN ATOMIC CHARGES
----------------------
   0 C :   -0.347133
   1 C :   -0.248971
   2 C :   -0.046433
   3 H :    0.094582
   4 C :   -0.158180
   5 C :   -0.334743
   6 C :   -0.329553
   7 O :   -0.326058
   8 H :    0.118148
   9 H :    0.119032
  10 H :    0.117118
  11 H :    0.120574
  12 H :    0.110492
  13 H :    0.120289
  14 H :    0.125060
  15 H :    0.112547
  16 H :    0.116909
  17 H :    0.121390
  18 H :    0.115818
  19 H :    0.116097
  20 H :    0.283016

  Mayer bond orders larger than 0.100000
B(  0-C ,  1-C ) :   1.1607 B(  0-C ,  8-H ) :   0.9481 B(  0-C ,  9-H ) :   0.9408
B(  0-C , 10-H ) :   0.9454 B(  1-C ,  2-C ) :   1.0720 B(  1-C , 11-H ) :   0.9071
B(  1-C , 12-H ) :   0.9178 B(  2-C ,  3-H ) :   0.8968 B(  2-C ,  4-C ) :   1.0407
B(  2-C ,  7-O ) :   1.0513 B(  4-C ,  5-C ) :   1.1273 B(  4-C ,  6-C ) :   1.1061
B(  4-C , 13-H ) :   0.8904 B(  5-C , 14-H ) :   0.9383 B(  5-C , 15-H ) :   0.9401
B(  5-C , 16-H ) :   0.9476 B(  6-C , 17-H ) :   0.9487 B(  6-C , 18-H ) :   0.9484
B(  6-C , 19-H ) :   0.9404 B(  7-O , 20-H ) :   0.8489

Dispersion correction           -0.017416499
FINAL SINGLE POINT ENERGY      -311.515214844020

DIPOLE MOMENT
-------------

Method             : SCF
Type of density    : Electron Density
Multiplicity       :   1
Irrep              :   0
Energy             :  -311.5946058697592207 Eh
Relativity type    :
Basis              : AO
                                X                 Y                 Z
Electronic contribution:      0.889332659       3.694419783      -3.045163840
Nuclear contribution   :     -0.575955056      -3.418105224       3.400992384
                        -----------------------------------------
Total Dipole Moment    :      0.313377603       0.276314558       0.355828544
                        -----------------------------------------
Magnitude (a.u.)       :      0.548788857
Magnitude (Debye)      :      1.394910419

Rotational constants in cm-1:             0.098837             0.066821             0.060346
Rotational constants in MHz :          2963.048339          2003.242484          1809.130468

                             ****ORCA TERMINATED NORMALLY****
TOTAL RUN TIME: 0 days 0 hours 0 minutes 9 seconds 394 msec
