                         Program Version 6.0.0  -   RELEASE  -
|  1> ! r2scan-3c def2/J RI DEFGRID2 scfconv6 printgap
|  2> %output
|  3>     printlevel normal
|  4> end
|  5> * xyz 0 1
|  6> C -3.7481664334 -0.1118919293 -0.4110044641
|  7> C -2.2439971519 -0.1717877558 -0.6452622679
|  8> C -1.4578348485 0.1613947699 0.628953294
|  9> C 0.0194341659 0.0962864515 0.3703842993
| 10> C 0.7147354702 -1.0961026913 0.5289876871
| 11> C 2.0683344884 -1.168240196 0.2513619407
| 12> C 2.7469375646 -0.0459240676 -0.1925610813
| 13> C 2.0636683699 1.1471610969 -0.3563904258
| 14> C 0.7101056776 1.2154984304 -0.0777272602
| 15> H -4.0429822753 -0.8231061442 0.3573147239
| 16> H -4.0442557951 0.8835934736 -0.0878848459
| 17> H -4.2853933118 -0.3508444281 -1.3254656517
| 18> H -1.9651839972 0.5342511766 -1.4306633902
| 19> H -1.9638064328 -1.1711462448 -0.9856333203
| 20> H -1.730267119 -0.5495795316 1.4114378443
| 21> H -1.7327927954 1.1630977219 0.9651080422
| 22> H 0.1903056365 -1.9748403553 0.8765507273
| 23> H 2.5956301072 -2.1018104947 0.3823212714
| 24> H 3.8035191501 -0.1004905596 -0.4085384413
| 25> H 2.587252035 2.0266975547 -0.701396026
| 26> H 0.1819692184 2.1496430179 -0.2060081816
| 27> *
| 28>
| 29>                          ****END OF INPUT****

CARTESIAN COORDINATES (ANGSTROEM)
---------------------------------
  C     -3.748166   -0.111892   -0.411004
  C     -2.243997   -0.171788   -0.645262
  C     -1.457835    0.161395    0.628953
  C      0.019434    0.096286    0.370384
  C      0.714735   -1.096103    0.528988
  C      2.068334   -1.168240    0.251362
  C      2.746938   -0.045924   -0.192561
  C      2.063668    1.147161   -0.356390
  C      0.710106    1.215498   -0.077727
  H     -4.042982   -0.823106    0.357315
  H     -4.044256    0.883593   -0.087885
  H     -4.285393   -0.350844   -1.325466
  H     -1.965184    0.534251   -1.430663
  H     -1.963806   -1.171146   -0.985633
  H     -1.730267   -0.549580    1.411438
  H     -1.732793    1.163098    0.965108
  H      0.190306   -1.974840    0.876551
  H      2.595630   -2.101810    0.382321
  H      3.803519   -0.100491   -0.408538
  H      2.587252    2.026698   -0.701396
  H      0.181969    2.149643   -0.206008

 Total Charge           Charge          ....    0
 Multiplicity           Mult            ....    1
 Number of Electrons    NEL             ....   66
 Basis Dimension        Dim             ....  231

ORBITAL ENERGIES
----------------

  NO   OCC          E(Eh)            E(eV)
   0   2.0000     -10.039316      -273.1837
   1   2.0000     -10.031311      -272.9658
   2   2.0000     -10.031273      -272.9648
   3   2.0000     -10.031171      -272.9620
   4   2.0000     -10.029283      -272.9107
   5   2.0000     -10.029274      -272.9104
   6   2.0000     -10.028893      -272.9000
   7   2.0000     -10.028808      -272.8977
   8   2.0000     -10.018025      -272.6043
   9   2.0000      -0.827377       -22.5141
  10   2.0000      -0.766007       -20.8441
  11   2.0000      -0.714814       -19.4511
  12   2.0000      -0.712932       -19.3999
  13   2.0000      -0.645388       -17.5619
  14   2.0000      -0.573633       -15.6093
  15   2.0000      -0.568074       -15.4581
  16   2.0000      -0.542466       -14.7613
  17   2.0000      -0.480826       -13.0839
  18   2.0000      -0.444260       -12.0889
  19   2.0000      -0.424605       -11.5541
  20   2.0000      -0.409482       -11.1426
  21   2.0000      -0.396398       -10.7865
  22   2.0000      -0.386690       -10.5224
  23   2.0000      -0.383708       -10.4412
  24   2.0000      -0.348129        -9.4731
  25   2.0000      -0.347290        -9.4502
  26   2.0000      -0.331391        -9.0176
  27   2.0000      -0.311376        -8.4730
  28   2.0000      -0.309781        -8.4296
  29   2.0000      -0.297654        -8.0996
  30   2.0000      -0.295071        -8.0293
  31   2.0000      -0.234018        -6.3680
  32   2.0000      -0.223511        -6.0821
  33   0.0000      -0.028743        -0.7821
  34   0.0000      -0.026196        -0.7128
  35   0.0000       0.075266         2.0481
  36   0.0000       0.100081         2.7233
  37   0.0000       0.110834         3.0159

MULLIKEN ATOMIC CHARGES
-----------------------
   0 C :   -0.473484
   1 C :   -0.226095
   2 C :   -0.374147
   3 C :    0.241086
   4 C :   -0.226195
   5 C :   -0.162784
   6 C :   -0.147638
   7 C :   -0.162767
   8 C :   -0.226264
   9 H :    0.143459
  10 H :    0.143441
  11 H :    0.148169
  12 H :    0.145998
  13 H :    0.145981
  14 H :    0.150584
  15 H :    0.150632
  16 H :    0.147782
  17 H :    0.144360
  18 H :    0.145776
  19 H :    0.144360
  20 H :    0.147747
Sum of atomic charges:   -0.0000000

LOEWDIN ATOMIC CHARGES
----------------------
   0 C :   -0.424870
   1 C :   -0.299106
   2 C :   -0.282036
   3 C :   -0.090930
   4 C :   -0.164242
   5 C :   -0.162138
   6 C :   -0.174645
   7 C :   -0.162139
   8 C :   -0.164235
   9 H :    0.149707
  10 H :    0.149700
  11 H :    0.151667
  12 H :    0.155348
  13 H :    0.155355
  14 H :    0.163637
  15 H :    0.163659
  16 H :    0.168345
  17 H :    0.166241
  18 H :    0.166096
  19 H :    0.166246
  20 H :    0.168341

  Mayer bond orders larger than 0.100000
B(  0-C ,  1-C ) :   0.8968 B(  0-C ,  9-H ) :   0.9847 B(  0-C , 10-H ) :   0.9847
B(  0-C , 11-H ) :   0.9735 B(  1-C ,  2-C ) :   0.9294 B(  1-C , 12-H ) :   0.9680
B(  1-C , 13-H ) :   0.9678 B(  2-C ,  3-C ) :   0.7776 B(  2-C , 14-H ) :   1.0042
B(  2-C , 15-H ) :   1.0043 B(  3-C ,  4-C ) :   1.4058 B(  3-C ,  8-C ) :   1.4056
B(  4-C ,  5-C ) :   1.4493 B(  4-C , 16-H ) :   0.9456 B(  5-C ,  6-C ) :   1.4304
B(  5-C , 17-H ) :   0.9481 B(  6-C ,  7-C ) :   1.4303 B(  6-C , 18-H ) :   0.9477
B(  7-C ,  8-C ) :   1.4494 B(  7-C , 19-H ) :   0.9481 B(  8-C , 20-H ) :   0.9456

Dispersion correction           -0.006665964
FINAL SINGLE POINT ENERGY      -350.079926635988

DIPOLE MOMENT
-------------

Method             : SCF
Type of density    : Electron Density
Multiplicity       :   1
Irrep              :   0
Energy             :  -350.0799256755635724 Eh
Relativity type    :
Basis              : AO
                                X                 Y                 Z
Electronic contribution:      9.585719736       0.285153326       1.044418355
Nuclear contribution   :     -9.762571555      -0.295086198      -1.081572683
                        -----------------------------------------
Total Dipole Moment    :     -0.176851819      -0.009932872      -0.037154329
                        -----------------------------------------
Magnitude (a.u.)       :      0.180985281
Magnitude (Debye)      :      0.460028025

Rotational constants in cm-1:             0.145954             0.029145             0.026077
Rotational constants in MHz :          4375.588767           873.757179           781.779178

                             ****ORCA TERMINATED NORMALLY****
TOTAL RUN TIME: 0 days 0 hours 0 minutes 26 seconds 541 msec
