                         Program Version 6.0.0  -   RELEASE  -
|  1> ! r2scan-3c def2/J RI DEFGRID2 scfconv6 printgap
|  2> %output
|  3>     printlevel normal
|  4> end
|  5> %cpcm
|  6>     smd true
|  7>     smdsolvent "water"
|  8> end
|  9> * xyz 0 1
| 10> C -3.7481664334 -0.1118919293 -0.4110044641
| 11> C -2.2439971519 -0.1717877558 -0.6452622679
| 12> C -1.4578348485 0.1613947699 0.628953294
| 13> C 0.0194341659 0.0962864515 0.3703842993
| 14> C 0.7147354702 -1.0961026913 0.5289876871
| 15> C 2.0683344884 -1.168240196 0.2513619407
| 16> C 2.7469375646 -0.0459240676 -0.1925610813
| 17> C 2.0636683699 1.1471610969 -0.3563904258
| 18> C 0.7101056776 1.2154984304 -0.0777272602
| 19> H -4.0429822753 -0.8231061442 0.3573147239
| 20> H -4.0442557951 0.8835934736 -0.0878848459
| 21> H -4.2853933118 -0.3508444281 -1.3254656517
| 22> H -1.9651839972 0.5342511766 -1.4306633902
| 23> H -1.9638064328 -1.1711462448 -0.9856333203
| 24> H -1.730267119 -0.5495795316 1.4114378443
| 25> H -1.7327927954 1.1630977219 0.9651080422
| 26> H 0.1903056365 -1.9748403553 0.8765507273
| 27> H 2.5956301072 -2.1018104947 0.3823212714
| 28> H 3.8035191501 -0.1004905596 -0.4085384413
| 29> H 2.587252035 2.0266975547 -0.701396026
| 30> H 0.1819692184 2.1496430179 -0.2060081816
| 31> *
| 32>
| 33>                          ****END OF INPUT****

CARTESIAN COORDINATES (ANGSTROEM)
---------------------------------
  C     -3.748166   -0.111892   -0.411004
  C     -2.243997   -0.171788   -0.645262
  C     -1.457835    0.161395    0.628953
  C      0.019434    0.096286    0.370384
  C      0.714735   -1.096103    0.528988
  C      2.068334   -1.168240    0.251362
  C      2.746938   -0.045924   -0.192561
  C      2.063668    1.147161   -0.356390
  C      0.710106    1.215498   -0.077727
  H     -4.042982   -0.823106    0.357315
  H     -4.044256    0.883593   -0.087885
  H     -4.285393   -0.350844   -1.325466
  H     -1.965184    0.534251   -1.430663
  H     -1.963806   -1.171146   -0.985633
  H     -1.730267   -0.549580    1.411438
  H     -1.732793    1.163098    0.965108
  H      0.190306   -1.974840    0.876551
  H      2.595630   -2.101810    0.382321
  H      3.803519   -0.100491   -0.408538
  H      2.587252    2.026698   -0.701396
  H      0.181969    2.149643   -0.206008

 Total Charge           Charge          ....    0
 Multiplicity           Mult            ....    1
 Number of Electrons    NEL             ....   66
 Basis Dimension        Dim             ....  231

ORBITAL ENERGIES
----------------

  NO   OCC          E(Eh)            E(eV)
   0   2.0000     -10.038650      -273.1655
   1   2.0000     -10.030473      -272.9430
   2   2.0000     -10.030433      -272.9420
   3   2.0000     -10.028131      -272.8793
   4   2.0000     -10.027777      -272.8697
   5   2.0000     -10.027758      -272.8692
   6   2.0000     -10.022847      -272.7355
   7   2.0000     -10.021379      -272.6956
   8   2.0000     -10.008855      -272.3548
   9   2.0000      -0.827894       -22.5282
  10   2.0000      -0.760665       -20.6987
  11   2.0000      -0.712756       -19.3951
  12   2.0000      -0.711115       -19.3504
  13   2.0000      -0.639895       -17.4124
  14   2.0000      -0.571630       -15.5548
  15   2.0000      -0.563091       -15.3225
  16   2.0000      -0.537686       -14.6312
  17   2.0000      -0.477333       -12.9889
  18   2.0000      -0.438484       -11.9318
  19   2.0000      -0.419412       -11.4128
  20   2.0000      -0.404809       -11.0154
  21   2.0000      -0.390792       -10.6340
  22   2.0000      -0.383443       -10.4340
  23   2.0000      -0.378807       -10.3079
  24   2.0000      -0.345812        -9.4100
  25   2.0000      -0.339712        -9.2440
  26   2.0000      -0.329228        -8.9588
  27   2.0000      -0.304766        -8.2931
  28   2.0000      -0.304698        -8.2913
  29   2.0000      -0.290403        -7.9023
  30   2.0000      -0.289840        -7.8869
  31   2.0000      -0.237393        -6.4598
  32   2.0000      -0.225572        -6.1381
  33   0.0000      -0.030961        -0.8425
  34   0.0000      -0.028143        -0.7658
  35   0.0000       0.085366         2.3229
  36   0.0000       0.106754         2.9049
  37   0.0000       0.109829         2.9886

MULLIKEN ATOMIC CHARGES
-----------------------
   0 C :   -0.517380
   1 C :   -0.243514
   2 C :   -0.333158
   3 C :    0.170359
   4 C :   -0.241410
   5 C :   -0.203510
   6 C :   -0.181573
   7 C :   -0.203724
   8 C :   -0.241318
   9 H :    0.156690
  10 H :    0.156634
  11 H :    0.157944
  12 H :    0.153940
  13 H :    0.153866
  14 H :    0.164170
  15 H :    0.164073
  16 H :    0.178977
  17 H :    0.176041
  18 H :    0.177915
  19 H :    0.176093
  20 H :    0.178885
Sum of atomic charges:   -0.0000000

LOEWDIN ATOMIC CHARGES
----------------------
   0 C :   -0.431692
   1 C :   -0.300075
   2 C :   -0.282597
   3 C :   -0.099371
   4 C :   -0.173442
   5 C :   -0.174932
   6 C :   -0.188923
   7 C :   -0.175005
   8 C :   -0.173440
   9 H :    0.153114
  10 H :    0.153093
  11 H :    0.154045
  12 H :    0.156499
  13 H :    0.156489
  14 H :    0.169142
  15 H :    0.169109
  16 H :    0.179422
  17 H :    0.176558
  18 H :    0.176028
  19 H :    0.176577
  20 H :    0.179400

  Mayer bond orders larger than 0.100000
B(  0-C ,  1-C ) :   0.8928 B(  0-C ,  9-H ) :   0.9824 B(  0-C , 10-H ) :   0.9824
B(  0-C , 11-H ) :   0.9707 B(  1-C ,  2-C ) :   0.9197 B(  1-C , 12-H ) :   0.9690
B(  1-C , 13-H ) :   0.9689 B(  2-C ,  3-C ) :   0.7937 B(  2-C , 14-H ) :   0.9940
B(  2-C , 15-H ) :   0.9941 B(  3-C ,  4-C ) :   1.3817 B(  3-C ,  8-C ) :   1.3814
B(  4-C ,  5-C ) :   1.4112 B(  4-C , 16-H ) :   0.9531 B(  5-C ,  6-C ) :   1.3885
B(  5-C , 17-H ) :   0.9585 B(  6-C ,  7-C ) :   1.3886 B(  6-C , 18-H ) :   0.9549
B(  7-C ,  8-C ) :   1.4113 B(  7-C , 19-H ) :   0.9584 B(  8-C , 20-H ) :   0.9532

Dispersion correction           -0.006665964
FINAL SINGLE POINT ENERGY      -350.081148573333

DIPOLE MOMENT
-------------

Method             : SCF
Type of density    : Electron Density
Multiplicity       :   1
Irrep              :   0
Energy             :  -350.0811476129087509 Eh
Relativity type    :
Basis              : AO
                                X                 Y                 Z
Electronic contribution:      9.480939432       0.289601088       1.064048843
Nuclear contribution   :     -9.762571555      -0.295086198      -1.081572683
                        -----------------------------------------
Total Dipole Moment    :     -0.281632123      -0.005485111      -0.017523840
                        -----------------------------------------
Magnitude (a.u.)       :      0.282230091
Magnitude (Debye)      :      0.717371880

Rotational constants in cm-1:             0.145954             0.029145             0.026077
Rotational constants in MHz :          4375.588767           873.757179           781.779178

                             ****ORCA TERMINATED NORMALLY****
TOTAL RUN TIME: 0 days 0 hours 0 minutes 28 seconds 165 msec
