                         Program Version 6.0.0  -   RELEASE  -
|  1> ! r2scan-3c def2/J RI DEFGRID2 scfconv6 printgap
|  2> %output
|  3>     printlevel normal
|  4> end
|  5> * xyz 0 1
|  6> C -2.1453288646 -0.788580559 0.3774900415
|  7> C -1.238091405 -0.2039389416 -0.6878280391
|  8> S -0.0001430751 0.9558612947 -0.0006327414
|  9> C 1.2390146235 -0.2017740474 0.6882439193
| 10> C 2.1446865143 -0.7898101151 -0.3766029215
| 11> H -2.8895450867 -1.4313115504 -0.086966413
| 12> H -1.5777676681 -1.3800350159 1.0925947346
| 13> H -2.6536975132 0.007819274 0.9155305552
| 14> H -1.8052734567 0.3969961356 -1.3970406449
| 15> H -0.6966831773 -0.977324956 -1.2301524008
| 16> H 1.807460319 0.4016529014 1.3944063883
| 17> H 0.6985975519 -0.9733961006 1.2340750807
| 18> H 2.8909321146 -1.4290899945 0.0891939288
| 19> H 1.5766480855 -1.385574979 -1.0877339192
| 20> H 2.6505335022 0.0050411194 -0.9193051277
| 21> *
| 22>
| 23>                          ****END OF INPUT****

CARTESIAN COORDINATES (ANGSTROEM)
---------------------------------
  C     -2.145329   -0.788581    0.377490
  C     -1.238091   -0.203939   -0.687828
  S     -0.000143    0.955861   -0.000633
  C      1.239015   -0.201774    0.688244
  C      2.144687   -0.789810   -0.376603
  H     -2.889545   -1.431312   -0.086966
  H     -1.577768   -1.380035    1.092595
  H     -2.653698    0.007819    0.915531
  H     -1.805273    0.396996   -1.397041
  H     -0.696683   -0.977325   -1.230152
  H      1.807460    0.401653    1.394406
  H      0.698598   -0.973396    1.234075
  H      2.890932   -1.429090    0.089194
  H      1.576648   -1.385575   -1.087734
  H      2.650534    0.005041   -0.919305

 Total Charge           Charge          ....    0
 Multiplicity           Mult            ....    1
 Number of Electrons    NEL             ....   50
 Basis Dimension        Dim             ....  153

ORBITAL ENERGIES
----------------

  NO   OCC          E(Eh)            E(eV)
   0   2.0000     -88.539846     -2409.2917
   1   2.0000     -10.060074      -273.7485
   2   2.0000     -10.060047      -273.7478
   3   2.0000     -10.025210      -272.7998
   4   2.0000     -10.025194      -272.7994
   5   2.0000      -7.833914      -213.1716
   6   2.0000      -5.781551      -157.3240
   7   2.0000      -5.777619      -157.2170
   8   2.0000      -5.770436      -157.0216
   9   2.0000      -0.778910       -21.1952
  10   2.0000      -0.732608       -19.9353
  11   2.0000      -0.653529       -17.7834
  12   2.0000      -0.596323       -16.2268
  13   2.0000      -0.532767       -14.4973
  14   2.0000      -0.444687       -12.1006
  15   2.0000      -0.428617       -11.6633
  16   2.0000      -0.400855       -10.9078
  17   2.0000      -0.382728       -10.4146
  18   2.0000      -0.366669        -9.9776
  19   2.0000      -0.351343        -9.5605
  20   2.0000      -0.336002        -9.1431
  21   2.0000      -0.328798        -8.9471
  22   2.0000      -0.304870        -8.2959
  23   2.0000      -0.269320        -7.3286
  24   2.0000      -0.189149        -5.1470
  25   0.0000       0.026207         0.7131
  26   0.0000       0.051929         1.4131
  27   0.0000       0.079348         2.1592
  28   0.0000       0.116056         3.1580
  29   0.0000       0.116385         3.1670

MULLIKEN ATOMIC CHARGES
-----------------------
   0 C :   -0.424511
   1 C :   -0.234447
   2 S :   -0.147835
   3 C :   -0.234616
   4 C :   -0.424568
   5 H :    0.140986
   6 H :    0.136516
   7 H :    0.156399
   8 H :    0.155698
   9 H :    0.143319
  10 H :    0.155647
  11 H :    0.143426
  12 H :    0.141023
  13 H :    0.136474
  14 H :    0.156489
Sum of atomic charges:   -0.0000000

LOEWDIN ATOMIC CHARGES
----------------------
   0 C :   -0.430102
   1 C :   -0.363485
   2 S :    0.023714
   3 C :   -0.363491
   4 C :   -0.430109
   5 H :    0.150300
   6 H :    0.148533
   7 H :    0.157421
   8 H :    0.167604
   9 H :    0.157863
  10 H :    0.167631
  11 H :    0.157846
  12 H :    0.150320
  13 H :    0.148502
  14 H :    0.157452

  Mayer bond orders larger than 0.100000
B(  0-C ,  1-C ) :   0.8988 B(  0-C ,  5-H ) :   0.9628 B(  0-C ,  6-H ) :   0.9778
B(  0-C ,  7-H ) :   0.9751 B(  1-C ,  2-S ) :   0.9514 B(  1-C ,  8-H ) :   0.9445
B(  1-C ,  9-H ) :   0.9544 B(  2-S ,  3-C ) :   0.9516 B(  3-C ,  4-C ) :   0.8988
B(  3-C , 10-H ) :   0.9445 B(  3-C , 11-H ) :   0.9545 B(  4-C , 12-H ) :   0.9628
B(  4-C , 13-H ) :   0.9778 B(  4-C , 14-H ) :   0.9751

Dispersion correction           -0.003666935
FINAL SINGLE POINT ENERGY      -556.554517554834

DIPOLE MOMENT
-------------

Method             : SCF
Type of density    : Electron Density
Multiplicity       :   1
Irrep              :   0
Energy             :  -556.5616328705222031 Eh
Relativity type    :
Basis              : AO
                                X                 Y                 Z
Electronic contribution:     -0.000532319       5.679609274      -0.003865348
Nuclear contribution   :      0.001134250      -6.374073814       0.004335598
                        -----------------------------------------
Total Dipole Moment    :      0.000601931      -0.694464540       0.000470250
                        -----------------------------------------
Magnitude (a.u.)       :      0.694464960
Magnitude (Debye)      :      1.765189646

Rotational constants in cm-1:             0.207240             0.077737             0.068407
Rotational constants in MHz :          6212.899829          2330.498516          2050.786069

                             ****ORCA TERMINATED NORMALLY****
TOTAL RUN TIME: 0 days 0 hours 0 minutes 14 seconds 207 msec
