                         Program Version 6.0.0  -   RELEASE  -
|  1> ! r2scan-3c def2/J RI DEFGRID2 scfconv6 printgap
|  2> %output
|  3>     printlevel normal
|  4> end
|  5> %cpcm
|  6>     smd true
|  7>     smdsolvent "water"
|  8> end
|  9> * xyz 0 1
| 10> C -2.1453288646 -0.788580559 0.3774900415
| 11> C -1.238091405 -0.2039389416 -0.6878280391
| 12> S -0.0001430751 0.9558612947 -0.0006327414
| 13> C 1.2390146235 -0.2017740474 0.6882439193
| 14> C 2.1446865143 -0.7898101151 -0.3766029215
| 15> H -2.8895450867 -1.4313115504 -0.086966413
| 16> H -1.5777676681 -1.3800350159 1.0925947346
| 17> H -2.6536975132 0.007819274 0.9155305552
| 18> H -1.8052734567 0.3969961356 -1.3970406449
| 19> H -0.6966831773 -0.977324956 -1.2301524008
| 20> H 1.807460319 0.4016529014 1.3944063883
| 21> H 0.6985975519 -0.9733961006 1.2340750807
| 22> H 2.8909321146 -1.4290899945 0.0891939288
| 23> H 1.5766480855 -1.385574979 -1.0877339192
| 24> H 2.6505335022 0.0050411194 -0.9193051277
| 25> *
| 26>
| 27>                          ****END OF INPUT****

CARTESIAN COORDINATES (ANGSTROEM)
---------------------------------
  C     -2.145329   -0.788581    0.377490
  C     -1.238091   -0.203939   -0.687828
  S     -0.000143    0.955861   -0.000633
  C      1.239015   -0.201774    0.688244
  C      2.144687   -0.789810   -0.376603
  H     -2.889545   -1.431312   -0.086966
  H     -1.577768   -1.380035    1.092595
  H     -2.653698    0.007819    0.915531
  H     -1.805273    0.396996   -1.397041
  H     -0.696683   -0.977325   -1.230152
  H      1.807460    0.401653    1.394406
  H      0.698598   -0.973396    1.234075
  H      2.890932   -1.429090    0.089194
  H      1.576648   -1.385575   -1.087734
  H      2.650534    0.005041   -0.919305

 Total Charge           Charge          ....    0
 Multiplicity           Mult            ....    1
 Number of Electrons    NEL             ....   50
 Basis Dimension        Dim             ....  153

ORBITAL ENERGIES
----------------

  NO   OCC          E(Eh)            E(eV)
   0   2.0000     -88.538748     -2409.2618
   1   2.0000     -10.049964      -273.4734
   2   2.0000     -10.049940      -273.4728
   3   2.0000     -10.013969      -272.4939
   4   2.0000     -10.013965      -272.4938
   5   2.0000      -7.832877      -213.1434
   6   2.0000      -5.780263      -157.2890
   7   2.0000      -5.776476      -157.1859
   8   2.0000      -5.769823      -157.0049
   9   2.0000      -0.771255       -20.9869
  10   2.0000      -0.722201       -19.6521
  11   2.0000      -0.645851       -17.5745
  12   2.0000      -0.586225       -15.9520
  13   2.0000      -0.524239       -14.2653
  14   2.0000      -0.433240       -11.7891
  15   2.0000      -0.418696       -11.3933
  16   2.0000      -0.389535       -10.5998
  17   2.0000      -0.373027       -10.1506
  18   2.0000      -0.357706        -9.7337
  19   2.0000      -0.340856        -9.2752
  20   2.0000      -0.324932        -8.8419
  21   2.0000      -0.317905        -8.6506
  22   2.0000      -0.295255        -8.0343
  23   2.0000      -0.265931        -7.2364
  24   2.0000      -0.189693        -5.1618
  25   0.0000       0.028622         0.7788
  26   0.0000       0.056135         1.5275
  27   0.0000       0.092298         2.5115
  28   0.0000       0.120763         3.2861
  29   0.0000       0.126511         3.4425

MULLIKEN ATOMIC CHARGES
-----------------------
   0 C :   -0.477498
   1 C :   -0.222465
   2 S :   -0.223874
   3 C :   -0.222658
   4 C :   -0.477466
   5 H :    0.157048
   6 H :    0.158909
   7 H :    0.158969
   8 H :    0.169845
   9 H :    0.167163
  10 H :    0.169803
  11 H :    0.167234
  12 H :    0.157078
  13 H :    0.158914
  14 H :    0.158998
Sum of atomic charges:   -0.0000000

LOEWDIN ATOMIC CHARGES
----------------------
   0 C :   -0.436603
   1 C :   -0.359580
   2 S :   -0.018848
   3 C :   -0.359584
   4 C :   -0.436595
   5 H :    0.156397
   6 H :    0.154386
   7 H :    0.155836
   8 H :    0.172008
   9 H :    0.166964
  10 H :    0.172036
  11 H :    0.166937
  12 H :    0.156412
  13 H :    0.154380
  14 H :    0.155853

  Mayer bond orders larger than 0.100000
B(  0-C ,  1-C ) :   0.8896 B(  0-C ,  5-H ) :   0.9589 B(  0-C ,  6-H ) :   0.9756
B(  0-C ,  7-H ) :   0.9764 B(  1-C ,  2-S ) :   0.9376 B(  1-C ,  8-H ) :   0.9392
B(  1-C ,  9-H ) :   0.9484 B(  2-S ,  3-C ) :   0.9378 B(  3-C ,  4-C ) :   0.8897
B(  3-C , 10-H ) :   0.9391 B(  3-C , 11-H ) :   0.9485 B(  4-C , 12-H ) :   0.9589
B(  4-C , 13-H ) :   0.9755 B(  4-C , 14-H ) :   0.9764

Dispersion correction           -0.003666935
FINAL SINGLE POINT ENERGY      -556.556484944448

DIPOLE MOMENT
-------------

Method             : SCF
Type of density    : Electron Density
Multiplicity       :   1
Irrep              :   0
Energy             :  -556.5636002601366954 Eh
Relativity type    :
Basis              : AO
                                X                 Y                 Z
Electronic contribution:     -0.000329777       5.370657338      -0.003628004
Nuclear contribution   :      0.001134250      -6.374073814       0.004335598
                        -----------------------------------------
Total Dipole Moment    :      0.000804473      -1.003416476       0.000707594
                        -----------------------------------------
Magnitude (a.u.)       :      1.003417048
Magnitude (Debye)      :      2.550483446

Rotational constants in cm-1:             0.207240             0.077737             0.068407
Rotational constants in MHz :          6212.899829          2330.498516          2050.786069

                             ****ORCA TERMINATED NORMALLY****
TOTAL RUN TIME: 0 days 0 hours 0 minutes 17 seconds 161 msec
