                         Program Version 6.0.0  -   RELEASE  -
|  1> ! r2scan-3c def2/J RI DEFGRID2 scfconv6 printgap
|  2> %output
|  3>     printlevel normal
|  4> end
|  5> * xyz 0 1
|  6> C 1.6616521964 1.2281158677 -0.5957877684
|  7> C 1.4464989191 -0.2284683973 -0.1878696254
|  8> H 2.1579213604 -0.8563221571 -0.7389601855
|  9> C 0.0316413197 -0.7528802373 -0.4916798387
| 10> C -1.1258721439 0.0430815321 0.1384807576
| 11> C -1.758678687 1.0039685982 -0.867659037
| 12> C -2.1959911507 -0.9073685374 0.6763831121
| 13> O 1.8002813561 -0.438174561 1.1699346302
| 14> H 1.0026346603 1.8888757778 -0.0384112225
| 15> H 2.6903886331 1.5135400952 -0.3883837525
| 16> H 1.4727105028 1.3473645261 -1.6583339773
| 17> H -0.0936671521 -0.7860702707 -1.5744342865
| 18> H 0.0009641312 -1.7815389001 -0.1256123932
| 19> H -0.7466590535 0.6285687401 0.9835705649
| 20> H -2.2030812329 0.4446773322 -1.6882539484
| 21> H -1.0229410488 1.6884324621 -1.2788879525
| 22> H -2.542396153 1.5885091847 -0.390421548
| 23> H -1.7823442445 -1.5664688744 1.4361999068
| 24> H -3.0160137417 -0.3460534276 1.1188200862
| 25> H -2.5952646553 -1.5192117118 -0.1296299138
| 26> H 1.227724454 0.1060228717 1.7283653026
| 27> *
| 28>
| 29>                          ****END OF INPUT****

CARTESIAN COORDINATES (ANGSTROEM)
---------------------------------
  C      1.661652    1.228116   -0.595788
  C      1.446499   -0.228468   -0.187870
  H      2.157921   -0.856322   -0.738960
  C      0.031641   -0.752880   -0.491680
  C     -1.125872    0.043082    0.138481
  C     -1.758679    1.003969   -0.867659
  C     -2.195991   -0.907369    0.676383
  O      1.800281   -0.438175    1.169935
  H      1.002635    1.888876   -0.038411
  H      2.690389    1.513540   -0.388384
  H      1.472711    1.347365   -1.658334
  H     -0.093667   -0.786070   -1.574434
  H      0.000964   -1.781539   -0.125612
  H     -0.746659    0.628569    0.983571
  H     -2.203081    0.444677   -1.688254
  H     -1.022941    1.688432   -1.278888
  H     -2.542396    1.588509   -0.390422
  H     -1.782344   -1.566469    1.436200
  H     -3.016014   -0.346053    1.118820
  H     -2.595265   -1.519212   -0.129630
  H      1.227724    0.106023    1.728365

 Total Charge           Charge          ....    0
 Multiplicity           Mult            ....    1
 Number of Electrons    NEL             ....   58
 Basis Dimension        Dim             ....  208

ORBITAL ENERGIES
----------------

  NO   OCC          E(Eh)            E(eV)
   0   2.0000     -18.942967      -515.4643
   1   2.0000     -10.080052      -274.2922
   2   2.0000     -10.039849      -273.1982
   3   2.0000     -10.022115      -272.7156
   4   2.0000     -10.019370      -272.6409
   5   2.0000     -10.018671      -272.6219
   6   2.0000     -10.017763      -272.5972
   7   2.0000      -0.981433       -26.7062
   8   2.0000      -0.779905       -21.2223
   9   2.0000      -0.720409       -19.6033
  10   2.0000      -0.656040       -17.8518
  11   2.0000      -0.649427       -17.6718
  12   2.0000      -0.576391       -15.6844
  13   2.0000      -0.527479       -14.3534
  14   2.0000      -0.458853       -12.4860
  15   2.0000      -0.436377       -11.8744
  16   2.0000      -0.423792       -11.5320
  17   2.0000      -0.400750       -10.9050
  18   2.0000      -0.396106       -10.7786
  19   2.0000      -0.380780       -10.3616
  20   2.0000      -0.358027        -9.7424
  21   2.0000      -0.349107        -9.4997
  22   2.0000      -0.343672        -9.3518
  23   2.0000      -0.324834        -8.8392
  24   2.0000      -0.313310        -8.5256
  25   2.0000      -0.299188        -8.1413
  26   2.0000      -0.292902        -7.9703
  27   2.0000      -0.273523        -7.4429
  28   2.0000      -0.232976        -6.3396
  29   0.0000       0.056850         1.5470
  30   0.0000       0.089777         2.4430
  31   0.0000       0.100918         2.7461
  32   0.0000       0.113959         3.1010
  33   0.0000       0.123870         3.3707

MULLIKEN ATOMIC CHARGES
-----------------------
   0 C :   -0.500802
   1 C :   -0.041760
   2 H :    0.143937
   3 C :   -0.270391
   4 C :   -0.013815
   5 C :   -0.518375
   6 C :   -0.489743
   7 O :   -0.404584
   8 H :    0.149529
   9 H :    0.162477
  10 H :    0.152923
  11 H :    0.147954
  12 H :    0.162917
  13 H :    0.126603
  14 H :    0.155534
  15 H :    0.152751
  16 H :    0.145703
  17 H :    0.151977
  18 H :    0.144231
  19 H :    0.151360
  20 H :    0.291574
Sum of atomic charges:   -0.0000000

LOEWDIN ATOMIC CHARGES
----------------------
   0 C :   -0.401690
   1 C :    0.046568
   2 H :    0.181068
   3 C :   -0.280959
   4 C :   -0.247892
   5 C :   -0.416170
   6 C :   -0.415226
   7 O :   -0.608375
   8 H :    0.153792
   9 H :    0.161384
  10 H :    0.157986
  11 H :    0.164337
  12 H :    0.170785
  13 H :    0.147130
  14 H :    0.154166
  15 H :    0.154615
  16 H :    0.152851
  17 H :    0.154359
  18 H :    0.151801
  19 H :    0.155201
  20 H :    0.264269

  Mayer bond orders larger than 0.100000
B(  0-C ,  1-C ) :   0.9183 B(  0-C ,  8-H ) :   0.9661 B(  0-C ,  9-H ) :   0.9676
B(  0-C , 10-H ) :   0.9752 B(  1-C ,  2-H ) :   0.9767 B(  1-C ,  3-C ) :   0.8991
B(  1-C ,  7-O ) :   0.9660 B(  3-C ,  4-C ) :   0.7911 B(  3-C , 11-H ) :   0.9699
B(  3-C , 12-H ) :   0.9833 B(  4-C ,  5-C ) :   0.9121 B(  4-C ,  6-C ) :   0.8956
B(  4-C , 13-H ) :   0.9690 B(  5-C , 14-H ) :   0.9908 B(  5-C , 15-H ) :   0.9635
B(  5-C , 16-H ) :   0.9753 B(  6-C , 17-H ) :   0.9763 B(  6-C , 18-H ) :   0.9780
B(  6-C , 19-H ) :   0.9839 B(  7-O , 20-H ) :   0.8897

Dispersion correction           -0.005703975
FINAL SINGLE POINT ENERGY      -312.200090662792

DIPOLE MOMENT
-------------

Method             : SCF
Type of density    : Electron Density
Multiplicity       :   1
Irrep              :   0
Energy             :  -312.2055985498693644 Eh
Relativity type    :
Basis              : AO
                                X                 Y                 Z
Electronic contribution:      4.627220961      -1.844091294       2.318875242
Nuclear contribution   :     -5.086295848       2.198486998      -2.557308273
                        -----------------------------------------
Total Dipole Moment    :     -0.459074887       0.354395703      -0.238433030
                        -----------------------------------------
Magnitude (a.u.)       :      0.627053727
Magnitude (Debye)      :      1.593843909

Rotational constants in cm-1:             0.125646             0.055961             0.044881
Rotational constants in MHz :          3766.774112          1677.653603          1345.490338

                             ****ORCA TERMINATED NORMALLY****
TOTAL RUN TIME: 0 days 0 hours 0 minutes 29 seconds 229 msec
