                         Program Version 6.0.0  -   RELEASE  -
|  1> ! r2scan-3c def2/J RI DEFGRID2 scfconv6 printgap
|  2> %output
|  3>     printlevel normal
|  4> end
|  5> %cpcm
|  6>     smd true
|  7>     smdsolvent "water"
|  8> end
|  9> * xyz 0 1
| 10> C 1.6616521964 1.2281158677 -0.5957877684
| 11> C 1.4464989191 -0.2284683973 -0.1878696254
| 12> H 2.1579213604 -0.8563221571 -0.7389601855
| 13> C 0.0316413197 -0.7528802373 -0.4916798387
| 14> C -1.1258721439 0.0430815321 0.1384807576
| 15> C -1.758678687 1.0039685982 -0.867659037
| 16> C -2.1959911507 -0.9073685374 0.6763831121
| 17> O 1.8002813561 -0.438174561 1.1699346302
| 18> H 1.0026346603 1.8888757778 -0.0384112225
| 19> H 2.6903886331 1.5135400952 -0.3883837525
| 20> H 1.4727105028 1.3473645261 -1.6583339773
| 21> H -0.0936671521 -0.7860702707 -1.5744342865
| 22> H 0.0009641312 -1.7815389001 -0.1256123932
| 23> H -0.7466590535 0.6285687401 0.9835705649
| 24> H -2.2030812329 0.4446773322 -1.6882539484
| 25> H -1.0229410488 1.6884324621 -1.2788879525
| 26> H -2.542396153 1.5885091847 -0.390421548
| 27> H -1.7823442445 -1.5664688744 1.4361999068
| 28> H -3.0160137417 -0.3460534276 1.1188200862
| 29> H -2.5952646553 -1.5192117118 -0.1296299138
| 30> H 1.227724454 0.1060228717 1.7283653026
| 31> *
| 32>
| 33>                          ****END OF INPUT****

CARTESIAN COORDINATES (ANGSTROEM)
---------------------------------
  C      1.661652    1.228116   -0.595788
  C      1.446499   -0.228468   -0.187870
  H      2.157921   -0.856322   -0.738960
  C      0.031641   -0.752880   -0.491680
  C     -1.125872    0.043082    0.138481
  C     -1.758679    1.003969   -0.867659
  C     -2.195991   -0.907369    0.676383
  O      1.800281   -0.438175    1.169935
  H      1.002635    1.888876   -0.038411
  H      2.690389    1.513540   -0.388384
  H      1.472711    1.347365   -1.658334
  H     -0.093667   -0.786070   -1.574434
  H      0.000964   -1.781539   -0.125612
  H     -0.746659    0.628569    0.983571
  H     -2.203081    0.444677   -1.688254
  H     -1.022941    1.688432   -1.278888
  H     -2.542396    1.588509   -0.390422
  H     -1.782344   -1.566469    1.436200
  H     -3.016014   -0.346053    1.118820
  H     -2.595265   -1.519212   -0.129630
  H      1.227724    0.106023    1.728365

 Total Charge           Charge          ....    0
 Multiplicity           Mult            ....    1
 Number of Electrons    NEL             ....   58
 Basis Dimension        Dim             ....  208

ORBITAL ENERGIES
----------------

  NO   OCC          E(Eh)            E(eV)
   0   2.0000     -18.947714      -515.5935
   1   2.0000     -10.074764      -274.1483
   2   2.0000     -10.026318      -272.8300
   3   2.0000     -10.012887      -272.4645
   4   2.0000     -10.008822      -272.3539
   5   2.0000     -10.006322      -272.2859
   6   2.0000     -10.005695      -272.2688
   7   2.0000      -0.984927       -26.8012
   8   2.0000      -0.768672       -20.9166
   9   2.0000      -0.712081       -19.3767
  10   2.0000      -0.645565       -17.5667
  11   2.0000      -0.638859       -17.3842
  12   2.0000      -0.569893       -15.5076
  13   2.0000      -0.516942       -14.0667
  14   2.0000      -0.452704       -12.3187
  15   2.0000      -0.429032       -11.6746
  16   2.0000      -0.415833       -11.3154
  17   2.0000      -0.392264       -10.6741
  18   2.0000      -0.386431       -10.5153
  19   2.0000      -0.372219       -10.1286
  20   2.0000      -0.346517        -9.4292
  21   2.0000      -0.340713        -9.2713
  22   2.0000      -0.334015        -9.0890
  23   2.0000      -0.315977        -8.5982
  24   2.0000      -0.309962        -8.4345
  25   2.0000      -0.286889        -7.8067
  26   2.0000      -0.282771        -7.6946
  27   2.0000      -0.267024        -7.2661
  28   2.0000      -0.237288        -6.4569
  29   0.0000       0.073042         1.9876
  30   0.0000       0.104156         2.8342
  31   0.0000       0.110823         3.0157
  32   0.0000       0.125759         3.4221
  33   0.0000       0.134402         3.6573

MULLIKEN ATOMIC CHARGES
-----------------------
   0 C :   -0.538852
   1 C :   -0.015446
   2 H :    0.153129
   3 C :   -0.313282
   4 C :    0.008520
   5 C :   -0.557649
   6 C :   -0.533276
   7 O :   -0.499033
   8 H :    0.171753
   9 H :    0.161865
  10 H :    0.170048
  11 H :    0.163922
  12 H :    0.164477
  13 H :    0.156550
  14 H :    0.164741
  15 H :    0.161165
  16 H :    0.155716
  17 H :    0.158162
  18 H :    0.155470
  19 H :    0.160646
  20 H :    0.351375
Sum of atomic charges:   -0.0000000

LOEWDIN ATOMIC CHARGES
----------------------
   0 C :   -0.405481
   1 C :    0.045772
   2 H :    0.183542
   3 C :   -0.281701
   4 C :   -0.244945
   5 C :   -0.423740
   6 C :   -0.424040
   7 O :   -0.648381
   8 H :    0.161553
   9 H :    0.159858
  10 H :    0.164731
  11 H :    0.170169
  12 H :    0.168941
  13 H :    0.157696
  14 H :    0.155825
  15 H :    0.156878
  16 H :    0.154804
  17 H :    0.154957
  18 H :    0.154308
  19 H :    0.156476
  20 H :    0.282779

  Mayer bond orders larger than 0.100000
B(  0-C ,  1-C ) :   0.9121 B(  0-C ,  8-H ) :   0.9645 B(  0-C ,  9-H ) :   0.9655
B(  0-C , 10-H ) :   0.9699 B(  1-C ,  2-H ) :   0.9746 B(  1-C ,  3-C ) :   0.9054
B(  1-C ,  7-O ) :   0.9454 B(  3-C ,  4-C ) :   0.7912 B(  3-C , 11-H ) :   0.9671
B(  3-C , 12-H ) :   0.9866 B(  4-C ,  5-C ) :   0.9011 B(  4-C ,  6-C ) :   0.8812
B(  4-C , 13-H ) :   0.9663 B(  5-C , 14-H ) :   0.9886 B(  5-C , 15-H ) :   0.9625
B(  5-C , 16-H ) :   0.9744 B(  6-C , 17-H ) :   0.9752 B(  6-C , 18-H ) :   0.9768
B(  6-C , 19-H ) :   0.9824 B(  7-O , 20-H ) :   0.8622

Dispersion correction           -0.005703975
FINAL SINGLE POINT ENERGY      -312.206264403362

DIPOLE MOMENT
-------------

Method             : SCF
Type of density    : Electron Density
Multiplicity       :   1
Irrep              :   0
Energy             :  -312.2117722904389439 Eh
Relativity type    :
Basis              : AO
                                X                 Y                 Z
Electronic contribution:      4.453831242      -1.645900223       2.247820876
Nuclear contribution   :     -5.086295848       2.198486998      -2.557308273
                        -----------------------------------------
Total Dipole Moment    :     -0.632464606       0.552586774      -0.309487397
                        -----------------------------------------
Magnitude (a.u.)       :      0.895067634
Magnitude (Debye)      :      2.275081122

Rotational constants in cm-1:             0.125646             0.055961             0.044881
Rotational constants in MHz :          3766.774112          1677.653603          1345.490338

                             ****ORCA TERMINATED NORMALLY****
TOTAL RUN TIME: 0 days 0 hours 0 minutes 33 seconds 277 msec
