                         Program Version 6.0.0  -   RELEASE  -
|  1> ! pbe def2-sv(p) def2/J RI DEFGRID1 loosescf d4 GCP(DFT/SV(P)) printgap
|  2> %output
|  3>     printlevel normal
|  4> end
|  5> * xyz 0 1
|  6> C -1.173320846 0.2091937141 -0.39221923
|  7> C -0.0040303736 0.6720287904 0.4988216233
|  8> C 1.0918343939 -0.4030058947 0.601785658
|  9> O 1.1377022842 -1.1798265649 -0.5769003629
| 10> O 0.5927188615 1.8402744227 -0.0239351969
| 11> O -1.7021782178 -1.0314913014 0.0021279063
| 12> H -0.8203104536 0.1747681477 -1.4295860224
| 13> H -1.9951948214 0.9261027391 -0.3171302518
| 14> H -0.3773855698 0.8669210125 1.5159013667
| 15> H 0.8807693178 -1.0457143838 1.466108814
| 16> H 2.037538744 0.1227231023 0.7670718297
| 17> H 1.9680251037 -1.6727699643 -0.6023440888
| 18> H -0.075801648 2.531414281 -0.1252983029
| 19> H -1.0469226336 -1.7122224922 -0.2124541793
| 20> *
| 21>
| 22>                          ****END OF INPUT****

CARTESIAN COORDINATES (ANGSTROEM)
---------------------------------
  C     -1.173321    0.209194   -0.392219
  C     -0.004030    0.672029    0.498822
  C      1.091834   -0.403006    0.601786
  O      1.137702   -1.179827   -0.576900
  O      0.592719    1.840274   -0.023935
  O     -1.702178   -1.031491    0.002128
  H     -0.820310    0.174768   -1.429586
  H     -1.995195    0.926103   -0.317130
  H     -0.377386    0.866921    1.515901
  H      0.880769   -1.045714    1.466109
  H      2.037539    0.122723    0.767072
  H      1.968025   -1.672770   -0.602344
  H     -0.075802    2.531414   -0.125298
  H     -1.046923   -1.712222   -0.212454

 Total Charge           Charge          ....    0
 Multiplicity           Mult            ....    1
 Number of Electrons    NEL             ....   50
 Basis Dimension        Dim             ....  100

ORBITAL ENERGIES
----------------

  NO   OCC          E(Eh)            E(eV)
   0   2.0000     -18.760202      -510.4911
   1   2.0000     -18.745856      -510.1007
   2   2.0000     -18.733702      -509.7699
   3   2.0000      -9.935216      -270.3510
   4   2.0000      -9.935154      -270.3493
   5   2.0000      -9.920721      -269.9565
   6   2.0000      -0.939463       -25.5641
   7   2.0000      -0.919767       -25.0281
   8   2.0000      -0.907829       -24.7033
   9   2.0000      -0.675681       -18.3862
  10   2.0000      -0.605968       -16.4892
  11   2.0000      -0.528793       -14.3892
  12   2.0000      -0.487356       -13.2616
  13   2.0000      -0.470425       -12.8009
  14   2.0000      -0.436540       -11.8789
  15   2.0000      -0.401008       -10.9120
  16   2.0000      -0.381591       -10.3836
  17   2.0000      -0.365488        -9.9454
  18   2.0000      -0.342136        -9.3100
  19   2.0000      -0.305381        -8.3099
  20   2.0000      -0.295693        -8.0462
  21   2.0000      -0.260815        -7.0971
  22   2.0000      -0.230454        -6.2710
  23   2.0000      -0.227154        -6.1812
  24   2.0000      -0.196888        -5.3576
  25   0.0000       0.012788         0.3480
  26   0.0000       0.027994         0.7618
  27   0.0000       0.070829         1.9274
  28   0.0000       0.077380         2.1056
  29   0.0000       0.092492         2.5168

MULLIKEN ATOMIC CHARGES
-----------------------
   0 C :    0.008629
   1 C :    0.012637
   2 C :   -0.008646
   3 O :   -0.442180
   4 O :   -0.427332
   5 O :   -0.446696
   6 H :    0.084963
   7 H :    0.075531
   8 H :    0.061234
   9 H :    0.079516
  10 H :    0.093318
  11 H :    0.307905
  12 H :    0.297845
  13 H :    0.303275
Sum of atomic charges:    0.0000000

LOEWDIN ATOMIC CHARGES
----------------------
   0 C :   -0.143253
   1 C :   -0.087343
   2 C :   -0.132448
   3 O :   -0.340546
   4 O :   -0.327456
   5 O :   -0.342267
   6 H :    0.103318
   7 H :    0.105410
   8 H :    0.099605
   9 H :    0.098753
  10 H :    0.112208
  11 H :    0.292120
  12 H :    0.284428
  13 H :    0.277473

  Mayer bond orders larger than 0.100000
B(  0-C ,  1-C ) :   1.0347 B(  0-C ,  5-O ) :   1.0931 B(  0-C ,  6-H ) :   0.9105
B(  0-C ,  7-H ) :   0.9292 B(  1-C ,  2-C ) :   1.0505 B(  1-C ,  4-O ) :   1.0468
B(  1-C ,  8-H ) :   0.8998 B(  2-C ,  3-O ) :   1.0687 B(  2-C ,  9-H ) :   0.9197
B(  2-C , 10-H ) :   0.9205 B(  3-O , 11-H ) :   0.8476 B(  4-O , 12-H ) :   0.8507
B(  5-O , 13-H ) :   0.8347

Dispersion correction           -0.009413594
FINAL SINGLE POINT ENERGY      -344.005364483322

DIPOLE MOMENT
-------------

Method             : SCF
Type of density    : Electron Density
Multiplicity       :   1
Irrep              :   0
Energy             :  -344.0792677672304194 Eh
Relativity type    :
Basis              : AO
                                X                 Y                 Z
Electronic contribution:      0.071194279      -0.217798856      -0.810428998
Nuclear contribution   :      0.535851915       0.173889314       0.987701042
                        -----------------------------------------
Total Dipole Moment    :      0.607046194      -0.043909542       0.177272044
                        -----------------------------------------
Magnitude (a.u.)       :      0.633923108
Magnitude (Debye)      :      1.611304488

Rotational constants in cm-1:             0.132531             0.112008             0.071388
Rotational constants in MHz :          3973.173306          3357.911116          2140.171491

                             ****ORCA TERMINATED NORMALLY****
TOTAL RUN TIME: 0 days 0 hours 0 minutes 6 seconds 825 msec
