                         Program Version 6.0.0  -   RELEASE  -
|  1> ! pbe def2-sv(p) def2/J RI DEFGRID1 loosescf d4 GCP(DFT/SV(P)) printgap
|  2> %output
|  3>     printlevel normal
|  4> end
|  5> * xyz 0 1
|  6> C -2.0489641543 0.0951753162 -0.6481563177
|  7> O -1.3210468771 -0.2819417839 0.5055451283
|  8> C -0.0404576992 0.3011353692 0.6138587883
|  9> C 0.9862583542 -0.2792270365 -0.3742424171
| 10> O 2.3049271953 0.0849368031 -0.0402665637
| 11> H -2.0942070701 1.1853022078 -0.7390748194
| 12> H -3.0511746597 -0.302538465 -0.5084286376
| 13> H -1.6126491531 -0.3284426313 -1.5565891927
| 14> H -0.1125866774 1.3916882373 0.487081398
| 15> H 0.290270176 0.0802454712 1.6318137599
| 16> H 0.753055955 0.0307544514 -1.4007588206
| 17> H 0.9515531584 -1.3701683152 -0.3211526725
| 18> H 2.4036741552 1.0451077466 -0.1102163184
| 19> *
| 20>
| 21>                          ****END OF INPUT****

CARTESIAN COORDINATES (ANGSTROEM)
---------------------------------
  C     -2.048964    0.095175   -0.648156
  O     -1.321047   -0.281942    0.505545
  C     -0.040458    0.301135    0.613859
  C      0.986258   -0.279227   -0.374242
  O      2.304927    0.084937   -0.040267
  H     -2.094207    1.185302   -0.739075
  H     -3.051175   -0.302538   -0.508429
  H     -1.612649   -0.328443   -1.556589
  H     -0.112587    1.391688    0.487081
  H      0.290270    0.080245    1.631814
  H      0.753056    0.030754   -1.400759
  H      0.951553   -1.370168   -0.321153
  H      2.403674    1.045108   -0.110216

 Total Charge           Charge          ....    0
 Multiplicity           Mult            ....    1
 Number of Electrons    NEL             ....   42
 Basis Dimension        Dim             ....   86

ORBITAL ENERGIES
----------------

  NO   OCC          E(Eh)            E(eV)
   0   2.0000     -18.754623      -510.3392
   1   2.0000     -18.749257      -510.1932
   2   2.0000      -9.930091      -270.2115
   3   2.0000      -9.929993      -270.2089
   4   2.0000      -9.927953      -270.1533
   5   2.0000      -0.936023       -25.4705
   6   2.0000      -0.922130       -25.0924
   7   2.0000      -0.671874       -18.2826
   8   2.0000      -0.611344       -16.6355
   9   2.0000      -0.545092       -14.8327
  10   2.0000      -0.465260       -12.6604
  11   2.0000      -0.442301       -12.0356
  12   2.0000      -0.429818       -11.6959
  13   2.0000      -0.396715       -10.7952
  14   2.0000      -0.380209       -10.3460
  15   2.0000      -0.355678        -9.6785
  16   2.0000      -0.332398        -9.0450
  17   2.0000      -0.280049        -7.6205
  18   2.0000      -0.267838        -7.2882
  19   2.0000      -0.234649        -6.3851
  20   2.0000      -0.196932        -5.3588
  21   0.0000       0.021650         0.5891
  22   0.0000       0.037075         1.0089
  23   0.0000       0.071497         1.9455
  24   0.0000       0.084878         2.3096
  25   0.0000       0.094901         2.5824

MULLIKEN ATOMIC CHARGES
-----------------------
   0 C :   -0.109453
   1 O :   -0.336920
   2 C :   -0.023188
   3 C :   -0.019100
   4 O :   -0.433311
   5 H :    0.082910
   6 H :    0.117070
   7 H :    0.096564
   8 H :    0.055482
   9 H :    0.098270
  10 H :    0.078356
  11 H :    0.097977
  12 H :    0.295341
Sum of atomic charges:    0.0000000

LOEWDIN ATOMIC CHARGES
----------------------
   0 C :   -0.208238
   1 O :   -0.178463
   2 C :   -0.141588
   3 C :   -0.145733
   4 O :   -0.334436
   5 H :    0.096881
   6 H :    0.117289
   7 H :    0.096866
   8 H :    0.087475
   9 H :    0.115822
  10 H :    0.093775
  11 H :    0.117517
  12 H :    0.282832

  Mayer bond orders larger than 0.100000
B(  0-C ,  1-O ) :   1.0177 B(  0-C ,  5-H ) :   0.9395 B(  0-C ,  6-H ) :   0.9638
B(  0-C ,  7-H ) :   0.9417 B(  1-O ,  2-C ) :   1.0347 B(  2-C ,  3-C ) :   1.0721
B(  2-C ,  8-H ) :   0.9135 B(  2-C ,  9-H ) :   0.9269 B(  3-C ,  4-O ) :   1.0584
B(  3-C , 10-H ) :   0.9253 B(  3-C , 11-H ) :   0.9220 B(  4-O , 12-H ) :   0.8545

Dispersion correction           -0.007371784
FINAL SINGLE POINT ENERGY      -268.931199905451

DIPOLE MOMENT
-------------

Method             : SCF
Type of density    : Electron Density
Multiplicity       :   1
Irrep              :   0
Energy             :  -268.9914668098314223 Eh
Relativity type    :
Basis              : AO
                                X                 Y                 Z
Electronic contribution:      2.069909805      -0.910298695       1.856337325
Nuclear contribution   :     -2.304598552       1.621938740      -2.354769980
                        -----------------------------------------
Total Dipole Moment    :     -0.234688747       0.711640044      -0.498432655
                        -----------------------------------------
Magnitude (a.u.)       :      0.899969706
Magnitude (Debye)      :      2.287541199

Rotational constants in cm-1:             0.501691             0.080685             0.075701
Rotational constants in MHz :         15040.330428          2418.876780          2269.446657

                             ****ORCA TERMINATED NORMALLY****
TOTAL RUN TIME: 0 days 0 hours 0 minutes 6 seconds 401 msec
