                         Program Version 6.0.0  -   RELEASE  -
|  1> ! pbe def2-sv(p) def2/J RI DEFGRID1 loosescf d4 GCP(DFT/SV(P)) printgap
|  2> %output
|  3>     printlevel normal
|  4> end
|  5> * xyz 0 1
|  6> C -2.8799769214 -0.1590057002 0.2774951316
|  7> C -1.6612551685 0.7445126702 0.1521113183
|  8> C -0.4048295782 -0.0322474993 -0.1473252149
|  9> O -0.3380227189 -1.2342321446 -0.2875521968
| 10> O 0.6438835002 0.7806713237 -0.2530612735
| 11> C 1.9321967164 0.202489913 -0.5223315622
| 12> C 2.6205859647 -0.2309507066 0.762944813
| 13> H -2.734316638 -0.8803342705 1.0774081123
| 14> H -3.7645249471 0.4329984134 0.4906867619
| 15> H -3.0365164261 -0.7115096979 -0.645356802
| 16> H -1.4905612267 1.3027418186 1.0741490879
| 17> H -1.7947820441 1.4736668723 -0.6488656598
| 18> H 1.7981130487 -0.6511308399 -1.1937830081
| 19> H 2.4887835987 0.9951969032 -1.023042565
| 20> H 3.614879536 -0.5987983957 0.5317291151
| 21> H 2.6982363744 0.6093061576 1.4475662164
| 22> H 2.0521054607 -1.0262652613 1.2399457769
| 23> *
| 24>
| 25>                          ****END OF INPUT****

CARTESIAN COORDINATES (ANGSTROEM)
---------------------------------
  C     -2.879977   -0.159006    0.277495
  C     -1.661255    0.744513    0.152111
  C     -0.404830   -0.032247   -0.147325
  O     -0.338023   -1.234232   -0.287552
  O      0.643884    0.780671   -0.253061
  C      1.932197    0.202490   -0.522332
  C      2.620586   -0.230951    0.762945
  H     -2.734317   -0.880334    1.077408
  H     -3.764525    0.432998    0.490687
  H     -3.036516   -0.711510   -0.645357
  H     -1.490561    1.302742    1.074149
  H     -1.794782    1.473667   -0.648866
  H      1.798113   -0.651131   -1.193783
  H      2.488784    0.995197   -1.023043
  H      3.614880   -0.598798    0.531729
  H      2.698236    0.609306    1.447566
  H      2.052105   -1.026265    1.239946

 Total Charge           Charge          ....    0
 Multiplicity           Mult            ....    1
 Number of Electrons    NEL             ....   56
 Basis Dimension        Dim             ....  118

ORBITAL ENERGIES
----------------

  NO   OCC          E(Eh)            E(eV)
   0   2.0000     -18.794887      -511.4349
   1   2.0000     -18.733421      -509.7623
   2   2.0000     -10.005530      -272.2643
   3   2.0000      -9.945700      -270.6363
   4   2.0000      -9.900121      -269.3960
   5   2.0000      -9.886147      -269.0157
   6   2.0000      -9.877853      -268.7900
   7   2.0000      -1.002353       -27.2754
   8   2.0000      -0.909736       -24.7552
   9   2.0000      -0.717964       -19.5368
  10   2.0000      -0.685883       -18.6638
  11   2.0000      -0.608639       -16.5619
  12   2.0000      -0.556558       -15.1447
  13   2.0000      -0.491655       -13.3786
  14   2.0000      -0.451616       -12.2891
  15   2.0000      -0.435394       -11.8477
  16   2.0000      -0.420101       -11.4315
  17   2.0000      -0.392669       -10.6851
  18   2.0000      -0.388672       -10.5763
  19   2.0000      -0.357322        -9.7232
  20   2.0000      -0.346504        -9.4289
  21   2.0000      -0.337157        -9.1745
  22   2.0000      -0.326905        -8.8955
  23   2.0000      -0.317200        -8.6314
  24   2.0000      -0.304554        -8.2873
  25   2.0000      -0.289323        -7.8729
  26   2.0000      -0.254905        -6.9363
  27   2.0000      -0.219665        -5.9774
  28   0.0000      -0.018416        -0.5011
  29   0.0000       0.040181         1.0934
  30   0.0000       0.058128         1.5817
  31   0.0000       0.081359         2.2139
  32   0.0000       0.090634         2.4663

MULLIKEN ATOMIC CHARGES
-----------------------
   0 C :   -0.264898
   1 C :   -0.192719
   2 C :    0.114894
   3 O :   -0.207372
   4 O :   -0.244470
   5 C :   -0.011032
   6 C :   -0.303421
   7 H :    0.111864
   8 H :    0.100783
   9 H :    0.112614
  10 H :    0.113617
  11 H :    0.114637
  12 H :    0.106555
  13 H :    0.100233
  14 H :    0.111350
  15 H :    0.111833
  16 H :    0.125532
Sum of atomic charges:    0.0000000

LOEWDIN ATOMIC CHARGES
----------------------
   0 C :   -0.336984
   1 C :   -0.259725
   2 C :    0.038776
   3 O :   -0.167186
   4 O :   -0.074511
   5 C :   -0.112555
   6 C :   -0.356429
   7 H :    0.125310
   8 H :    0.120258
   9 H :    0.125624
  10 H :    0.139371
  11 H :    0.140121
  12 H :    0.118414
  13 H :    0.116254
  14 H :    0.129735
  15 H :    0.123660
  16 H :    0.129863

  Mayer bond orders larger than 0.100000
B(  0-C ,  1-C ) :   1.1558 B(  0-C ,  7-H ) :   0.9549 B(  0-C ,  8-H ) :   0.9482
B(  0-C ,  9-H ) :   0.9546 B(  1-C ,  2-C ) :   1.0179 B(  1-C , 10-H ) :   0.9039
B(  1-C , 11-H ) :   0.9018 B(  2-C ,  3-O ) :   2.0483 B(  2-C ,  4-O ) :   1.2066
B(  4-O ,  5-C ) :   0.9252 B(  5-C ,  6-C ) :   1.1723 B(  5-C , 12-H ) :   0.9145
B(  5-C , 13-H ) :   0.9377 B(  6-C , 14-H ) :   0.9446 B(  6-C , 15-H ) :   0.9493
B(  6-C , 16-H ) :   0.9468

Dispersion correction           -0.011914316
FINAL SINGLE POINT ENERGY      -346.246171952325

DIPOLE MOMENT
-------------

Method             : SCF
Type of density    : Electron Density
Multiplicity       :   1
Irrep              :   0
Energy             :  -346.3109990010796650 Eh
Relativity type    :
Basis              : AO
                                X                 Y                 Z
Electronic contribution:      0.456987093      -0.268815844      -2.117437735
Nuclear contribution   :     -0.153624549       0.880661242       2.197087716
                        -----------------------------------------
Total Dipole Moment    :      0.303362544       0.611845397       0.079649981
                        -----------------------------------------
Magnitude (a.u.)       :      0.687551993
Magnitude (Debye)      :      1.747618280

Rotational constants in cm-1:             0.225463             0.046147             0.042978
Rotational constants in MHz :          6759.212214          1383.455615          1288.436102

                             ****ORCA TERMINATED NORMALLY****
TOTAL RUN TIME: 0 days 0 hours 0 minutes 8 seconds 743 msec
