                         Program Version 6.0.0  -   RELEASE  -
|  1> ! pbe def2-sv(p) def2/J RI DEFGRID1 loosescf d4 GCP(DFT/SV(P)) printgap
|  2> %output
|  3>     printlevel normal
|  4> end
|  5> * xyz 0 1
|  6> C 2.749324739 0.4951238763 -0.3682522367
|  7> C 1.2991844147 0.8984483997 -0.1219415098
|  8> C 0.3176033879 -0.2772361131 -0.2300752007
|  9> H 0.5481307821 -0.8119333539 -1.159988671
| 10> C 0.5060066523 -1.2504099837 0.9325406586
| 11> C -1.1359496945 0.2273190501 -0.3614758798
| 12> C -2.0715523431 -0.8769186572 -0.8550688273
| 13> C -1.6859540467 0.8322379976 0.9289005965
| 14> H 2.8508127662 0.0109479638 -1.3372360226
| 15> H 3.3895116449 1.3742426719 -0.3561727926
| 16> H 3.102226156 -0.1896811536 0.3979340575
| 17> H 1.0213165282 1.6575903968 -0.8574978125
| 18> H 1.219989178 1.3521709207 0.8677075429
| 19> H 1.4858569596 -1.7171147303 0.8775179569
| 20> H 0.4283070168 -0.7332923271 1.8854524125
| 21> H -0.2388292695 -2.0406510001 0.902018971
| 22> H -1.1290039111 1.0146513507 -1.1257120808
| 23> H -3.0607787431 -0.4687214326 -1.0493777321
| 24> H -2.1734345142 -1.6643542241 -0.1126698446
| 25> H -1.6959702506 -1.317098987 -1.7760751269
| 26> H -2.6672982727 1.2638372399 0.7441078543
| 27> H -1.035081549 1.6189104437 1.3003858032
| 28> H -1.7914858535 0.0717591978 1.6978075763
| 29> *
| 30>
| 31>                          ****END OF INPUT****

CARTESIAN COORDINATES (ANGSTROEM)
---------------------------------
  C      2.749325    0.495124   -0.368252
  C      1.299184    0.898448   -0.121942
  C      0.317603   -0.277236   -0.230075
  H      0.548131   -0.811933   -1.159989
  C      0.506007   -1.250410    0.932541
  C     -1.135950    0.227319   -0.361476
  C     -2.071552   -0.876919   -0.855069
  C     -1.685954    0.832238    0.928901
  H      2.850813    0.010948   -1.337236
  H      3.389512    1.374243   -0.356173
  H      3.102226   -0.189681    0.397934
  H      1.021317    1.657590   -0.857498
  H      1.219989    1.352171    0.867708
  H      1.485857   -1.717115    0.877518
  H      0.428307   -0.733292    1.885452
  H     -0.238829   -2.040651    0.902019
  H     -1.129004    1.014651   -1.125712
  H     -3.060779   -0.468721   -1.049378
  H     -2.173435   -1.664354   -0.112670
  H     -1.695970   -1.317099   -1.776075
  H     -2.667298    1.263837    0.744108
  H     -1.035082    1.618910    1.300386
  H     -1.791486    0.071759    1.697808

 Total Charge           Charge          ....    0
 Multiplicity           Mult            ....    1
 Number of Electrons    NEL             ....   58
 Basis Dimension        Dim             ....  130

ORBITAL ENERGIES
----------------

  NO   OCC          E(Eh)            E(eV)
   0   2.0000      -9.887827      -269.0615
   1   2.0000      -9.886530      -269.0261
   2   2.0000      -9.877299      -268.7750
   3   2.0000      -9.869453      -268.5615
   4   2.0000      -9.867992      -268.5217
   5   2.0000      -9.867473      -268.5076
   6   2.0000      -9.867419      -268.5061
   7   2.0000      -0.740877       -20.1603
   8   2.0000      -0.684435       -18.6244
   9   2.0000      -0.636416       -17.3178
  10   2.0000      -0.606420       -16.5015
  11   2.0000      -0.574921       -15.6444
  12   2.0000      -0.519450       -14.1349
  13   2.0000      -0.473736       -12.8910
  14   2.0000      -0.423011       -11.5107
  15   2.0000      -0.409348       -11.1389
  16   2.0000      -0.390712       -10.6318
  17   2.0000      -0.378002       -10.2860
  18   2.0000      -0.353763        -9.6264
  19   2.0000      -0.350203        -9.5295
  20   2.0000      -0.332128        -9.0377
  21   2.0000      -0.330064        -8.9815
  22   2.0000      -0.326332        -8.8800
  23   2.0000      -0.312306        -8.4983
  24   2.0000      -0.298521        -8.1232
  25   2.0000      -0.285687        -7.7739
  26   2.0000      -0.270867        -7.3707
  27   2.0000      -0.265289        -7.2189
  28   2.0000      -0.258742        -7.0407
  29   0.0000       0.032316         0.8794
  30   0.0000       0.060730         1.6526
  31   0.0000       0.062164         1.6916
  32   0.0000       0.066367         1.8059
  33   0.0000       0.090313         2.4576

MULLIKEN ATOMIC CHARGES
-----------------------
   0 C :   -0.262951
   1 C :   -0.158852
   2 C :   -0.142917
   3 H :    0.058658
   4 C :   -0.262238
   5 C :   -0.141578
   6 C :   -0.238688
   7 C :   -0.260023
   8 H :    0.095208
   9 H :    0.099659
  10 H :    0.101841
  11 H :    0.076823
  12 H :    0.085129
  13 H :    0.101826
  14 H :    0.099694
  15 H :    0.100008
  16 H :    0.062938
  17 H :    0.095193
  18 H :    0.097409
  19 H :    0.094336
  20 H :    0.096342
  21 H :    0.102968
  22 H :    0.099216
Sum of atomic charges:   -0.0000000

LOEWDIN ATOMIC CHARGES
----------------------
   0 C :   -0.339822
   1 C :   -0.225260
   2 C :   -0.143682
   3 H :    0.110690
   4 C :   -0.332085
   5 C :   -0.149563
   6 C :   -0.329909
   7 C :   -0.331416
   8 H :    0.116071
   9 H :    0.118887
  10 H :    0.116074
  11 H :    0.112444
  12 H :    0.112859
  13 H :    0.118937
  14 H :    0.117620
  15 H :    0.117265
  16 H :    0.111682
  17 H :    0.117359
  18 H :    0.114694
  19 H :    0.115393
  20 H :    0.118344
  21 H :    0.116474
  22 H :    0.116946

  Mayer bond orders larger than 0.100000
B(  0-C ,  1-C ) :   1.1593 B(  0-C ,  8-H ) :   0.9524 B(  0-C ,  9-H ) :   0.9506
B(  0-C , 10-H ) :   0.9484 B(  1-C ,  2-C ) :   1.0868 B(  1-C , 11-H ) :   0.9207
B(  1-C , 12-H ) :   0.9134 B(  2-C ,  3-H ) :   0.8981 B(  2-C ,  4-C ) :   1.0988
B(  2-C ,  5-C ) :   1.0441 B(  4-C , 13-H ) :   0.9434 B(  4-C , 14-H ) :   0.9420
B(  4-C , 15-H ) :   0.9454 B(  5-C ,  6-C ) :   1.1161 B(  5-C ,  7-C ) :   1.1034
B(  5-C , 16-H ) :   0.8970 B(  6-C , 17-H ) :   0.9491 B(  6-C , 18-H ) :   0.9427
B(  6-C , 19-H ) :   0.9484 B(  7-C , 20-H ) :   0.9487 B(  7-C , 21-H ) :   0.9488
B(  7-C , 22-H ) :   0.9437

Dispersion correction           -0.019086460
FINAL SINGLE POINT ENERGY      -275.660691413015

DIPOLE MOMENT
-------------

Method             : SCF
Type of density    : Electron Density
Multiplicity       :   1
Irrep              :   0
Energy             :  -275.7381161737160937 Eh
Relativity type    :
Basis              : AO
                                X                 Y                 Z
Electronic contribution:     -0.228346931       0.565959107      -0.866628527
Nuclear contribution   :      0.238545059      -0.542948757       0.842658564
                        -----------------------------------------
Total Dipole Moment    :      0.010198128       0.023010350      -0.023969963
                        -----------------------------------------
Magnitude (a.u.)       :      0.034756829
Magnitude (Debye)      :      0.088344838

Rotational constants in cm-1:             0.133914             0.049634             0.047240
Rotational constants in MHz :          4014.648715          1488.001298          1416.226802

                             ****ORCA TERMINATED NORMALLY****
TOTAL RUN TIME: 0 days 0 hours 0 minutes 9 seconds 930 msec
