                         Program Version 6.0.0  -   RELEASE  -
|  1> ! r2scan-3c def2/J RI DEFGRID2 scfconv6 printgap
|  2> %output
|  3>     printlevel normal
|  4> end
|  5> %cpcm
|  6>     smd true
|  7>     smdsolvent "water"
|  8> end
|  9> * xyz 0 1
| 10> C -2.1625969152 1.0537770038 -0.7445834623
| 11> C -1.9049688974 -0.0398420032 0.2899567808
| 12> C -0.4586261025 -0.4647074841 0.3317333832
| 13> O -0.0860840121 -1.6209030126 0.3423417982
| 14> O 0.3658937128 0.5716879353 0.3867212858
| 15> C 1.7797135071 0.3211899112 0.427729086
| 16> C 2.3504865335 0.1626071442 -0.973237926
| 17> H -3.2096650792 1.3402421802 -0.720298541
| 18> H -1.5523633776 1.92617698 -0.5305198502
| 19> H -1.9233968899 0.6966925729 -1.7430691379
| 20> H -2.5059988662 -0.9260913512 0.086271853
| 21> H -2.1591102853 0.3317069655 1.2849231708
| 22> H 2.1980294789 1.1936092566 0.9305897279
| 23> H 1.9577985477 -0.5816501617 1.019939484
| 24> H 3.4264278156 0.0362679566 -0.9110958362
| 25> H 1.9198289781 -0.7134110585 -1.4530503088
| 26> H 2.125730241 1.0412860815 -1.5715820427
| 27> *
| 28>
| 29>                          ****END OF INPUT****

CARTESIAN COORDINATES (ANGSTROEM)
---------------------------------
  C     -2.162597    1.053777   -0.744583
  C     -1.904969   -0.039842    0.289957
  C     -0.458626   -0.464707    0.331733
  O     -0.086084   -1.620903    0.342342
  O      0.365894    0.571688    0.386721
  C      1.779714    0.321190    0.427729
  C      2.350487    0.162607   -0.973238
  H     -3.209665    1.340242   -0.720299
  H     -1.552363    1.926177   -0.530520
  H     -1.923397    0.696693   -1.743069
  H     -2.505999   -0.926091    0.086272
  H     -2.159110    0.331707    1.284923
  H      2.198029    1.193609    0.930590
  H      1.957799   -0.581650    1.019939
  H      3.426428    0.036268   -0.911096
  H      1.919829   -0.713411   -1.453050
  H      2.125730    1.041286   -1.571582

 Total Charge           Charge          ....    0
 Multiplicity           Mult            ....    1
 Number of Electrons    NEL             ....   56
 Basis Dimension        Dim             ....  193

ORBITAL ENERGIES
----------------

  NO   OCC          E(Eh)            E(eV)
   0   2.0000     -19.001998      -517.0707
   1   2.0000     -18.942593      -515.4542
   2   2.0000     -10.162129      -276.5256
   3   2.0000     -10.083619      -274.3892
   4   2.0000     -10.037801      -273.1425
   5   2.0000     -10.018843      -272.6266
   6   2.0000     -10.018309      -272.6120
   7   2.0000      -1.078999       -29.3610
   8   2.0000      -0.987966       -26.8839
   9   2.0000      -0.761540       -20.7226
  10   2.0000      -0.721157       -19.6237
  11   2.0000      -0.634723       -17.2717
  12   2.0000      -0.597478       -16.2582
  13   2.0000      -0.519851       -14.1459
  14   2.0000      -0.469697       -12.7811
  15   2.0000      -0.462153       -12.5758
  16   2.0000      -0.439967       -11.9721
  17   2.0000      -0.409102       -11.1322
  18   2.0000      -0.404692       -11.0122
  19   2.0000      -0.371335       -10.1045
  20   2.0000      -0.366232        -9.9657
  21   2.0000      -0.347318        -9.4510
  22   2.0000      -0.334850        -9.1117
  23   2.0000      -0.327871        -8.9218
  24   2.0000      -0.317684        -8.6446
  25   2.0000      -0.302034        -8.2188
  26   2.0000      -0.277991        -7.5645
  27   2.0000      -0.248167        -6.7530
  28   0.0000      -0.022152        -0.6028
  29   0.0000       0.079484         2.1629
  30   0.0000       0.097351         2.6491
  31   0.0000       0.124954         3.4002
  32   0.0000       0.133598         3.6354

MULLIKEN ATOMIC CHARGES
-----------------------
   0 C :   -0.497236
   1 C :   -0.316830
   2 C :    0.440262
   3 O :   -0.516868
   4 O :   -0.189278
   5 C :   -0.143054
   6 C :   -0.490789
   7 H :    0.166968
   8 H :    0.166201
   9 H :    0.164427
  10 H :    0.175224
  11 H :    0.191966
  12 H :    0.173682
  13 H :    0.171290
  14 H :    0.170236
  15 H :    0.168122
  16 H :    0.165676
Sum of atomic charges:   -0.0000000

LOEWDIN ATOMIC CHARGES
----------------------
   0 C :   -0.399842
   1 C :   -0.232880
   2 C :    0.369038
   3 O :   -0.496040
   4 O :   -0.601854
   5 C :    0.032833
   6 C :   -0.393184
   7 H :    0.158536
   8 H :    0.163932
   9 H :    0.159864
  10 H :    0.178919
  11 H :    0.190185
  12 H :    0.189008
  13 H :    0.189239
  14 H :    0.167895
  15 H :    0.162483
  16 H :    0.161867

  Mayer bond orders larger than 0.100000
B(  0-C ,  1-C ) :   0.8791 B(  0-C ,  7-H ) :   0.9668 B(  0-C ,  8-H ) :   0.9719
B(  0-C ,  9-H ) :   0.9723 B(  1-C ,  2-C ) :   0.9898 B(  1-C , 10-H ) :   0.9824
B(  1-C , 11-H ) :   0.9309 B(  2-C ,  3-O ) :   1.7757 B(  2-C ,  4-O ) :   1.0769
B(  4-O ,  5-C ) :   0.8021 B(  5-C ,  6-C ) :   0.9353 B(  5-C , 12-H ) :   0.9523
B(  5-C , 13-H ) :   0.9653 B(  6-C , 14-H ) :   0.9599 B(  6-C , 15-H ) :   0.9697
B(  6-C , 16-H ) :   0.9693

Dispersion correction           -0.004057862
FINAL SINGLE POINT ENERGY      -346.941041688620

DIPOLE MOMENT
-------------

Method             : SCF
Type of density    : Electron Density
Multiplicity       :   1
Irrep              :   0
Energy             :  -346.9474310664958807 Eh
Relativity type    :
Basis              : AO
                                X                 Y                 Z
Electronic contribution:     -0.162779687      -2.875993682       3.304748652
Nuclear contribution   :      0.264284032       4.060620632      -3.373996250
                        -----------------------------------------
Total Dipole Moment    :      0.101504345       1.184626951      -0.069247598
                        -----------------------------------------
Magnitude (a.u.)       :      1.190982525
Magnitude (Debye)      :      3.027236999

Rotational constants in cm-1:             0.147796             0.056874             0.048152
Rotational constants in MHz :          4430.824308          1705.035850          1443.558938

                             ****ORCA TERMINATED NORMALLY****
TOTAL RUN TIME: 0 days 0 hours 0 minutes 27 seconds 115 msec
