                         Program Version 6.0.0  -   RELEASE  -
|  1> ! r2scan-3c def2/J RI DEFGRID2 scfconv6 printgap
|  2> %output
|  3>     printlevel normal
|  4> end
|  5> * xyz 0 1
|  6> C 1.4653316721 -2.4425140328 -0.963665833
|  7> O 1.0879366271 -1.7698589319 0.2394294582
|  8> C 0.7240352462 -0.4587267849 0.0869080693
|  9> C 1.6748928362 0.563103641 0.0430279619
| 10> C 1.2909639177 1.8919429723 -0.0389018429
| 11> C -0.050432113 2.2253772895 -0.07024628
| 12> C -1.0055225648 1.2234221294 -0.0098697886
| 13> C -0.631735999 -0.1149991802 0.0625415278
| 14> C -1.6433184744 -1.2193597443 0.1014329102
| 15> O -1.7089480206 -2.0925489572 -0.7332921601
| 16> O -2.447156455 -1.1328789172 1.1380865771
| 17> Cl -2.6793444182 1.6417748665 -0.0670889871
| 18> Cl 3.3532298677 0.1558537745 0.1226327975
| 19> H 2.2550721371 -1.9006039812 -1.4875315703
| 20> H 0.5953231798 -2.5595575765 -1.6145043718
| 21> H 1.8273882466 -3.4160055531 -0.6448490855
| 22> H 2.0445165305 2.6612606011 -0.0737677355
| 23> H -0.3569834825 3.255798198 -0.1355706189
| 24> H -3.1041367124 -1.8577809307 1.1757547146
| 25> *
| 26>
| 27>                          ****END OF INPUT****

CARTESIAN COORDINATES (ANGSTROEM)
---------------------------------
  C      1.465332   -2.442514   -0.963666
  O      1.087937   -1.769859    0.239429
  C      0.724035   -0.458727    0.086908
  C      1.674893    0.563104    0.043028
  C      1.290964    1.891943   -0.038902
  C     -0.050432    2.225377   -0.070246
  C     -1.005523    1.223422   -0.009870
  C     -0.631736   -0.114999    0.062542
  C     -1.643318   -1.219360    0.101433
  O     -1.708948   -2.092549   -0.733292
  O     -2.447156   -1.132879    1.138087
  Cl    -2.679344    1.641775   -0.067089
  Cl     3.353230    0.155854    0.122633
  H      2.255072   -1.900604   -1.487532
  H      0.595323   -2.559558   -1.614504
  H      1.827388   -3.416006   -0.644849
  H      2.044517    2.661261   -0.073768
  H     -0.356983    3.255798   -0.135571
  H     -3.104137   -1.857781    1.175755

 Total Charge           Charge          ....    0
 Multiplicity           Mult            ....    1
 Number of Electrons    NEL             ....  112
 Basis Dimension        Dim             ....  308

ORBITAL ENERGIES
----------------

  NO   OCC          E(Eh)            E(eV)
   0   2.0000    -101.233122     -2754.6933
   1   2.0000    -101.232857     -2754.6861
   2   2.0000     -19.016579      -517.4674
   3   2.0000     -18.988332      -516.6988
   4   2.0000     -18.951798      -515.7046
   5   2.0000     -10.183196      -277.0988
   6   2.0000     -10.127884      -275.5937
   7   2.0000     -10.123108      -275.4638
   8   2.0000     -10.116370      -275.2804
   9   2.0000     -10.081511      -274.3319
  10   2.0000     -10.081097      -274.3206
  11   2.0000     -10.071347      -274.0553
  12   2.0000     -10.067079      -273.9392
  13   2.0000      -9.389156      -255.4919
  14   2.0000      -9.388612      -255.4771
  15   2.0000      -7.135522      -194.1674
  16   2.0000      -7.135003      -194.1533
  17   2.0000      -7.125372      -193.8912
  18   2.0000      -7.124893      -193.8782
  19   2.0000      -7.124801      -193.8757
  20   2.0000      -7.124227      -193.8601
  21   2.0000      -1.094691       -29.7881
  22   2.0000      -1.038180       -28.2503
  23   2.0000      -0.996456       -27.1150
  24   2.0000      -0.889195       -24.1962
  25   2.0000      -0.857962       -23.3463
  26   2.0000      -0.804434       -21.8898
  27   2.0000      -0.763639       -20.7797
  28   2.0000      -0.712532       -19.3890
  29   2.0000      -0.672867       -18.3096
  30   2.0000      -0.654008       -17.7965
  31   2.0000      -0.593578       -16.1521
  32   2.0000      -0.583149       -15.8683
  33   2.0000      -0.514967       -14.0130
  34   2.0000      -0.498811       -13.5733
  35   2.0000      -0.491784       -13.3821
  36   2.0000      -0.461543       -12.5592
  37   2.0000      -0.457321       -12.4443
  38   2.0000      -0.445109       -12.1120
  39   2.0000      -0.436084       -11.8664
  40   2.0000      -0.425488       -11.5781
  41   2.0000      -0.414160       -11.2699
  42   2.0000      -0.391843       -10.6626
  43   2.0000      -0.390723       -10.6321
  44   2.0000      -0.378084       -10.2882
  45   2.0000      -0.366804        -9.9812
  46   2.0000      -0.354141        -9.6367
  47   2.0000      -0.334112        -9.0916
  48   2.0000      -0.311087        -8.4651
  49   2.0000      -0.301580        -8.2064
  50   2.0000      -0.296813        -8.0767
  51   2.0000      -0.293132        -7.9765
  52   2.0000      -0.273750        -7.4491
  53   2.0000      -0.258416        -7.0319
  54   2.0000      -0.246722        -6.7136
  55   2.0000      -0.232138        -6.3168
  56   0.0000      -0.077433        -2.1070
  57   0.0000      -0.057958        -1.5771
  58   0.0000      -0.026697        -0.7265
  59   0.0000      -0.008593        -0.2338
  60   0.0000       0.010588         0.2881

MULLIKEN ATOMIC CHARGES
-----------------------
   0 C :   -0.273039
   1 O :   -0.226041
   2 C :    0.171643
   3 C :    0.049938
   4 C :   -0.167866
   5 C :   -0.246465
   6 C :    0.110103
   7 C :    0.055977
   8 C :    0.301793
   9 O :   -0.369697
  10 O :   -0.329648
  11 Cl:   -0.108864
  12 Cl:   -0.112231
  13 H :    0.146143
  14 H :    0.176345
  15 H :    0.152426
  16 H :    0.166026
  17 H :    0.165076
  18 H :    0.338382
Sum of atomic charges:   -0.0000000

LOEWDIN ATOMIC CHARGES
----------------------
   0 C :   -0.044615
   1 O :   -0.695190
   2 C :    0.194590
   3 C :   -0.142464
   4 C :   -0.148145
   5 C :   -0.165908
   6 C :   -0.137144
   7 C :   -0.008886
   8 C :    0.362893
   9 O :   -0.389317
  10 O :   -0.378794
  11 Cl:    0.183791
  12 Cl:    0.173272
  13 H :    0.164931
  14 H :    0.179612
  15 H :    0.179558
  16 H :    0.183530
  17 H :    0.182592
  18 H :    0.305696

  Mayer bond orders larger than 0.100000
B(  0-C ,  1-O ) :   0.8364 B(  0-C , 13-H ) :   0.9551 B(  0-C , 14-H ) :   0.9562
B(  0-C , 15-H ) :   0.9724 B(  1-O ,  2-C ) :   1.1881 B(  2-C ,  3-C ) :   1.2724
B(  2-C ,  7-C ) :   1.3604 B(  3-C ,  4-C ) :   1.2960 B(  3-C , 12-Cl) :   1.0513
B(  4-C ,  5-C ) :   1.3324 B(  4-C , 16-H ) :   0.9423 B(  5-C ,  6-C ) :   1.3204
B(  5-C , 17-H ) :   0.9345 B(  6-C ,  7-C ) :   1.2196 B(  6-C , 11-Cl) :   1.0059
B(  7-C ,  8-C ) :   0.9179 B(  8-C ,  9-O ) :   1.9333 B(  8-C , 10-O ) :   1.0747
B( 10-O , 18-H ) :   0.8529

Dispersion correction           -0.008720986
FINAL SINGLE POINT ENERGY     -1454.389087775093

DIPOLE MOMENT
-------------

Method             : SCF
Type of density    : Electron Density
Multiplicity       :   1
Irrep              :   0
Energy             : -1454.3929956062706879 Eh
Relativity type    :
Basis              : AO
                                X                 Y                 Z
Electronic contribution:     -2.126975452       6.370615085       2.747105437
Nuclear contribution   :      2.109670948      -6.067604663      -2.673586583
                        -----------------------------------------
Total Dipole Moment    :     -0.017304505       0.303010422       0.073518854
                        -----------------------------------------
Magnitude (a.u.)       :      0.312281578
Magnitude (Debye)      :      0.793756690

Rotational constants in cm-1:             0.031448             0.016367             0.011456
Rotational constants in MHz :           942.785880           490.659514           343.444858

                             ****ORCA TERMINATED NORMALLY****
TOTAL RUN TIME: 0 days 0 hours 0 minutes 52 seconds 583 msec
