                         Program Version 6.0.0  -   RELEASE  -
|  1> ! r2scan-3c def2/J RI DEFGRID2 scfconv6 printgap
|  2> %output
|  3>     printlevel normal
|  4> end
|  5> %cpcm
|  6>     smd true
|  7>     smdsolvent "water"
|  8> end
|  9> * xyz 0 1
| 10> C 1.4653316721 -2.4425140328 -0.963665833
| 11> O 1.0879366271 -1.7698589319 0.2394294582
| 12> C 0.7240352462 -0.4587267849 0.0869080693
| 13> C 1.6748928362 0.563103641 0.0430279619
| 14> C 1.2909639177 1.8919429723 -0.0389018429
| 15> C -0.050432113 2.2253772895 -0.07024628
| 16> C -1.0055225648 1.2234221294 -0.0098697886
| 17> C -0.631735999 -0.1149991802 0.0625415278
| 18> C -1.6433184744 -1.2193597443 0.1014329102
| 19> O -1.7089480206 -2.0925489572 -0.7332921601
| 20> O -2.447156455 -1.1328789172 1.1380865771
| 21> Cl -2.6793444182 1.6417748665 -0.0670889871
| 22> Cl 3.3532298677 0.1558537745 0.1226327975
| 23> H 2.2550721371 -1.9006039812 -1.4875315703
| 24> H 0.5953231798 -2.5595575765 -1.6145043718
| 25> H 1.8273882466 -3.4160055531 -0.6448490855
| 26> H 2.0445165305 2.6612606011 -0.0737677355
| 27> H -0.3569834825 3.255798198 -0.1355706189
| 28> H -3.1041367124 -1.8577809307 1.1757547146
| 29> *
| 30>
| 31>                          ****END OF INPUT****

CARTESIAN COORDINATES (ANGSTROEM)
---------------------------------
  C      1.465332   -2.442514   -0.963666
  O      1.087937   -1.769859    0.239429
  C      0.724035   -0.458727    0.086908
  C      1.674893    0.563104    0.043028
  C      1.290964    1.891943   -0.038902
  C     -0.050432    2.225377   -0.070246
  C     -1.005523    1.223422   -0.009870
  C     -0.631736   -0.114999    0.062542
  C     -1.643318   -1.219360    0.101433
  O     -1.708948   -2.092549   -0.733292
  O     -2.447156   -1.132879    1.138087
  Cl    -2.679344    1.641775   -0.067089
  Cl     3.353230    0.155854    0.122633
  H      2.255072   -1.900604   -1.487532
  H      0.595323   -2.559558   -1.614504
  H      1.827388   -3.416006   -0.644849
  H      2.044517    2.661261   -0.073768
  H     -0.356983    3.255798   -0.135571
  H     -3.104137   -1.857781    1.175755

 Total Charge           Charge          ....    0
 Multiplicity           Mult            ....    1
 Number of Electrons    NEL             ....  112
 Basis Dimension        Dim             ....  308

ORBITAL ENERGIES
----------------

  NO   OCC          E(Eh)            E(eV)
   0   2.0000    -101.233643     -2754.7075
   1   2.0000    -101.233102     -2754.6928
   2   2.0000     -19.012594      -517.3590
   3   2.0000     -18.991166      -516.7759
   4   2.0000     -18.957794      -515.8678
   5   2.0000     -10.188201      -277.2351
   6   2.0000     -10.126509      -275.5563
   7   2.0000     -10.120575      -275.3949
   8   2.0000     -10.113203      -275.1943
   9   2.0000     -10.079997      -274.2907
  10   2.0000     -10.075393      -274.1654
  11   2.0000     -10.063085      -273.8305
  12   2.0000     -10.059109      -273.7223
  13   2.0000      -9.389758      -255.5083
  14   2.0000      -9.388914      -255.4853
  15   2.0000      -7.136041      -194.1816
  16   2.0000      -7.135222      -194.1593
  17   2.0000      -7.126038      -193.9094
  18   2.0000      -7.125406      -193.8922
  19   2.0000      -7.125231      -193.8874
  20   2.0000      -7.124570      -193.8694
  21   2.0000      -1.093231       -29.7483
  22   2.0000      -1.040404       -28.3108
  23   2.0000      -1.000865       -27.2349
  24   2.0000      -0.886988       -24.1362
  25   2.0000      -0.857251       -23.3270
  26   2.0000      -0.803498       -21.8643
  27   2.0000      -0.759446       -20.6656
  28   2.0000      -0.710660       -19.3380
  29   2.0000      -0.668624       -18.1942
  30   2.0000      -0.648509       -17.6468
  31   2.0000      -0.587442       -15.9851
  32   2.0000      -0.579773       -15.7764
  33   2.0000      -0.512822       -13.9546
  34   2.0000      -0.496293       -13.5048
  35   2.0000      -0.489856       -13.3297
  36   2.0000      -0.469094       -12.7647
  37   2.0000      -0.451582       -12.2882
  38   2.0000      -0.444250       -12.0887
  39   2.0000      -0.435606       -11.8535
  40   2.0000      -0.425783       -11.5861
  41   2.0000      -0.410857       -11.1800
  42   2.0000      -0.389533       -10.5997
  43   2.0000      -0.384799       -10.4709
  44   2.0000      -0.373998       -10.1770
  45   2.0000      -0.366005        -9.9595
  46   2.0000      -0.353283        -9.6133
  47   2.0000      -0.332518        -9.0483
  48   2.0000      -0.314554        -8.5595
  49   2.0000      -0.301801        -8.2124
  50   2.0000      -0.296965        -8.0808
  51   2.0000      -0.293948        -7.9987
  52   2.0000      -0.276199        -7.5158
  53   2.0000      -0.260915        -7.0999
  54   2.0000      -0.248961        -6.7746
  55   2.0000      -0.231020        -6.2864
  56   0.0000      -0.076292        -2.0760
  57   0.0000      -0.054950        -1.4953
  58   0.0000      -0.027368        -0.7447
  59   0.0000      -0.006622        -0.1802
  60   0.0000       0.011271         0.3067

MULLIKEN ATOMIC CHARGES
-----------------------
   0 C :   -0.285062
   1 O :   -0.272750
   2 C :    0.194896
   3 C :    0.047501
   4 C :   -0.179014
   5 C :   -0.258446
   6 C :    0.095000
   7 C :    0.059406
   8 C :    0.307296
   9 O :   -0.431092
  10 O :   -0.345071
  11 Cl:   -0.118382
  12 Cl:   -0.125424
  13 H :    0.163672
  14 H :    0.172850
  15 H :    0.177231
  16 H :    0.203800
  17 H :    0.202510
  18 H :    0.391080
Sum of atomic charges:   -0.0000000

LOEWDIN ATOMIC CHARGES
----------------------
   0 C :   -0.043158
   1 O :   -0.721399
   2 C :    0.192901
   3 C :   -0.143558
   4 C :   -0.136817
   5 C :   -0.156302
   6 C :   -0.140791
   7 C :   -0.014892
   8 C :    0.367164
   9 O :   -0.436752
  10 O :   -0.368443
  11 Cl:    0.174865
  12 Cl:    0.164647
  13 H :    0.172756
  14 H :    0.178942
  15 H :    0.188037
  16 H :    0.197850
  17 H :    0.196596
  18 H :    0.328354

  Mayer bond orders larger than 0.100000
B(  0-C ,  1-O ) :   0.8296 B(  0-C , 13-H ) :   0.9497 B(  0-C , 14-H ) :   0.9537
B(  0-C , 15-H ) :   0.9640 B(  1-O ,  2-C ) :   1.1791 B(  2-C ,  3-C ) :   1.2619
B(  2-C ,  7-C ) :   1.3584 B(  3-C ,  4-C ) :   1.2712 B(  3-C , 12-Cl) :   1.0345
B(  4-C ,  5-C ) :   1.3524 B(  4-C , 16-H ) :   0.9405 B(  5-C ,  6-C ) :   1.2937
B(  5-C , 17-H ) :   0.9353 B(  6-C ,  7-C ) :   1.1965 B(  6-C , 11-Cl) :   1.0169
B(  7-C ,  8-C ) :   0.9213 B(  8-C ,  9-O ) :   1.8806 B(  8-C , 10-O ) :   1.1140
B( 10-O , 18-H ) :   0.8251

Dispersion correction           -0.008720986
FINAL SINGLE POINT ENERGY     -1454.399255723352

DIPOLE MOMENT
-------------

Method             : SCF
Type of density    : Electron Density
Multiplicity       :   1
Irrep              :   0
Energy             : -1454.4031635545297831 Eh
Relativity type    :
Basis              : AO
                                X                 Y                 Z
Electronic contribution:     -2.095779347       6.708677658       2.769603217
Nuclear contribution   :      2.109670948      -6.067604663      -2.673586583
                        -----------------------------------------
Total Dipole Moment    :      0.013891601       0.641072995       0.096016634
                        -----------------------------------------
Magnitude (a.u.)       :      0.648372390
Magnitude (Debye)      :      1.648031644

Rotational constants in cm-1:             0.031448             0.016367             0.011456
Rotational constants in MHz :           942.785880           490.659514           343.444858

                             ****ORCA TERMINATED NORMALLY****
TOTAL RUN TIME: 0 days 0 hours 1 minutes 0 seconds 413 msec
