                         Program Version 6.0.0  -   RELEASE  -
|  1> ! pbe def2-sv(p) def2/J RI DEFGRID1 loosescf d4 GCP(DFT/SV(P)) printgap
|  2> %output
|  3>     printlevel normal
|  4> end
|  5> * xyz 0 1
|  6> C 1.5017834749 -2.407725057 0.9940460318
|  7> O 1.0949953357 -1.7653293725 -0.2183579577
|  8> C 0.7068146585 -0.4549515118 -0.0857806619
|  9> C 1.6600421561 0.5577704491 0.0173772991
| 10> C 1.280488516 1.8874184797 0.1087425786
| 11> C -0.0592367703 2.2212094209 0.0903957392
| 12> C -1.0216258161 1.2273783354 -0.0095281119
| 13> C -0.6605573889 -0.1220546455 -0.0946800494
| 14> C -1.7107048775 -1.1894478463 -0.1564461401
| 15> O -2.8034698454 -1.0519956866 0.3502010979
| 16> O -1.4099606251 -2.308652567 -0.7913780944
| 17> Cl -2.6805971077 1.7016312477 -0.0654455626
| 18> Cl 3.3419472414 0.1487405576 -0.0189485863
| 19> H 0.6440963469 -2.5297093859 1.6602300953
| 20> H 2.2820125281 -1.8399339183 1.5004401685
| 21> H 1.8847598829 -3.3786363932 0.6932917348
| 22> H 2.0340312638 2.6539902781 0.1829721576
| 23> H -0.3692579929 3.2505358519 0.1485257943
| 24> H -0.4596381316 -2.3657436548 -1.0451050643
| 25> *
| 26>
| 27>                          ****END OF INPUT****

CARTESIAN COORDINATES (ANGSTROEM)
---------------------------------
  C      1.501783   -2.407725    0.994046
  O      1.094995   -1.765329   -0.218358
  C      0.706815   -0.454952   -0.085781
  C      1.660042    0.557770    0.017377
  C      1.280489    1.887418    0.108743
  C     -0.059237    2.221209    0.090396
  C     -1.021626    1.227378   -0.009528
  C     -0.660557   -0.122055   -0.094680
  C     -1.710705   -1.189448   -0.156446
  O     -2.803470   -1.051996    0.350201
  O     -1.409961   -2.308653   -0.791378
  Cl    -2.680597    1.701631   -0.065446
  Cl     3.341947    0.148741   -0.018949
  H      0.644096   -2.529709    1.660230
  H      2.282013   -1.839934    1.500440
  H      1.884760   -3.378636    0.693292
  H      2.034031    2.653990    0.182972
  H     -0.369258    3.250536    0.148526
  H     -0.459638   -2.365744   -1.045105

 Total Charge           Charge          ....    0
 Multiplicity           Mult            ....    1
 Number of Electrons    NEL             ....  112
 Basis Dimension        Dim             ....  202

ORBITAL ENERGIES
----------------

  NO   OCC          E(Eh)            E(eV)
   0   2.0000    -100.663432     -2739.1913
   1   2.0000    -100.645422     -2738.7012
   2   2.0000     -18.822877      -512.1965
   3   2.0000     -18.791481      -511.3422
   4   2.0000     -18.733153      -509.7550
   5   2.0000     -10.018383      -272.6141
   6   2.0000      -9.992613      -271.9128
   7   2.0000      -9.975817      -271.4558
   8   2.0000      -9.975075      -271.4356
   9   2.0000      -9.960757      -271.0460
  10   2.0000      -9.940358      -270.4909
  11   2.0000      -9.933038      -270.2917
  12   2.0000      -9.926511      -270.1141
  13   2.0000      -9.199091      -250.3200
  14   2.0000      -9.181354      -249.8373
  15   2.0000      -7.030533      -191.3105
  16   2.0000      -7.019085      -190.9990
  17   2.0000      -7.018367      -190.9795
  18   2.0000      -7.012983      -190.8330
  19   2.0000      -7.001586      -190.5228
  20   2.0000      -7.000122      -190.4830
  21   2.0000      -1.010873       -27.5073
  22   2.0000      -0.992804       -27.0156
  23   2.0000      -0.913177       -24.8488
  24   2.0000      -0.841553       -22.8998
  25   2.0000      -0.815457       -22.1897
  26   2.0000      -0.764826       -20.8120
  27   2.0000      -0.721230       -19.6257
  28   2.0000      -0.677408       -18.4332
  29   2.0000      -0.647997       -17.6329
  30   2.0000      -0.602461       -16.3938
  31   2.0000      -0.570178       -15.5153
  32   2.0000      -0.553432       -15.0597
  33   2.0000      -0.509658       -13.8685
  34   2.0000      -0.489672       -13.3246
  35   2.0000      -0.483473       -13.1560
  36   2.0000      -0.453065       -12.3285
  37   2.0000      -0.447537       -12.1781
  38   2.0000      -0.420541       -11.4435
  39   2.0000      -0.418861       -11.3978
  40   2.0000      -0.403557       -10.9813
  41   2.0000      -0.382893       -10.4190
  42   2.0000      -0.378472       -10.2988
  43   2.0000      -0.374884       -10.2011
  44   2.0000      -0.365320        -9.9409
  45   2.0000      -0.350948        -9.5498
  46   2.0000      -0.341822        -9.3014
  47   2.0000      -0.320189        -8.7128
  48   2.0000      -0.290334        -7.9004
  49   2.0000      -0.285904        -7.7799
  50   2.0000      -0.285148        -7.7593
  51   2.0000      -0.270407        -7.3582
  52   2.0000      -0.264862        -7.2073
  53   2.0000      -0.251529        -6.8445
  54   2.0000      -0.225996        -6.1497
  55   2.0000      -0.216065        -5.8794
  56   0.0000      -0.090184        -2.4540
  57   0.0000      -0.067440        -1.8351
  58   0.0000      -0.018231        -0.4961
  59   0.0000      -0.000767        -0.0209
  60   0.0000       0.016297         0.4435

MULLIKEN ATOMIC CHARGES
-----------------------
   0 C :   -0.102776
   1 O :   -0.321574
   2 C :    0.082596
   3 C :    0.078393
   4 C :   -0.106695
   5 C :   -0.076910
   6 C :    0.054007
   7 C :   -0.044962
   8 C :    0.125696
   9 O :   -0.159254
  10 O :   -0.283685
  11 Cl:   -0.023826
  12 Cl:   -0.046862
  13 H :    0.121576
  14 H :    0.122496
  15 H :    0.134499
  16 H :    0.062437
  17 H :    0.060247
  18 H :    0.324597
Sum of atomic charges:   -0.0000000

LOEWDIN ATOMIC CHARGES
----------------------
   0 C :   -0.198323
   1 O :   -0.122071
   2 C :    0.010568
   3 C :   -0.155038
   4 C :   -0.120819
   5 C :   -0.133998
   6 C :   -0.110569
   7 C :   -0.110824
   8 C :    0.021828
   9 O :   -0.139975
  10 O :   -0.196846
  11 Cl:    0.179112
  12 Cl:    0.155608
  13 H :    0.115949
  14 H :    0.110911
  15 H :    0.127253
  16 H :    0.139622
  17 H :    0.137944
  18 H :    0.289667

  Mayer bond orders larger than 0.100000
B(  0-C ,  1-O ) :   0.9189 B(  0-C , 13-H ) :   0.9435 B(  0-C , 14-H ) :   0.9405
B(  0-C , 15-H ) :   0.9615 B(  1-O ,  2-C ) :   1.1106 B(  2-C ,  3-C ) :   1.3758
B(  2-C ,  7-C ) :   1.3393 B(  3-C ,  4-C ) :   1.3754 B(  3-C , 12-Cl) :   1.0120
B(  4-C ,  5-C ) :   1.3211 B(  4-C , 16-H ) :   0.9669 B(  5-C ,  6-C ) :   1.3678
B(  5-C , 17-H ) :   0.9660 B(  6-C ,  7-C ) :   1.3964 B(  6-C , 11-Cl) :   1.0610
B(  7-C ,  8-C ) :   0.8620 B(  8-C ,  9-O ) :   2.1244 B(  8-C , 10-O ) :   1.2764
B( 10-O , 18-H ) :   0.7753

Dispersion correction           -0.027405184
FINAL SINGLE POINT ENERGY     -1452.784425036949

DIPOLE MOMENT
-------------

Method             : SCF
Type of density    : Electron Density
Multiplicity       :   1
Irrep              :   0
Energy             : -1452.8408727324624579 Eh
Relativity type    :
Basis              : AO
                                X                 Y                 Z
Electronic contribution:     -2.962760011       6.799960038      -2.856658223
Nuclear contribution   :      4.710259433      -6.508665480       3.049719475
                        -----------------------------------------
Total Dipole Moment    :      1.747499422       0.291294558       0.193061252
                        -----------------------------------------
Magnitude (a.u.)       :      1.782099716
Magnitude (Debye)      :      4.529737494

Rotational constants in cm-1:             0.031709             0.016431             0.011273
Rotational constants in MHz :           950.622010           492.597323           337.964077

                             ****ORCA TERMINATED NORMALLY****
TOTAL RUN TIME: 0 days 0 hours 0 minutes 16 seconds 305 msec
