                         Program Version 6.0.0  -   RELEASE  -
|  1> ! r2scan-3c def2/J RI DEFGRID2 scfconv6 printgap
|  2> %output
|  3>     printlevel normal
|  4> end
|  5> * xyz 0 1
|  6> C 1.7089611958 0.6368148787 -0.9678162286
|  7> C 1.4149360151 0.1000232436 0.4314124635
|  8> C 1.6105005963 -1.4132844922 0.4869028447
|  9> C 0.0057473139 0.5034589026 0.8882464845
| 10> C -1.1190941131 0.0998431233 -0.0271985446
| 11> O -1.1338714893 -0.8321779833 -0.8015711587
| 12> O -2.1675752114 0.9015765876 0.1221035951
| 13> H 2.736202546 0.4180471487 -1.2472852765
| 14> H 1.5627185973 1.7138864155 -1.0059013737
| 15> H 1.050168722 0.1695042164 -1.6962703386
| 16> H 2.1180212847 0.5635645272 1.1325616568
| 17> H 2.6187218221 -1.67333219 0.1748562122
| 18> H 1.4564228323 -1.7841366365 1.497581048
| 19> H 0.9051562616 -1.9074738053 -0.1757536494
| 20> H -0.0608360378 1.5845546356 1.0193518543
| 21> H -0.2083876622 0.0426417335 1.856400047
| 22> H -2.9225849463 0.6427615019 -0.4407648204
| 23> *
| 24>
| 25>                          ****END OF INPUT****

CARTESIAN COORDINATES (ANGSTROEM)
---------------------------------
  C      1.708961    0.636815   -0.967816
  C      1.414936    0.100023    0.431412
  C      1.610501   -1.413284    0.486903
  C      0.005747    0.503459    0.888246
  C     -1.119094    0.099843   -0.027199
  O     -1.133871   -0.832178   -0.801571
  O     -2.167575    0.901577    0.122104
  H      2.736203    0.418047   -1.247285
  H      1.562719    1.713886   -1.005901
  H      1.050169    0.169504   -1.696270
  H      2.118021    0.563565    1.132562
  H      2.618722   -1.673332    0.174856
  H      1.456423   -1.784137    1.497581
  H      0.905156   -1.907474   -0.175754
  H     -0.060836    1.584555    1.019352
  H     -0.208388    0.042642    1.856400
  H     -2.922585    0.642762   -0.440765

 Total Charge           Charge          ....    0
 Multiplicity           Mult            ....    1
 Number of Electrons    NEL             ....   56
 Basis Dimension        Dim             ....  193

ORBITAL ENERGIES
----------------

  NO   OCC          E(Eh)            E(eV)
   0   2.0000     -19.003905      -517.1225
   1   2.0000     -18.935652      -515.2653
   2   2.0000     -10.164190      -276.5817
   3   2.0000     -10.047256      -273.3997
   4   2.0000     -10.043226      -273.2901
   5   2.0000     -10.014527      -272.5091
   6   2.0000     -10.009390      -272.3693
   7   2.0000      -1.078749       -29.3543
   8   2.0000      -0.980609       -26.6837
   9   2.0000      -0.784422       -21.3452
  10   2.0000      -0.700047       -19.0492
  11   2.0000      -0.648912       -17.6578
  12   2.0000      -0.599362       -16.3095
  13   2.0000      -0.530132       -14.4256
  14   2.0000      -0.466220       -12.6865
  15   2.0000      -0.451478       -12.2853
  16   2.0000      -0.439182       -11.9508
  17   2.0000      -0.415881       -11.3167
  18   2.0000      -0.397193       -10.8082
  19   2.0000      -0.390788       -10.6339
  20   2.0000      -0.354644        -9.6504
  21   2.0000      -0.348106        -9.4724
  22   2.0000      -0.337246        -9.1769
  23   2.0000      -0.306506        -8.3405
  24   2.0000      -0.303441        -8.2570
  25   2.0000      -0.301204        -8.1962
  26   2.0000      -0.292937        -7.9712
  27   2.0000      -0.238629        -6.4934
  28   0.0000      -0.022704        -0.6178
  29   0.0000       0.058182         1.5832
  30   0.0000       0.078151         2.1266
  31   0.0000       0.126480         3.4417
  32   0.0000       0.135275         3.6810

MULLIKEN ATOMIC CHARGES
-----------------------
   0 C :   -0.533925
   1 C :    0.058041
   2 C :   -0.535245
   3 C :   -0.342297
   4 C :    0.343068
   5 O :   -0.410413
   6 O :   -0.345796
   7 H :    0.145591
   8 H :    0.145800
   9 H :    0.181709
  10 H :    0.147742
  11 H :    0.140723
  12 H :    0.138212
  13 H :    0.196424
  14 H :    0.172060
  15 H :    0.172233
  16 H :    0.326073
Sum of atomic charges:    0.0000000

LOEWDIN ATOMIC CHARGES
----------------------
   0 C :   -0.409978
   1 C :   -0.230319
   2 C :   -0.412225
   3 C :   -0.233979
   4 C :    0.344045
   5 O :   -0.437924
   6 O :   -0.406791
   7 H :    0.154595
   8 H :    0.152982
   9 H :    0.169131
  10 H :    0.157194
  11 H :    0.152232
  12 H :    0.151290
  13 H :    0.176839
  14 H :    0.185538
  15 H :    0.188889
  16 H :    0.298482

  Mayer bond orders larger than 0.100000
B(  0-C ,  1-C ) :   0.8956 B(  0-C ,  7-H ) :   0.9688 B(  0-C ,  8-H ) :   0.9750
B(  0-C ,  9-H ) :   0.9731 B(  1-C ,  2-C ) :   0.9020 B(  1-C ,  3-C ) :   0.9044
B(  1-C , 10-H ) :   0.9637 B(  2-C , 11-H ) :   0.9712 B(  2-C , 12-H ) :   0.9716
B(  2-C , 13-H ) :   0.9735 B(  3-C ,  4-C ) :   0.9736 B(  3-C , 14-H ) :   0.9598
B(  3-C , 15-H ) :   0.9293 B(  4-C ,  5-O ) :   1.9294 B(  4-C ,  6-O ) :   1.0417
B(  6-O , 16-H ) :   0.8606

Dispersion correction           -0.004459106
FINAL SINGLE POINT ENERGY      -346.948127217313

DIPOLE MOMENT
-------------

Method             : SCF
Type of density    : Electron Density
Multiplicity       :   1
Irrep              :   0
Energy             :  -346.9531113494164174 Eh
Relativity type    :
Basis              : AO
                                X                 Y                 Z
Electronic contribution:     -8.720539467       0.740105118      -0.635463145
Nuclear contribution   :      8.634355792      -0.214733080       1.035771787
                        -----------------------------------------
Total Dipole Moment    :     -0.086183675       0.525372038       0.400308642
                        -----------------------------------------
Magnitude (a.u.)       :      0.666100903
Magnitude (Debye)      :      1.693093944

Rotational constants in cm-1:             0.146760             0.057577             0.054756
Rotational constants in MHz :          4399.752862          1726.129446          1641.550469

                             ****ORCA TERMINATED NORMALLY****
TOTAL RUN TIME: 0 days 0 hours 0 minutes 23 seconds 742 msec
