                         Program Version 6.0.0  -   RELEASE  -
|  1> ! r2scan-3c def2/J RI DEFGRID2 scfconv6 printgap
|  2> %output
|  3>     printlevel normal
|  4> end
|  5> %cpcm
|  6>     smd true
|  7>     smdsolvent "water"
|  8> end
|  9> * xyz 0 1
| 10> C 1.7089611958 0.6368148787 -0.9678162286
| 11> C 1.4149360151 0.1000232436 0.4314124635
| 12> C 1.6105005963 -1.4132844922 0.4869028447
| 13> C 0.0057473139 0.5034589026 0.8882464845
| 14> C -1.1190941131 0.0998431233 -0.0271985446
| 15> O -1.1338714893 -0.8321779833 -0.8015711587
| 16> O -2.1675752114 0.9015765876 0.1221035951
| 17> H 2.736202546 0.4180471487 -1.2472852765
| 18> H 1.5627185973 1.7138864155 -1.0059013737
| 19> H 1.050168722 0.1695042164 -1.6962703386
| 20> H 2.1180212847 0.5635645272 1.1325616568
| 21> H 2.6187218221 -1.67333219 0.1748562122
| 22> H 1.4564228323 -1.7841366365 1.497581048
| 23> H 0.9051562616 -1.9074738053 -0.1757536494
| 24> H -0.0608360378 1.5845546356 1.0193518543
| 25> H -0.2083876622 0.0426417335 1.856400047
| 26> H -2.9225849463 0.6427615019 -0.4407648204
| 27> *
| 28>
| 29>                          ****END OF INPUT****

CARTESIAN COORDINATES (ANGSTROEM)
---------------------------------
  C      1.708961    0.636815   -0.967816
  C      1.414936    0.100023    0.431412
  C      1.610501   -1.413284    0.486903
  C      0.005747    0.503459    0.888246
  C     -1.119094    0.099843   -0.027199
  O     -1.133871   -0.832178   -0.801571
  O     -2.167575    0.901577    0.122104
  H      2.736203    0.418047   -1.247285
  H      1.562719    1.713886   -1.005901
  H      1.050169    0.169504   -1.696270
  H      2.118021    0.563565    1.132562
  H      2.618722   -1.673332    0.174856
  H      1.456423   -1.784137    1.497581
  H      0.905156   -1.907474   -0.175754
  H     -0.060836    1.584555    1.019352
  H     -0.208388    0.042642    1.856400
  H     -2.922585    0.642762   -0.440765

 Total Charge           Charge          ....    0
 Multiplicity           Mult            ....    1
 Number of Electrons    NEL             ....   56
 Basis Dimension        Dim             ....  193

ORBITAL ENERGIES
----------------

  NO   OCC          E(Eh)            E(eV)
   0   2.0000     -18.998551      -516.9769
   1   2.0000     -18.943236      -515.4717
   2   2.0000     -10.167365      -276.6681
   3   2.0000     -10.036306      -273.1018
   4   2.0000     -10.034910      -273.0638
   5   2.0000     -10.007944      -272.3300
   6   2.0000     -10.005552      -272.2649
   7   2.0000      -1.076954       -29.3054
   8   2.0000      -0.984946       -26.8017
   9   2.0000      -0.776811       -21.1381
  10   2.0000      -0.692807       -18.8522
  11   2.0000      -0.643819       -17.5192
  12   2.0000      -0.590743       -16.0749
  13   2.0000      -0.523420       -14.2430
  14   2.0000      -0.468213       -12.7407
  15   2.0000      -0.450480       -12.2582
  16   2.0000      -0.437484       -11.9045
  17   2.0000      -0.411534       -11.1984
  18   2.0000      -0.390917       -10.6374
  19   2.0000      -0.386099       -10.5063
  20   2.0000      -0.354763        -9.6536
  21   2.0000      -0.345374        -9.3981
  22   2.0000      -0.329127        -8.9560
  23   2.0000      -0.302073        -8.2198
  24   2.0000      -0.297025        -8.0825
  25   2.0000      -0.296689        -8.0733
  26   2.0000      -0.293909        -7.9977
  27   2.0000      -0.245096        -6.6694
  28   0.0000      -0.023695        -0.6448
  29   0.0000       0.075891         2.0651
  30   0.0000       0.094747         2.5782
  31   0.0000       0.136164         3.7052
  32   0.0000       0.139996         3.8095

MULLIKEN ATOMIC CHARGES
-----------------------
   0 C :   -0.562828
   1 C :    0.063416
   2 C :   -0.573940
   3 C :   -0.345753
   4 C :    0.361936
   5 O :   -0.485658
   6 O :   -0.371945
   7 H :    0.159708
   8 H :    0.163006
   9 H :    0.168867
  10 H :    0.164221
  11 H :    0.155993
  12 H :    0.158489
  13 H :    0.176497
  14 H :    0.189764
  15 H :    0.203453
  16 H :    0.374773
Sum of atomic charges:   -0.0000000

LOEWDIN ATOMIC CHARGES
----------------------
   0 C :   -0.416401
   1 C :   -0.227049
   2 C :   -0.420066
   3 C :   -0.231438
   4 C :    0.354463
   5 O :   -0.495054
   6 O :   -0.401065
   7 H :    0.157620
   8 H :    0.158826
   9 H :    0.163180
  10 H :    0.164266
  11 H :    0.155757
  12 H :    0.157185
  13 H :    0.167352
  14 H :    0.193628
  15 H :    0.200502
  16 H :    0.318294

  Mayer bond orders larger than 0.100000
B(  0-C ,  1-C ) :   0.8954 B(  0-C ,  7-H ) :   0.9682 B(  0-C ,  8-H ) :   0.9710
B(  0-C ,  9-H ) :   0.9741 B(  1-C ,  2-C ) :   0.8941 B(  1-C ,  3-C ) :   0.8961
B(  1-C , 10-H ) :   0.9587 B(  2-C , 11-H ) :   0.9702 B(  2-C , 12-H ) :   0.9693
B(  2-C , 13-H ) :   0.9782 B(  3-C ,  4-C ) :   0.9767 B(  3-C , 14-H ) :   0.9521
B(  3-C , 15-H ) :   0.9205 B(  4-C ,  5-O ) :   1.8693 B(  4-C ,  6-O ) :   1.0691
B(  6-O , 16-H ) :   0.8371

Dispersion correction           -0.004459106
FINAL SINGLE POINT ENERGY      -346.956192711755

DIPOLE MOMENT
-------------

Method             : SCF
Type of density    : Electron Density
Multiplicity       :   1
Irrep              :   0
Energy             :  -346.9611768438584249 Eh
Relativity type    :
Basis              : AO
                                X                 Y                 Z
Electronic contribution:     -8.737674658       1.022986710      -0.383626103
Nuclear contribution   :      8.634355792      -0.214733080       1.035771787
                        -----------------------------------------
Total Dipole Moment    :     -0.103318867       0.808253630       0.652145684
                        -----------------------------------------
Magnitude (a.u.)       :      1.043667912
Magnitude (Debye)      :      2.652793012

Rotational constants in cm-1:             0.146760             0.057577             0.054756
Rotational constants in MHz :          4399.752862          1726.129446          1641.550469

                             ****ORCA TERMINATED NORMALLY****
TOTAL RUN TIME: 0 days 0 hours 0 minutes 27 seconds 954 msec
