                         Program Version 6.0.0  -   RELEASE  -
|  1> ! r2scan-3c def2/J RI DEFGRID2 scfconv6 printgap
|  2> %output
|  3>     printlevel normal
|  4> end
|  5> * xyz 0 1
|  6> C 2.2077001573 -0.6427448167 -0.5129041369
|  7> O 0.7922064393 -0.8699175122 -0.5099036747
|  8> S -0.0613972657 0.3787960963 -0.0580058057
|  9> O -0.0466488037 1.3860447221 -1.0724752253
| 10> O 0.3453729717 0.7740420173 1.2604181043
| 11> O -1.4809950123 -0.2516286537 -0.0446961032
| 12> C -1.7162798985 -1.2345321121 0.9793355676
| 13> H 2.5067322873 -0.2741453013 0.468116717
| 14> H 2.4511078602 0.0940445022 -1.2778132716
| 15> H 2.6617937912 -1.6057845105 -0.7322523541
| 16> H -1.2501165036 -0.8904914306 1.9016314244
| 17> H -1.2846228176 -2.1830013706 0.6635193303
| 18> H -2.7959012546 -1.3062323742 1.0841157644
| 19> *
| 20>
| 21>                          ****END OF INPUT****

CARTESIAN COORDINATES (ANGSTROEM)
---------------------------------
  C      2.207700   -0.642745   -0.512904
  O      0.792206   -0.869918   -0.509904
  S     -0.061397    0.378796   -0.058006
  O     -0.046649    1.386045   -1.072475
  O      0.345373    0.774042    1.260418
  O     -1.480995   -0.251629   -0.044696
  C     -1.716280   -1.234532    0.979336
  H      2.506732   -0.274145    0.468117
  H      2.451108    0.094045   -1.277813
  H      2.661794   -1.605785   -0.732252
  H     -1.250117   -0.890491    1.901631
  H     -1.284623   -2.183001    0.663519
  H     -2.795901   -1.306232    1.084116

 Total Charge           Charge          ....    0
 Multiplicity           Mult            ....    1
 Number of Electrons    NEL             ....   66
 Basis Dimension        Dim             ....  191

ORBITAL ENERGIES
----------------

  NO   OCC          E(Eh)            E(eV)
   0   2.0000     -88.821381     -2416.9526
   1   2.0000     -19.030727      -517.8524
   2   2.0000     -19.021347      -517.5972
   3   2.0000     -18.956265      -515.8262
   4   2.0000     -18.954182      -515.7695
   5   2.0000     -10.110247      -275.1138
   6   2.0000     -10.107786      -275.0468
   7   2.0000      -8.085445      -220.0161
   8   2.0000      -6.032446      -164.1512
   9   2.0000      -6.031215      -164.1177
  10   2.0000      -6.028295      -164.0382
  11   2.0000      -1.164651       -31.6918
  12   2.0000      -1.054048       -28.6821
  13   2.0000      -1.024362       -27.8743
  14   2.0000      -0.991181       -26.9714
  15   2.0000      -0.740154       -20.1406
  16   2.0000      -0.701554       -19.0903
  17   2.0000      -0.589124       -16.0309
  18   2.0000      -0.548502       -14.9255
  19   2.0000      -0.498094       -13.5538
  20   2.0000      -0.485339       -13.2068
  21   2.0000      -0.457841       -12.4585
  22   2.0000      -0.454454       -12.3663
  23   2.0000      -0.441373       -12.0104
  24   2.0000      -0.416198       -11.3253
  25   2.0000      -0.383352       -10.4315
  26   2.0000      -0.365543        -9.9469
  27   2.0000      -0.338349        -9.2069
  28   2.0000      -0.328194        -8.9306
  29   2.0000      -0.324585        -8.8324
  30   2.0000      -0.305624        -8.3165
  31   2.0000      -0.290239        -7.8978
  32   2.0000      -0.266088        -7.2406
  33   0.0000       0.013095         0.3563
  34   0.0000       0.048860         1.3295
  35   0.0000       0.066108         1.7989
  36   0.0000       0.084628         2.3028
  37   0.0000       0.096062         2.6140

MULLIKEN ATOMIC CHARGES
-----------------------
   0 C :   -0.279666
   1 O :   -0.247026
   2 S :    1.137339
   3 O :   -0.529599
   4 O :   -0.591533
   5 O :   -0.230010
   6 C :   -0.282822
   7 H :    0.176704
   8 H :    0.171930
   9 H :    0.159729
  10 H :    0.186742
  11 H :    0.165810
  12 H :    0.162401
Sum of atomic charges:   -0.0000000

LOEWDIN ATOMIC CHARGES
----------------------
   0 C :   -0.039650
   1 O :   -0.577373
   2 S :    0.890321
   3 O :   -0.371175
   4 O :   -0.415871
   5 O :   -0.537893
   6 C :   -0.038460
   7 H :    0.182100
   8 H :    0.177734
   9 H :    0.182705
  10 H :    0.189268
  11 H :    0.174913
  12 H :    0.183382

  Mayer bond orders larger than 0.100000
B(  0-C ,  1-O ) :   0.8085 B(  0-C ,  7-H ) :   0.9601 B(  0-C ,  8-H ) :   0.9593
B(  0-C ,  9-H ) :   0.9626 B(  1-O ,  2-S ) :   0.9342 B(  2-S ,  3-O ) :   1.7761
B(  2-S ,  4-O ) :   1.5847 B(  2-S ,  5-O ) :   1.0697 B(  5-O ,  6-C ) :   0.7921
B(  6-C , 10-H ) :   0.9607 B(  6-C , 11-H ) :   0.9600 B(  6-C , 12-H ) :   0.9613

Dispersion correction           -0.003539456
FINAL SINGLE POINT ENERGY      -778.751453671471

DIPOLE MOMENT
-------------

Method             : SCF
Type of density    : Electron Density
Multiplicity       :   1
Irrep              :   0
Energy             :  -778.7718934125787200 Eh
Relativity type    :
Basis              : AO
                                X                 Y                 Z
Electronic contribution:     -1.904829771       4.292260648      -1.641472974
Nuclear contribution   :      2.143456033      -5.779898056       1.973262059
                        -----------------------------------------
Total Dipole Moment    :      0.238626262      -1.487637408       0.331789085
                        -----------------------------------------
Magnitude (a.u.)       :      1.542754532
Magnitude (Debye)      :      3.921370384

Rotational constants in cm-1:             0.116242             0.070126             0.059840
Rotational constants in MHz :          3484.849845          2102.330637          1793.952126

                             ****ORCA TERMINATED NORMALLY****
TOTAL RUN TIME: 0 days 0 hours 0 minutes 21 seconds 160 msec
