                         Program Version 6.0.0  -   RELEASE  -
|  1> ! r2scan-3c def2/J RI DEFGRID2 scfconv6 printgap
|  2> %output
|  3>     printlevel normal
|  4> end
|  5> %cpcm
|  6>     smd true
|  7>     smdsolvent "water"
|  8> end
|  9> * xyz 0 1
| 10> C 2.2077001573 -0.6427448167 -0.5129041369
| 11> O 0.7922064393 -0.8699175122 -0.5099036747
| 12> S -0.0613972657 0.3787960963 -0.0580058057
| 13> O -0.0466488037 1.3860447221 -1.0724752253
| 14> O 0.3453729717 0.7740420173 1.2604181043
| 15> O -1.4809950123 -0.2516286537 -0.0446961032
| 16> C -1.7162798985 -1.2345321121 0.9793355676
| 17> H 2.5067322873 -0.2741453013 0.468116717
| 18> H 2.4511078602 0.0940445022 -1.2778132716
| 19> H 2.6617937912 -1.6057845105 -0.7322523541
| 20> H -1.2501165036 -0.8904914306 1.9016314244
| 21> H -1.2846228176 -2.1830013706 0.6635193303
| 22> H -2.7959012546 -1.3062323742 1.0841157644
| 23> *
| 24>
| 25>                          ****END OF INPUT****

CARTESIAN COORDINATES (ANGSTROEM)
---------------------------------
  C      2.207700   -0.642745   -0.512904
  O      0.792206   -0.869918   -0.509904
  S     -0.061397    0.378796   -0.058006
  O     -0.046649    1.386045   -1.072475
  O      0.345373    0.774042    1.260418
  O     -1.480995   -0.251629   -0.044696
  C     -1.716280   -1.234532    0.979336
  H      2.506732   -0.274145    0.468117
  H      2.451108    0.094045   -1.277813
  H      2.661794   -1.605785   -0.732252
  H     -1.250117   -0.890491    1.901631
  H     -1.284623   -2.183001    0.663519
  H     -2.795901   -1.306232    1.084116

 Total Charge           Charge          ....    0
 Multiplicity           Mult            ....    1
 Number of Electrons    NEL             ....   66
 Basis Dimension        Dim             ....  191

ORBITAL ENERGIES
----------------

  NO   OCC          E(Eh)            E(eV)
   0   2.0000     -88.834696     -2417.3150
   1   2.0000     -19.032808      -517.9090
   2   2.0000     -19.022627      -517.6320
   3   2.0000     -18.973168      -516.2862
   4   2.0000     -18.971284      -516.2349
   5   2.0000     -10.091595      -274.6063
   6   2.0000     -10.090195      -274.5682
   7   2.0000      -8.098483      -220.3709
   8   2.0000      -6.045229      -164.4991
   9   2.0000      -6.044154      -164.4698
  10   2.0000      -6.041829      -164.4065
  11   2.0000      -1.173439       -31.9309
  12   2.0000      -1.054516       -28.6948
  13   2.0000      -1.033644       -28.1269
  14   2.0000      -1.008873       -27.4528
  15   2.0000      -0.733887       -19.9701
  16   2.0000      -0.690108       -18.7788
  17   2.0000      -0.583993       -15.8913
  18   2.0000      -0.545431       -14.8419
  19   2.0000      -0.508307       -13.8317
  20   2.0000      -0.490354       -13.3432
  21   2.0000      -0.452204       -12.3051
  22   2.0000      -0.447288       -12.1713
  23   2.0000      -0.428895       -11.6708
  24   2.0000      -0.422021       -11.4838
  25   2.0000      -0.382228       -10.4009
  26   2.0000      -0.364182        -9.9099
  27   2.0000      -0.346235        -9.4215
  28   2.0000      -0.330142        -8.9836
  29   2.0000      -0.326522        -8.8851
  30   2.0000      -0.312596        -8.5062
  31   2.0000      -0.301140        -8.1944
  32   2.0000      -0.278508        -7.5786
  33   0.0000       0.014643         0.3985
  34   0.0000       0.047043         1.2801
  35   0.0000       0.063731         1.7342
  36   0.0000       0.084921         2.3108
  37   0.0000       0.102752         2.7960

MULLIKEN ATOMIC CHARGES
-----------------------
   0 C :   -0.289288
   1 O :   -0.261561
   2 S :    1.153068
   3 O :   -0.580327
   4 O :   -0.623878
   5 O :   -0.247828
   6 C :   -0.291149
   7 H :    0.185879
   8 H :    0.184850
   9 H :    0.193784
  10 H :    0.192743
  11 H :    0.190568
  12 H :    0.193138
Sum of atomic charges:   -0.0000000

LOEWDIN ATOMIC CHARGES
----------------------
   0 C :   -0.031413
   1 O :   -0.574984
   2 S :    0.892396
   3 O :   -0.414357
   4 O :   -0.442180
   5 O :   -0.546205
   6 C :   -0.026951
   7 H :    0.186464
   8 H :    0.183060
   9 H :    0.198026
  10 H :    0.192945
  11 H :    0.186036
  12 H :    0.197165

  Mayer bond orders larger than 0.100000
B(  0-C ,  1-O ) :   0.7962 B(  0-C ,  7-H ) :   0.9530 B(  0-C ,  8-H ) :   0.9504
B(  0-C ,  9-H ) :   0.9495 B(  1-O ,  2-S ) :   0.9686 B(  2-S ,  3-O ) :   1.7253
B(  2-S ,  4-O ) :   1.5613 B(  2-S ,  5-O ) :   1.0947 B(  5-O ,  6-C ) :   0.7801
B(  6-C , 10-H ) :   0.9516 B(  6-C , 11-H ) :   0.9490 B(  6-C , 12-H ) :   0.9491

Dispersion correction           -0.003539456
FINAL SINGLE POINT ENERGY      -778.763011406154

DIPOLE MOMENT
-------------

Method             : SCF
Type of density    : Electron Density
Multiplicity       :   1
Irrep              :   0
Energy             :  -778.7834511472614167 Eh
Relativity type    :
Basis              : AO
                                X                 Y                 Z
Electronic contribution:     -1.835251338       3.804944868      -1.533164450
Nuclear contribution   :      2.143456033      -5.779898056       1.973262059
                        -----------------------------------------
Total Dipole Moment    :      0.308204694      -1.974953188       0.440097609
                        -----------------------------------------
Magnitude (a.u.)       :      2.046733039
Magnitude (Debye)      :      5.202381945

Rotational constants in cm-1:             0.116242             0.070126             0.059840
Rotational constants in MHz :          3484.849845          2102.330637          1793.952126

                             ****ORCA TERMINATED NORMALLY****
TOTAL RUN TIME: 0 days 0 hours 0 minutes 24 seconds 730 msec
