                         Program Version 6.0.0  -   RELEASE  -
|  1> ! r2scan-3c def2/J RI DEFGRID2 scfconv6 printgap
|  2> %output
|  3>     printlevel normal
|  4> end
|  5> %cpcm
|  6>     smd true
|  7>     smdsolvent "water"
|  8> end
|  9> * xyz 0 1
| 10> C -1.1870128092 0.1793063597 -0.5130869103
| 11> C -0.0614191893 0.4989712083 0.4793889592
| 12> C 0.9064821872 -0.6963636446 0.587499664
| 13> O 1.6894554408 -0.8496435469 -0.5767449004
| 14> O 0.6136154948 1.6843680888 0.1249823006
| 15> O -2.0156872913 -0.8051728661 0.0634666432
| 16> H -0.7402195883 -0.1852935082 -1.4483208664
| 17> H -1.752079875 1.0995245299 -0.7126063619
| 18> H -0.5037924794 0.6813544194 1.4629504983
| 19> H 0.3133423434 -1.6061311126 0.6945282749
| 20> H 1.5421912664 -0.577935476 1.4702857538
| 21> H 2.406761316 -0.2009185374 -0.5569017033
| 22> H 0.9530371452 1.585832309 -0.7777285708
| 23> H -2.7062711563 -1.0500012359 -0.5678098878
| 24> *
| 25>
| 26>                          ****END OF INPUT****

CARTESIAN COORDINATES (ANGSTROEM)
---------------------------------
  C     -1.187013    0.179306   -0.513087
  C     -0.061419    0.498971    0.479389
  C      0.906482   -0.696364    0.587500
  O      1.689455   -0.849644   -0.576745
  O      0.613615    1.684368    0.124982
  O     -2.015687   -0.805173    0.063467
  H     -0.740220   -0.185294   -1.448321
  H     -1.752080    1.099525   -0.712606
  H     -0.503792    0.681354    1.462950
  H      0.313342   -1.606131    0.694528
  H      1.542191   -0.577935    1.470286
  H      2.406761   -0.200919   -0.556902
  H      0.953037    1.585832   -0.777729
  H     -2.706271   -1.050001   -0.567810

 Total Charge           Charge          ....    0
 Multiplicity           Mult            ....    1
 Number of Electrons    NEL             ....   50
 Basis Dimension        Dim             ....  169

ORBITAL ENERGIES
----------------

  NO   OCC          E(Eh)            E(eV)
   0   2.0000     -18.958708      -515.8927
   1   2.0000     -18.956322      -515.8278
   2   2.0000     -18.954620      -515.7814
   3   2.0000     -10.078692      -274.2552
   4   2.0000     -10.070458      -274.0311
   5   2.0000     -10.069392      -274.0021
   6   2.0000      -1.006604       -27.3911
   7   2.0000      -0.988953       -26.9108
   8   2.0000      -0.981351       -26.7039
   9   2.0000      -0.719783       -19.5863
  10   2.0000      -0.637767       -17.3545
  11   2.0000      -0.570507       -15.5243
  12   2.0000      -0.491908       -13.3855
  13   2.0000      -0.474308       -12.9066
  14   2.0000      -0.466023       -12.6811
  15   2.0000      -0.431799       -11.7499
  16   2.0000      -0.409380       -11.1398
  17   2.0000      -0.385737       -10.4964
  18   2.0000      -0.360814        -9.8182
  19   2.0000      -0.333968        -9.0877
  20   2.0000      -0.318816        -8.6754
  21   2.0000      -0.285292        -7.7632
  22   2.0000      -0.272868        -7.4251
  23   2.0000      -0.243351        -6.6219
  24   2.0000      -0.230531        -6.2731
  25   0.0000       0.047166         1.2835
  26   0.0000       0.070780         1.9260
  27   0.0000       0.120979         3.2920
  28   0.0000       0.123182         3.3519
  29   0.0000       0.137407         3.7390

MULLIKEN ATOMIC CHARGES
-----------------------
   0 C :   -0.191328
   1 C :    0.081227
   2 C :   -0.201486
   3 O :   -0.508441
   4 O :   -0.499258
   5 O :   -0.513401
   6 H :    0.152009
   7 H :    0.147330
   8 H :    0.157496
   9 H :    0.159402
  10 H :    0.159686
  11 H :    0.355282
  12 H :    0.350397
  13 H :    0.351086
Sum of atomic charges:   -0.0000000

LOEWDIN ATOMIC CHARGES
----------------------
   0 C :    0.030528
   1 C :    0.075059
   2 C :    0.021743
   3 O :   -0.633948
   4 O :   -0.610403
   5 O :   -0.651683
   6 H :    0.172876
   7 H :    0.170761
   8 H :    0.196295
   9 H :    0.191207
  10 H :    0.172309
  11 H :    0.286040
  12 H :    0.290562
  13 H :    0.288654

  Mayer bond orders larger than 0.100000
B(  0-C ,  1-C ) :   0.9537 B(  0-C ,  5-O ) :   0.9280 B(  0-C ,  6-H ) :   0.9584
B(  0-C ,  7-H ) :   0.9636 B(  1-C ,  2-C ) :   0.9231 B(  1-C ,  4-O ) :   0.9355
B(  1-C ,  8-H ) :   0.9358 B(  2-C ,  3-O ) :   0.9758 B(  2-C ,  9-H ) :   0.9662
B(  2-C , 10-H ) :   0.9685 B(  3-O , 11-H ) :   0.8638 B(  4-O , 12-H ) :   0.8587
B(  5-O , 13-H ) :   0.8696

Dispersion correction           -0.003042335
FINAL SINGLE POINT ENERGY      -344.743631757770

DIPOLE MOMENT
-------------

Method             : SCF
Type of density    : Electron Density
Multiplicity       :   1
Irrep              :   0
Energy             :  -344.7510669105043348 Eh
Relativity type    :
Basis              : AO
                                X                 Y                 Z
Electronic contribution:      0.417094708       0.420004228      -0.270282973
Nuclear contribution   :     -0.452651513      -0.237452439      -0.414437721
                        -----------------------------------------
Total Dipole Moment    :     -0.035556806       0.182551789      -0.684720695
                        -----------------------------------------
Magnitude (a.u.)       :      0.709529331
Magnitude (Debye)      :      1.803480235

Rotational constants in cm-1:             0.155864             0.089136             0.067600
Rotational constants in MHz :          4672.698246          2672.230063          2026.593699

                             ****ORCA TERMINATED NORMALLY****
TOTAL RUN TIME: 0 days 0 hours 0 minutes 23 seconds 158 msec
