                         Program Version 6.0.0  -   RELEASE  -
|  1> ! r2scan-3c def2/J RI DEFGRID2 scfconv6 printgap
|  2> %output
|  3>     printlevel normal
|  4> end
|  5> * xyz 0 1
|  6> C 2.1643518583 -0.3852192393 1.1960665176
|  7> C 1.3194295647 -0.5077992946 -0.0663459534
|  8> C 0.2790019 0.6146636054 -0.2090759519
|  9> H 0.5416857283 1.4215487538 0.4956759531
| 10> C -1.1770098478 0.1913215151 0.0844736265
| 11> C -1.6654251509 -0.8876989931 -0.8815991792
| 12> C -1.3533777875 -0.2499410452 1.5342728839
| 13> O 0.3945748786 1.1191878568 -1.533486003
| 14> H 2.890563655 -1.1932508301 1.2360752864
| 15> H 1.5431983005 -0.4356922791 2.0863707488
| 16> H 2.7025270879 0.5598366515 1.2046699429
| 17> H 1.9672076587 -0.4476104139 -0.9430620145
| 18> H 0.8305384682 -1.4802554634 -0.0882976283
| 19> H -1.7939030101 1.0857935075 -0.0740290921
| 20> H -1.3706870912 -0.6404468898 -1.8988013966
| 21> H -1.2465334985 -1.8583831533 -0.6295160933
| 22> H -2.7488166119 -0.9658085474 -0.8387882021
| 23> H -2.4029773299 -0.4518079156 1.7334637053
| 24> H -1.0160979469 0.5271633037 2.2164209622
| 25> H -0.7886856346 -1.1568234044 1.7324211086
| 26> H -0.211149481 1.8640119396 -1.6457227136
| 27> *
| 28>
| 29>                          ****END OF INPUT****

CARTESIAN COORDINATES (ANGSTROEM)
---------------------------------
  C      2.164352   -0.385219    1.196067
  C      1.319430   -0.507799   -0.066346
  C      0.279002    0.614664   -0.209076
  H      0.541686    1.421549    0.495676
  C     -1.177010    0.191322    0.084474
  C     -1.665425   -0.887699   -0.881599
  C     -1.353378   -0.249941    1.534273
  O      0.394575    1.119188   -1.533486
  H      2.890564   -1.193251    1.236075
  H      1.543198   -0.435692    2.086371
  H      2.702527    0.559837    1.204670
  H      1.967208   -0.447610   -0.943062
  H      0.830538   -1.480255   -0.088298
  H     -1.793903    1.085794   -0.074029
  H     -1.370687   -0.640447   -1.898801
  H     -1.246533   -1.858383   -0.629516
  H     -2.748817   -0.965809   -0.838788
  H     -2.402977   -0.451808    1.733464
  H     -1.016098    0.527163    2.216421
  H     -0.788686   -1.156823    1.732421
  H     -0.211149    1.864012   -1.645723

 Total Charge           Charge          ....    0
 Multiplicity           Mult            ....    1
 Number of Electrons    NEL             ....   58
 Basis Dimension        Dim             ....  208

ORBITAL ENERGIES
----------------

  NO   OCC          E(Eh)            E(eV)
   0   2.0000     -18.943406      -515.4763
   1   2.0000     -10.075952      -274.1806
   2   2.0000     -10.034772      -273.0600
   3   2.0000     -10.020816      -272.6803
   4   2.0000     -10.019733      -272.6508
   5   2.0000     -10.016781      -272.5705
   6   2.0000     -10.011674      -272.4315
   7   2.0000      -0.981250       -26.7012
   8   2.0000      -0.773208       -21.0401
   9   2.0000      -0.728496       -19.8234
  10   2.0000      -0.651043       -17.7158
  11   2.0000      -0.636290       -17.3143
  12   2.0000      -0.573581       -15.6079
  13   2.0000      -0.519510       -14.1366
  14   2.0000      -0.472111       -12.8468
  15   2.0000      -0.447287       -12.1713
  16   2.0000      -0.415134       -11.2964
  17   2.0000      -0.391065       -10.6414
  18   2.0000      -0.389003       -10.5853
  19   2.0000      -0.375162       -10.2087
  20   2.0000      -0.355329        -9.6690
  21   2.0000      -0.337134        -9.1739
  22   2.0000      -0.334931        -9.1139
  23   2.0000      -0.322119        -8.7653
  24   2.0000      -0.309309        -8.4167
  25   2.0000      -0.300507        -8.1772
  26   2.0000      -0.296659        -8.0725
  27   2.0000      -0.273003        -7.4288
  28   2.0000      -0.229825        -6.2539
  29   0.0000       0.062648         1.7047
  30   0.0000       0.086638         2.3575
  31   0.0000       0.107978         2.9382
  32   0.0000       0.117527         3.1981
  33   0.0000       0.124625         3.3912

MULLIKEN ATOMIC CHARGES
-----------------------
   0 C :   -0.503947
   1 C :   -0.271311
   2 C :    0.038643
   3 H :    0.137778
   4 C :   -0.038494
   5 C :   -0.508587
   6 C :   -0.528832
   7 O :   -0.437602
   8 H :    0.145731
   9 H :    0.151211
  10 H :    0.150478
  11 H :    0.171170
  12 H :    0.142158
  13 H :    0.135304
  14 H :    0.175234
  15 H :    0.143909
  16 H :    0.148929
  17 H :    0.149625
  18 H :    0.153223
  19 H :    0.161950
  20 H :    0.283430
Sum of atomic charges:    0.0000000

LOEWDIN ATOMIC CHARGES
----------------------
   0 C :   -0.419913
   1 C :   -0.275657
   2 C :    0.062132
   3 H :    0.164673
   4 C :   -0.225503
   5 C :   -0.414152
   6 C :   -0.412721
   7 O :   -0.628138
   8 H :    0.150794
   9 H :    0.149837
  10 H :    0.151485
  11 H :    0.179425
  12 H :    0.156935
  13 H :    0.155489
  14 H :    0.168289
  15 H :    0.151523
  16 H :    0.153081
  17 H :    0.155658
  18 H :    0.154487
  19 H :    0.155517
  20 H :    0.266760

  Mayer bond orders larger than 0.100000
B(  0-C ,  1-C ) :   0.8796 B(  0-C ,  8-H ) :   0.9726 B(  0-C ,  9-H ) :   0.9754
B(  0-C , 10-H ) :   0.9851 B(  1-C ,  2-C ) :   0.8535 B(  1-C , 11-H ) :   0.9697
B(  1-C , 12-H ) :   0.9712 B(  2-C ,  3-H ) :   0.9889 B(  2-C ,  4-C ) :   0.8990
B(  2-C ,  7-O ) :   0.9051 B(  4-C ,  5-C ) :   0.9180 B(  4-C ,  6-C ) :   0.8875
B(  4-C , 13-H ) :   0.9742 B(  5-C , 14-H ) :   0.9710 B(  5-C , 15-H ) :   0.9740
B(  5-C , 16-H ) :   0.9738 B(  6-C , 17-H ) :   0.9662 B(  6-C , 18-H ) :   0.9741
B(  6-C , 19-H ) :   0.9799 B(  7-O , 20-H ) :   0.9004

Dispersion correction           -0.005773401
FINAL SINGLE POINT ENERGY      -312.198963126848

DIPOLE MOMENT
-------------

Method             : SCF
Type of density    : Electron Density
Multiplicity       :   1
Irrep              :   0
Energy             :  -312.2045277304697493 Eh
Relativity type    :
Basis              : AO
                                X                 Y                 Z
Electronic contribution:      0.667020171       3.156152874      -3.914303328
Nuclear contribution   :     -1.029060281      -2.958986920       4.280486024
                        -----------------------------------------
Total Dipole Moment    :     -0.362040110       0.197165954       0.366182696
                        -----------------------------------------
Magnitude (a.u.)       :      0.551395703
Magnitude (Debye)      :      1.401536495

Rotational constants in cm-1:             0.096964             0.068925             0.050704
Rotational constants in MHz :          2906.922293          2066.311634          1520.075090

                             ****ORCA TERMINATED NORMALLY****
TOTAL RUN TIME: 0 days 0 hours 0 minutes 28 seconds 15 msec
