                         Program Version 6.0.0  -   RELEASE  -
|  1> ! r2scan-3c def2/J RI DEFGRID2 scfconv6 printgap
|  2> %output
|  3>     printlevel normal
|  4> end
|  5> %cpcm
|  6>     smd true
|  7>     smdsolvent "water"
|  8> end
|  9> * xyz 0 1
| 10> C 2.1643518583 -0.3852192393 1.1960665176
| 11> C 1.3194295647 -0.5077992946 -0.0663459534
| 12> C 0.2790019 0.6146636054 -0.2090759519
| 13> H 0.5416857283 1.4215487538 0.4956759531
| 14> C -1.1770098478 0.1913215151 0.0844736265
| 15> C -1.6654251509 -0.8876989931 -0.8815991792
| 16> C -1.3533777875 -0.2499410452 1.5342728839
| 17> O 0.3945748786 1.1191878568 -1.533486003
| 18> H 2.890563655 -1.1932508301 1.2360752864
| 19> H 1.5431983005 -0.4356922791 2.0863707488
| 20> H 2.7025270879 0.5598366515 1.2046699429
| 21> H 1.9672076587 -0.4476104139 -0.9430620145
| 22> H 0.8305384682 -1.4802554634 -0.0882976283
| 23> H -1.7939030101 1.0857935075 -0.0740290921
| 24> H -1.3706870912 -0.6404468898 -1.8988013966
| 25> H -1.2465334985 -1.8583831533 -0.6295160933
| 26> H -2.7488166119 -0.9658085474 -0.8387882021
| 27> H -2.4029773299 -0.4518079156 1.7334637053
| 28> H -1.0160979469 0.5271633037 2.2164209622
| 29> H -0.7886856346 -1.1568234044 1.7324211086
| 30> H -0.211149481 1.8640119396 -1.6457227136
| 31> *
| 32>
| 33>                          ****END OF INPUT****

CARTESIAN COORDINATES (ANGSTROEM)
---------------------------------
  C      2.164352   -0.385219    1.196067
  C      1.319430   -0.507799   -0.066346
  C      0.279002    0.614664   -0.209076
  H      0.541686    1.421549    0.495676
  C     -1.177010    0.191322    0.084474
  C     -1.665425   -0.887699   -0.881599
  C     -1.353378   -0.249941    1.534273
  O      0.394575    1.119188   -1.533486
  H      2.890564   -1.193251    1.236075
  H      1.543198   -0.435692    2.086371
  H      2.702527    0.559837    1.204670
  H      1.967208   -0.447610   -0.943062
  H      0.830538   -1.480255   -0.088298
  H     -1.793903    1.085794   -0.074029
  H     -1.370687   -0.640447   -1.898801
  H     -1.246533   -1.858383   -0.629516
  H     -2.748817   -0.965809   -0.838788
  H     -2.402977   -0.451808    1.733464
  H     -1.016098    0.527163    2.216421
  H     -0.788686   -1.156823    1.732421
  H     -0.211149    1.864012   -1.645723

 Total Charge           Charge          ....    0
 Multiplicity           Mult            ....    1
 Number of Electrons    NEL             ....   58
 Basis Dimension        Dim             ....  208

ORBITAL ENERGIES
----------------

  NO   OCC          E(Eh)            E(eV)
   0   2.0000     -18.946232      -515.5532
   1   2.0000     -10.070698      -274.0376
   2   2.0000     -10.025347      -272.8036
   3   2.0000     -10.016161      -272.5536
   4   2.0000     -10.009679      -272.3772
   5   2.0000     -10.008498      -272.3451
   6   2.0000     -10.005603      -272.2663
   7   2.0000      -0.982930       -26.7469
   8   2.0000      -0.765825       -20.8391
   9   2.0000      -0.722178       -19.6515
  10   2.0000      -0.643113       -17.5000
  11   2.0000      -0.630904       -17.1678
  12   2.0000      -0.567012       -15.4292
  13   2.0000      -0.513998       -13.9866
  14   2.0000      -0.467684       -12.7263
  15   2.0000      -0.440458       -11.9855
  16   2.0000      -0.408963       -11.1284
  17   2.0000      -0.386233       -10.5099
  18   2.0000      -0.383216       -10.4279
  19   2.0000      -0.368329       -10.0227
  20   2.0000      -0.345872        -9.4117
  21   2.0000      -0.332885        -9.0583
  22   2.0000      -0.329848        -8.9756
  23   2.0000      -0.317799        -8.6477
  24   2.0000      -0.302847        -8.2409
  25   2.0000      -0.295620        -8.0442
  26   2.0000      -0.291319        -7.9272
  27   2.0000      -0.267712        -7.2848
  28   2.0000      -0.231923        -6.3109
  29   0.0000       0.078541         2.1372
  30   0.0000       0.095834         2.6078
  31   0.0000       0.116753         3.1770
  32   0.0000       0.126468         3.4414
  33   0.0000       0.131223         3.5708

MULLIKEN ATOMIC CHARGES
-----------------------
   0 C :   -0.537260
   1 C :   -0.277150
   2 C :    0.039134
   3 H :    0.150592
   4 C :   -0.012214
   5 C :   -0.560825
   6 C :   -0.565546
   7 O :   -0.524932
   8 H :    0.156341
   9 H :    0.163765
  10 H :    0.158973
  11 H :    0.163986
  12 H :    0.160448
  13 H :    0.156962
  14 H :    0.165234
  15 H :    0.161889
  16 H :    0.163507
  17 H :    0.160577
  18 H :    0.164342
  19 H :    0.172995
  20 H :    0.339180
Sum of atomic charges:    0.0000000

LOEWDIN ATOMIC CHARGES
----------------------
   0 C :   -0.425308
   1 C :   -0.281050
   2 C :    0.062757
   3 H :    0.171670
   4 C :   -0.220419
   5 C :   -0.422808
   6 C :   -0.418274
   7 O :   -0.663563
   8 H :    0.153388
   9 H :    0.154219
  10 H :    0.153436
  11 H :    0.174446
  12 H :    0.162739
  13 H :    0.163693
  14 H :    0.162324
  15 H :    0.155522
  16 H :    0.157502
  17 H :    0.158145
  18 H :    0.158051
  19 H :    0.158534
  20 H :    0.284996

  Mayer bond orders larger than 0.100000
B(  0-C ,  1-C ) :   0.8820 B(  0-C ,  8-H ) :   0.9702 B(  0-C ,  9-H ) :   0.9735
B(  0-C , 10-H ) :   0.9818 B(  1-C ,  2-C ) :   0.8483 B(  1-C , 11-H ) :   0.9699
B(  1-C , 12-H ) :   0.9645 B(  2-C ,  3-H ) :   0.9840 B(  2-C ,  4-C ) :   0.9076
B(  2-C ,  7-O ) :   0.8859 B(  4-C ,  5-C ) :   0.8962 B(  4-C ,  6-C ) :   0.8796
B(  4-C , 13-H ) :   0.9718 B(  5-C , 14-H ) :   0.9751 B(  5-C , 15-H ) :   0.9732
B(  5-C , 16-H ) :   0.9699 B(  6-C , 17-H ) :   0.9647 B(  6-C , 18-H ) :   0.9710
B(  6-C , 19-H ) :   0.9764 B(  7-O , 20-H ) :   0.8745

Dispersion correction           -0.005773401
FINAL SINGLE POINT ENERGY      -312.204027221851

DIPOLE MOMENT
-------------

Method             : SCF
Type of density    : Electron Density
Multiplicity       :   1
Irrep              :   0
Energy             :  -312.2095918254721596 Eh
Relativity type    :
Basis              : AO
                                X                 Y                 Z
Electronic contribution:      0.479162954       3.256117229      -3.680214797
Nuclear contribution   :     -1.029060281      -2.958986920       4.280486024
                        -----------------------------------------
Total Dipole Moment    :     -0.549897327       0.297130309       0.600271227
                        -----------------------------------------
Magnitude (a.u.)       :      0.866602006
Magnitude (Debye)      :      2.202727246

Rotational constants in cm-1:             0.096964             0.068925             0.050704
Rotational constants in MHz :          2906.922293          2066.311634          1520.075090

                             ****ORCA TERMINATED NORMALLY****
TOTAL RUN TIME: 0 days 0 hours 0 minutes 33 seconds 175 msec
