                         Program Version 6.0.0  -   RELEASE  -
|  1> ! r2scan-3c def2/J RI DEFGRID2 scfconv6 printgap
|  2> %output
|  3>     printlevel normal
|  4> end
|  5> * xyz 0 1
|  6> C -0.2460135251 -2.8231778325 -0.1705118342
|  7> C 0.5232711565 -1.5477163557 -0.0457383611
|  8> C 1.8915530922 -1.4536564198 -0.3477750152
|  9> N 2.561826244 -0.3226006593 -0.2298240539
| 10> C 1.9059322658 0.7711834631 0.1903267408
| 11> N 0.5906339568 0.7886314145 0.4823190891
| 12> C -0.0550079463 -0.3508741001 0.3537444405
| 13> O -1.4053134723 -0.2977070851 0.6954140204
| 14> C -2.265045333 -0.0238834342 -0.3281105565
| 15> O -1.8917385979 0.0498057656 -1.4900457664
| 16> N -3.524617113 0.1286885086 0.0822072967
| 17> C -4.5747719152 0.3723684847 -0.8840409893
| 18> C -3.9453275181 0.039792448 1.4638339455
| 19> N 2.5962409606 1.9072251074 0.3270805101
| 20> C 1.9762613694 3.1355689849 0.7587542639
| 21> C 4.0060280615 1.9817688155 0.028254061
| 22> C 2.6586110702 -2.642884693 -0.8226712737
| 23> H -1.2334998533 -2.7117178471 0.2711088624
| 24> H -0.3656083851 -3.0880682753 -1.2211375685
| 25> H 0.2767347447 -3.6344802017 0.3316500703
| 26> H -5.3169098297 -0.4242924414 -0.8292579931
| 27> H -4.1332960787 0.3947249483 -1.8773747011
| 28> H -5.0533556841 1.3291268105 -0.675146891
| 29> H -4.5600107217 -0.8502865902 1.6070005045
| 30> H -4.5327318146 0.9231484672 1.7132242417
| 31> H -3.0757639261 -0.0122257472 2.11116632
| 32> H 2.4550937124 3.4886092209 1.6736492853
| 33> H 0.9227382084 2.9524483769 0.9436589103
| 34> H 2.0848079218 3.8971398162 -0.0155419834
| 35> H 4.5525067025 2.305200178 0.9154608543
| 36> H 4.1762468592 2.7006336703 -0.7749756101
| 37> H 4.3514683492 1.0002708296 -0.2795226847
| 38> H 2.6655402303 -3.4116527513 -0.0528343994
| 39> H 2.1878859892 -3.0575506222 -1.7109618131
| 40> H 3.6776824151 -2.3483317066 -1.0494077478
| 41> *
| 42>
| 43>                          ****END OF INPUT****

CARTESIAN COORDINATES (ANGSTROEM)
---------------------------------
  C     -0.246014   -2.823178   -0.170512
  C      0.523271   -1.547716   -0.045738
  C      1.891553   -1.453656   -0.347775
  N      2.561826   -0.322601   -0.229824
  C      1.905932    0.771183    0.190327
  N      0.590634    0.788631    0.482319
  C     -0.055008   -0.350874    0.353744
  O     -1.405313   -0.297707    0.695414
  C     -2.265045   -0.023883   -0.328111
  O     -1.891739    0.049806   -1.490046
  N     -3.524617    0.128689    0.082207
  C     -4.574772    0.372368   -0.884041
  C     -3.945328    0.039792    1.463834
  N      2.596241    1.907225    0.327081
  C      1.976261    3.135569    0.758754
  C      4.006028    1.981769    0.028254
  C      2.658611   -2.642885   -0.822671
  H     -1.233500   -2.711718    0.271109
  H     -0.365608   -3.088068   -1.221138
  H      0.276735   -3.634480    0.331650
  H     -5.316910   -0.424292   -0.829258
  H     -4.133296    0.394725   -1.877375
  H     -5.053356    1.329127   -0.675147
  H     -4.560011   -0.850287    1.607001
  H     -4.532732    0.923148    1.713224
  H     -3.075764   -0.012226    2.111166
  H      2.455094    3.488609    1.673649
  H      0.922738    2.952448    0.943659
  H      2.084808    3.897140   -0.015542
  H      4.552507    2.305200    0.915461
  H      4.176247    2.700634   -0.774976
  H      4.351468    1.000271   -0.279523
  H      2.665540   -3.411653   -0.052834
  H      2.187886   -3.057551   -1.710962
  H      3.677682   -2.348332   -1.049408

 Total Charge           Charge          ....    0
 Multiplicity           Mult            ....    1
 Number of Electrons    NEL             ....  128
 Basis Dimension        Dim             ....  443

ORBITAL ENERGIES
----------------

  NO   OCC          E(Eh)            E(eV)
   0   2.0000     -18.993580      -516.8416
   1   2.0000     -18.905907      -514.4559
   2   2.0000     -14.197143      -386.3239
   3   2.0000     -14.184251      -385.9731
   4   2.0000     -14.139771      -384.7627
   5   2.0000     -14.135142      -384.6368
   6   2.0000     -10.167061      -276.6598
   7   2.0000     -10.122625      -275.4506
   8   2.0000     -10.119291      -275.3599
   9   2.0000     -10.075260      -274.1618
  10   2.0000     -10.066695      -273.9287
  11   2.0000     -10.062553      -273.8160
  12   2.0000     -10.051471      -273.5144
  13   2.0000     -10.051221      -273.5076
  14   2.0000     -10.030676      -272.9486
  15   2.0000     -10.024636      -272.7842
  16   2.0000     -10.023883      -272.7637
  17   2.0000      -1.075173       -29.2569
  18   2.0000      -0.977871       -26.6092
  19   2.0000      -0.961672       -26.1684
  20   2.0000      -0.914498       -24.8848
  21   2.0000      -0.893880       -24.3237
  22   2.0000      -0.844924       -22.9915
  23   2.0000      -0.769412       -20.9368
  24   2.0000      -0.706311       -19.2197
  25   2.0000      -0.699051       -19.0221
  26   2.0000      -0.691784       -18.8244
  27   2.0000      -0.682205       -18.5637
  28   2.0000      -0.673268       -18.3206
  29   2.0000      -0.624797       -17.0016
  30   2.0000      -0.600096       -16.3294
  31   2.0000      -0.553575       -15.0635
  32   2.0000      -0.530069       -14.4239
  33   2.0000      -0.505077       -13.7438
  34   2.0000      -0.501346       -13.6423
  35   2.0000      -0.474686       -12.9169
  36   2.0000      -0.455861       -12.4046
  37   2.0000      -0.452661       -12.3175
  38   2.0000      -0.443857       -12.0780
  39   2.0000      -0.421021       -11.4566
  40   2.0000      -0.415291       -11.3006
  41   2.0000      -0.410596       -11.1729
  42   2.0000      -0.393875       -10.7179
  43   2.0000      -0.386115       -10.5067
  44   2.0000      -0.383909       -10.4467
  45   2.0000      -0.378263       -10.2931
  46   2.0000      -0.373564       -10.1652
  47   2.0000      -0.372840       -10.1455
  48   2.0000      -0.370895       -10.0926
  49   2.0000      -0.366029        -9.9601
  50   2.0000      -0.361491        -9.8367
  51   2.0000      -0.358329        -9.7506
  52   2.0000      -0.352558        -9.5936
  53   2.0000      -0.351098        -9.5539
  54   2.0000      -0.344547        -9.3756
  55   2.0000      -0.338724        -9.2171
  56   2.0000      -0.274741        -7.4761
  57   2.0000      -0.270053        -7.3485
  58   2.0000      -0.267104        -7.2683
  59   2.0000      -0.259848        -7.0708
  60   2.0000      -0.232175        -6.3178
  61   2.0000      -0.217899        -5.9293
  62   2.0000      -0.205926        -5.6035
  63   2.0000      -0.177750        -4.8368
  64   0.0000      -0.040863        -1.1119
  65   0.0000      -0.007812        -0.2126
  66   0.0000       0.031174         0.8483
  67   0.0000       0.061034         1.6608
  68   0.0000       0.079059         2.1513

MULLIKEN ATOMIC CHARGES
-----------------------
   0 C :   -0.609043
   1 C :    0.001991
   2 C :    0.250730
   3 N :   -0.242619
   4 C :    0.065705
   5 N :   -0.249175
   6 C :    0.169838
   7 O :   -0.141147
   8 C :    0.261565
   9 O :   -0.484546
  10 N :    0.073283
  11 C :   -0.386031
  12 C :   -0.381808
  13 N :    0.159807
  14 C :   -0.383233
  15 C :   -0.381205
  16 C :   -0.636873
  17 H :    0.167776
  18 H :    0.180696
  19 H :    0.146861
  20 H :    0.140488
  21 H :    0.201826
  22 H :    0.144247
  23 H :    0.148125
  24 H :    0.141696
  25 H :    0.185956
  26 H :    0.139228
  27 H :    0.198299
  28 H :    0.140449
  29 H :    0.138865
  30 H :    0.140911
  31 H :    0.198146
  32 H :    0.163344
  33 H :    0.159407
  34 H :    0.176441
Sum of atomic charges:    0.0000000

LOEWDIN ATOMIC CHARGES
----------------------
   0 C :   -0.372644
   1 C :   -0.066144
   2 C :    0.178876
   3 N :   -0.567050
   4 C :    0.436062
   5 N :   -0.476912
   6 C :    0.395999
   7 O :   -0.472282
   8 C :    0.476076
   9 O :   -0.419328
  10 N :   -0.786266
  11 C :   -0.097815
  12 C :   -0.097297
  13 N :   -0.792949
  14 C :   -0.103577
  15 C :   -0.104794
  16 C :   -0.353854
  17 H :    0.173280
  18 H :    0.168440
  19 H :    0.160130
  20 H :    0.171912
  21 H :    0.209681
  22 H :    0.172615
  23 H :    0.170881
  24 H :    0.173860
  25 H :    0.205240
  26 H :    0.170378
  27 H :    0.210683
  28 H :    0.171488
  29 H :    0.170419
  30 H :    0.170978
  31 H :    0.210499
  32 H :    0.168506
  33 H :    0.169565
  34 H :    0.175345

  Mayer bond orders larger than 0.100000
B(  0-C ,  1-C ) :   0.6852 B(  0-C , 17-H ) :   0.9968 B(  0-C , 18-H ) :   0.9864
B(  0-C , 19-H ) :   0.9734 B(  1-C ,  2-C ) :   1.3329 B(  1-C ,  6-C ) :   1.4042
B(  2-C ,  3-N ) :   1.3621 B(  2-C , 16-C ) :   0.7675 B(  3-N ,  4-C ) :   1.3436
B(  4-C ,  5-N ) :   1.3532 B(  4-C ,  6-C ) :   0.1015 B(  4-C , 13-N ) :   1.3284
B(  5-N ,  6-C ) :   1.5295 B(  6-C ,  7-O ) :   1.0511 B(  7-O ,  8-C ) :   1.0124
B(  8-C ,  9-O ) :   1.7915 B(  8-C , 10-N ) :   1.3275 B( 10-N , 11-C ) :   0.9188
B( 10-N , 12-C ) :   0.9031 B( 11-C , 20-H ) :   0.9534 B( 11-C , 21-H ) :   0.9549
B( 11-C , 22-H ) :   0.9577 B( 12-C , 23-H ) :   0.9573 B( 12-C , 24-H ) :   0.9571
B( 12-C , 25-H ) :   0.9582 B( 13-N , 14-C ) :   0.9118 B( 13-N , 15-C ) :   0.9128
B( 14-C , 26-H ) :   0.9577 B( 14-C , 27-H ) :   0.9551 B( 14-C , 28-H ) :   0.9553
B( 15-C , 29-H ) :   0.9574 B( 15-C , 30-H ) :   0.9565 B( 15-C , 31-H ) :   0.9540
B( 16-C , 32-H ) :   0.9783 B( 16-C , 33-H ) :   0.9636 B( 16-C , 34-H ) :   1.0123

Dispersion correction           -0.013550661
FINAL SINGLE POINT ENERGY      -799.295388694639

DIPOLE MOMENT
-------------

Method             : SCF
Type of density    : Electron Density
Multiplicity       :   1
Irrep              :   0
Energy             :  -799.3194759835153036 Eh
Relativity type    :
Basis              : AO
                                X                 Y                 Z
Electronic contribution:      0.433977192       0.481599154      -0.276280961
Nuclear contribution   :     -0.900212794      -0.503413038       1.005789119
                        -----------------------------------------
Total Dipole Moment    :     -0.466235601      -0.021813883       0.729508158
                        -----------------------------------------
Magnitude (a.u.)       :      0.866044822
Magnitude (Debye)      :      2.201310998

Rotational constants in cm-1:             0.024203             0.009826             0.007698
Rotational constants in MHz :           725.578472           294.572436           230.780023

                             ****ORCA TERMINATED NORMALLY****
TOTAL RUN TIME: 0 days 0 hours 1 minutes 25 seconds 104 msec
