                         Program Version 6.0.0  -   RELEASE  -
|  1> ! r2scan-3c def2/J RI DEFGRID2 scfconv6 printgap
|  2> %output
|  3>     printlevel normal
|  4> end
|  5> %cpcm
|  6>     smd true
|  7>     smdsolvent "water"
|  8> end
|  9> * xyz 0 1
| 10> C -0.2460135251 -2.8231778325 -0.1705118342
| 11> C 0.5232711565 -1.5477163557 -0.0457383611
| 12> C 1.8915530922 -1.4536564198 -0.3477750152
| 13> N 2.561826244 -0.3226006593 -0.2298240539
| 14> C 1.9059322658 0.7711834631 0.1903267408
| 15> N 0.5906339568 0.7886314145 0.4823190891
| 16> C -0.0550079463 -0.3508741001 0.3537444405
| 17> O -1.4053134723 -0.2977070851 0.6954140204
| 18> C -2.265045333 -0.0238834342 -0.3281105565
| 19> O -1.8917385979 0.0498057656 -1.4900457664
| 20> N -3.524617113 0.1286885086 0.0822072967
| 21> C -4.5747719152 0.3723684847 -0.8840409893
| 22> C -3.9453275181 0.039792448 1.4638339455
| 23> N 2.5962409606 1.9072251074 0.3270805101
| 24> C 1.9762613694 3.1355689849 0.7587542639
| 25> C 4.0060280615 1.9817688155 0.028254061
| 26> C 2.6586110702 -2.642884693 -0.8226712737
| 27> H -1.2334998533 -2.7117178471 0.2711088624
| 28> H -0.3656083851 -3.0880682753 -1.2211375685
| 29> H 0.2767347447 -3.6344802017 0.3316500703
| 30> H -5.3169098297 -0.4242924414 -0.8292579931
| 31> H -4.1332960787 0.3947249483 -1.8773747011
| 32> H -5.0533556841 1.3291268105 -0.675146891
| 33> H -4.5600107217 -0.8502865902 1.6070005045
| 34> H -4.5327318146 0.9231484672 1.7132242417
| 35> H -3.0757639261 -0.0122257472 2.11116632
| 36> H 2.4550937124 3.4886092209 1.6736492853
| 37> H 0.9227382084 2.9524483769 0.9436589103
| 38> H 2.0848079218 3.8971398162 -0.0155419834
| 39> H 4.5525067025 2.305200178 0.9154608543
| 40> H 4.1762468592 2.7006336703 -0.7749756101
| 41> H 4.3514683492 1.0002708296 -0.2795226847
| 42> H 2.6655402303 -3.4116527513 -0.0528343994
| 43> H 2.1878859892 -3.0575506222 -1.7109618131
| 44> H 3.6776824151 -2.3483317066 -1.0494077478
| 45> *
| 46>
| 47>                          ****END OF INPUT****

CARTESIAN COORDINATES (ANGSTROEM)
---------------------------------
  C     -0.246014   -2.823178   -0.170512
  C      0.523271   -1.547716   -0.045738
  C      1.891553   -1.453656   -0.347775
  N      2.561826   -0.322601   -0.229824
  C      1.905932    0.771183    0.190327
  N      0.590634    0.788631    0.482319
  C     -0.055008   -0.350874    0.353744
  O     -1.405313   -0.297707    0.695414
  C     -2.265045   -0.023883   -0.328111
  O     -1.891739    0.049806   -1.490046
  N     -3.524617    0.128689    0.082207
  C     -4.574772    0.372368   -0.884041
  C     -3.945328    0.039792    1.463834
  N      2.596241    1.907225    0.327081
  C      1.976261    3.135569    0.758754
  C      4.006028    1.981769    0.028254
  C      2.658611   -2.642885   -0.822671
  H     -1.233500   -2.711718    0.271109
  H     -0.365608   -3.088068   -1.221138
  H      0.276735   -3.634480    0.331650
  H     -5.316910   -0.424292   -0.829258
  H     -4.133296    0.394725   -1.877375
  H     -5.053356    1.329127   -0.675147
  H     -4.560011   -0.850287    1.607001
  H     -4.532732    0.923148    1.713224
  H     -3.075764   -0.012226    2.111166
  H      2.455094    3.488609    1.673649
  H      0.922738    2.952448    0.943659
  H      2.084808    3.897140   -0.015542
  H      4.552507    2.305200    0.915461
  H      4.176247    2.700634   -0.774976
  H      4.351468    1.000271   -0.279523
  H      2.665540   -3.411653   -0.052834
  H      2.187886   -3.057551   -1.710962
  H      3.677682   -2.348332   -1.049408

 Total Charge           Charge          ....    0
 Multiplicity           Mult            ....    1
 Number of Electrons    NEL             ....  128
 Basis Dimension        Dim             ....  443

ORBITAL ENERGIES
----------------

  NO   OCC          E(Eh)            E(eV)
   0   2.0000     -19.007945      -517.2325
   1   2.0000     -18.930963      -515.1377
   2   2.0000     -14.201788      -386.4503
   3   2.0000     -14.188817      -386.0973
   4   2.0000     -14.152751      -385.1159
   5   2.0000     -14.145758      -384.9256
   6   2.0000     -10.184425      -277.1323
   7   2.0000     -10.134202      -275.7656
   8   2.0000     -10.129050      -275.6255
   9   2.0000     -10.083985      -274.3992
  10   2.0000     -10.054621      -273.6002
  11   2.0000     -10.053924      -273.5812
  12   2.0000     -10.047300      -273.4009
  13   2.0000     -10.046520      -273.3797
  14   2.0000     -10.038529      -273.1623
  15   2.0000     -10.022454      -272.7248
  16   2.0000     -10.020491      -272.6714
  17   2.0000      -1.091341       -29.6969
  18   2.0000      -0.997142       -27.1336
  19   2.0000      -0.972777       -26.4706
  20   2.0000      -0.920106       -25.0373
  21   2.0000      -0.899934       -24.4884
  22   2.0000      -0.856963       -23.3192
  23   2.0000      -0.775326       -21.0977
  24   2.0000      -0.708439       -19.2776
  25   2.0000      -0.699772       -19.0418
  26   2.0000      -0.687135       -18.6979
  27   2.0000      -0.680789       -18.5252
  28   2.0000      -0.673503       -18.3269
  29   2.0000      -0.627030       -17.0624
  30   2.0000      -0.605983       -16.4896
  31   2.0000      -0.557905       -15.1814
  32   2.0000      -0.536751       -14.6057
  33   2.0000      -0.509410       -13.8618
  34   2.0000      -0.504040       -13.7156
  35   2.0000      -0.481382       -13.0991
  36   2.0000      -0.462538       -12.5863
  37   2.0000      -0.455040       -12.3823
  38   2.0000      -0.446351       -12.1458
  39   2.0000      -0.421042       -11.4571
  40   2.0000      -0.416319       -11.3286
  41   2.0000      -0.415099       -11.2954
  42   2.0000      -0.400237       -10.8910
  43   2.0000      -0.391823       -10.6620
  44   2.0000      -0.390769       -10.6334
  45   2.0000      -0.372403       -10.1336
  46   2.0000      -0.371104       -10.0983
  47   2.0000      -0.370407       -10.0793
  48   2.0000      -0.365555        -9.9473
  49   2.0000      -0.363695        -9.8966
  50   2.0000      -0.359962        -9.7951
  51   2.0000      -0.358629        -9.7588
  52   2.0000      -0.352275        -9.5859
  53   2.0000      -0.350421        -9.5355
  54   2.0000      -0.344509        -9.3746
  55   2.0000      -0.340467        -9.2646
  56   2.0000      -0.293536        -7.9875
  57   2.0000      -0.282803        -7.6954
  58   2.0000      -0.280322        -7.6279
  59   2.0000      -0.265648        -7.2286
  60   2.0000      -0.259128        -7.0512
  61   2.0000      -0.224121        -6.0986
  62   2.0000      -0.218889        -5.9563
  63   2.0000      -0.184155        -5.0111
  64   0.0000      -0.052580        -1.4308
  65   0.0000      -0.016996        -0.4625
  66   0.0000       0.015525         0.4225
  67   0.0000       0.055910         1.5214
  68   0.0000       0.075485         2.0540

MULLIKEN ATOMIC CHARGES
-----------------------
   0 C :   -0.641160
   1 C :   -0.013918
   2 C :    0.253338
   3 N :   -0.275226
   4 C :    0.065877
   5 N :   -0.277557
   6 C :    0.142782
   7 O :   -0.142225
   8 C :    0.279033
   9 O :   -0.575482
  10 N :    0.081695
  11 C :   -0.408064
  12 C :   -0.406272
  13 N :    0.160594
  14 C :   -0.413392
  15 C :   -0.410972
  16 C :   -0.658429
  17 H :    0.184864
  18 H :    0.196300
  19 H :    0.175040
  20 H :    0.172172
  21 H :    0.190139
  22 H :    0.174531
  23 H :    0.175478
  24 H :    0.170531
  25 H :    0.189373
  26 H :    0.167216
  27 H :    0.192016
  28 H :    0.166912
  29 H :    0.166232
  30 H :    0.166833
  31 H :    0.193785
  32 H :    0.192610
  33 H :    0.183379
  34 H :    0.181964
Sum of atomic charges:    0.0000000

LOEWDIN ATOMIC CHARGES
----------------------
   0 C :   -0.375951
   1 C :   -0.070405
   2 C :    0.183135
   3 N :   -0.587335
   4 C :    0.429232
   5 N :   -0.508291
   6 C :    0.382040
   7 O :   -0.474353
   8 C :    0.474479
   9 O :   -0.492659
  10 N :   -0.770939
  11 C :   -0.093961
  12 C :   -0.091430
  13 N :   -0.790375
  14 C :   -0.103359
  15 C :   -0.104204
  16 C :   -0.355534
  17 H :    0.177564
  18 H :    0.173548
  19 H :    0.171485
  20 H :    0.185595
  21 H :    0.203942
  22 H :    0.185485
  23 H :    0.183906
  24 H :    0.186589
  25 H :    0.205788
  26 H :    0.181872
  27 H :    0.206317
  28 H :    0.181772
  29 H :    0.181564
  30 H :    0.181228
  31 H :    0.206990
  32 H :    0.180845
  33 H :    0.179275
  34 H :    0.176144

  Mayer bond orders larger than 0.100000
B(  0-C ,  1-C ) :   0.7003 B(  0-C , 17-H ) :   0.9929 B(  0-C , 18-H ) :   0.9757
B(  0-C , 19-H ) :   0.9645 B(  1-C ,  2-C ) :   1.3126 B(  1-C ,  6-C ) :   1.4168
B(  2-C ,  3-N ) :   1.3658 B(  2-C , 16-C ) :   0.7894 B(  3-N ,  4-C ) :   1.3425
B(  4-C ,  5-N ) :   1.3458 B(  4-C , 13-N ) :   1.3526 B(  5-N ,  6-C ) :   1.5215
B(  6-C ,  7-O ) :   1.0329 B(  7-O ,  8-C ) :   1.0186 B(  8-C ,  9-O ) :   1.7173
B(  8-C , 10-N ) :   1.3844 B( 10-N , 11-C ) :   0.9080 B( 10-N , 12-C ) :   0.8941
B( 11-C , 20-H ) :   0.9451 B( 11-C , 21-H ) :   0.9561 B( 11-C , 22-H ) :   0.9481
B( 12-C , 23-H ) :   0.9475 B( 12-C , 24-H ) :   0.9486 B( 12-C , 25-H ) :   0.9540
B( 13-N , 14-C ) :   0.8987 B( 13-N , 15-C ) :   0.9003 B( 14-C , 26-H ) :   0.9498
B( 14-C , 27-H ) :   0.9571 B( 14-C , 28-H ) :   0.9485 B( 15-C , 29-H ) :   0.9497
B( 15-C , 30-H ) :   0.9494 B( 15-C , 31-H ) :   0.9554 B( 16-C , 32-H ) :   0.9620
B( 16-C , 33-H ) :   0.9522 B( 16-C , 34-H ) :   1.0075

Dispersion correction           -0.013550661
FINAL SINGLE POINT ENERGY      -799.309864619086

DIPOLE MOMENT
-------------

Method             : SCF
Type of density    : Electron Density
Multiplicity       :   1
Irrep              :   0
Energy             :  -799.3339519079630691 Eh
Relativity type    :
Basis              : AO
                                X                 Y                 Z
Electronic contribution:      0.217160399       0.369437634       0.163726245
Nuclear contribution   :     -0.900212794      -0.503413038       1.005789119
                        -----------------------------------------
Total Dipole Moment    :     -0.683052394      -0.133975403       1.169515364
                        -----------------------------------------
Magnitude (a.u.)       :      1.360983530
Magnitude (Debye)      :      3.459345214

Rotational constants in cm-1:             0.024203             0.009826             0.007698
Rotational constants in MHz :           725.578472           294.572436           230.780023

                             ****ORCA TERMINATED NORMALLY****
TOTAL RUN TIME: 0 days 0 hours 2 minutes 3 seconds 5 msec
