                         Program Version 6.0.0  -   RELEASE  -
|  1> ! r2scan-3c def2/J RI DEFGRID2 scfconv6 printgap
|  2> %output
|  3>     printlevel normal
|  4> end
|  5> * xyz 0 1
|  6> C -3.3052580118 1.1374201931 -0.7396280768
|  7> C -1.9335616281 1.3209836458 -0.1758708877
|  8> O -1.6196442677 2.1275345438 0.6697526142
|  9> O -1.0732701658 0.4446164705 -0.716654187
| 10> C 0.2616538979 0.4370356846 -0.3390363831
| 11> C 1.0314765145 1.5827161332 -0.4712627537
| 12> C 2.3791936372 1.5548328749 -0.1565629871
| 13> C 2.971092157 0.3796094598 0.2793556303
| 14> C 2.2082804624 -0.7633784812 0.4070179984
| 15> C 0.844314602 -0.7536142657 0.1116168076
| 16> C 0.0965320012 -2.0167998875 0.3032968704
| 17> O 0.6453321256 -3.0789428356 0.5324019065
| 18> O -1.220368956 -1.9123160282 0.2283514271
| 19> H -3.7850545633 2.1052566213 -0.8496333014
| 20> H -3.886399561 0.5485872465 -0.0329506241
| 21> H -3.2523871127 0.6097766957 -1.6855381868
| 22> H 0.5650796254 2.4915508173 -0.8177588681
| 23> H 2.9653183729 2.45390691 -0.2591967077
| 24> H 4.0216849157 0.3558731439 0.5184559379
| 25> H 2.6394155709 -1.6935882246 0.7441790778
| 26> H -1.6582863768 -2.7767675332 0.3587075093
| 27> *
| 28>
| 29>                          ****END OF INPUT****

CARTESIAN COORDINATES (ANGSTROEM)
---------------------------------
  C     -3.305258    1.137420   -0.739628
  C     -1.933562    1.320984   -0.175871
  O     -1.619644    2.127535    0.669753
  O     -1.073270    0.444616   -0.716654
  C      0.261654    0.437036   -0.339036
  C      1.031477    1.582716   -0.471263
  C      2.379194    1.554833   -0.156563
  C      2.971092    0.379609    0.279356
  C      2.208280   -0.763378    0.407018
  C      0.844315   -0.753614    0.111617
  C      0.096532   -2.016800    0.303297
  O      0.645332   -3.078943    0.532402
  O     -1.220369   -1.912316    0.228351
  H     -3.785055    2.105257   -0.849633
  H     -3.886400    0.548587   -0.032951
  H     -3.252387    0.609777   -1.685538
  H      0.565080    2.491551   -0.817759
  H      2.965318    2.453907   -0.259197
  H      4.021685    0.355873    0.518456
  H      2.639416   -1.693588    0.744179
  H     -1.658286   -2.776768    0.358708

 Total Charge           Charge          ....    0
 Multiplicity           Mult            ....    1
 Number of Electrons    NEL             ....   94
 Basis Dimension        Dim             ....  307

ORBITAL ENERGIES
----------------

  NO   OCC          E(Eh)            E(eV)
   0   2.0000     -19.019862      -517.5567
   1   2.0000     -19.008636      -517.2513
   2   2.0000     -18.942399      -515.4489
   3   2.0000     -18.937098      -515.3046
   4   2.0000     -10.172891      -276.8184
   5   2.0000     -10.171460      -276.7795
   6   2.0000     -10.123293      -275.4688
   7   2.0000     -10.068964      -273.9904
   8   2.0000     -10.058092      -273.6946
   9   2.0000     -10.055560      -273.6257
  10   2.0000     -10.054079      -273.5854
  11   2.0000     -10.050373      -273.4846
  12   2.0000     -10.049479      -273.4602
  13   2.0000      -1.096409       -29.8348
  14   2.0000      -1.082987       -29.4696
  15   2.0000      -0.996106       -27.1054
  16   2.0000      -0.982494       -26.7350
  17   2.0000      -0.849444       -23.1145
  18   2.0000      -0.762498       -20.7486
  19   2.0000      -0.750473       -20.4214
  20   2.0000      -0.717434       -19.5224
  21   2.0000      -0.650228       -17.6936
  22   2.0000      -0.630356       -17.1528
  23   2.0000      -0.580407       -15.7937
  24   2.0000      -0.560766       -15.2592
  25   2.0000      -0.504122       -13.7179
  26   2.0000      -0.476355       -12.9623
  27   2.0000      -0.467756       -12.7283
  28   2.0000      -0.463750       -12.6193
  29   2.0000      -0.449199       -12.2233
  30   2.0000      -0.443044       -12.0558
  31   2.0000      -0.429767       -11.6946
  32   2.0000      -0.427937       -11.6448
  33   2.0000      -0.414282       -11.2732
  34   2.0000      -0.390111       -10.6155
  35   2.0000      -0.383206       -10.4276
  36   2.0000      -0.372997       -10.1498
  37   2.0000      -0.370717       -10.0877
  38   2.0000      -0.353691        -9.6244
  39   2.0000      -0.341797        -9.3008
  40   2.0000      -0.335952        -9.1417
  41   2.0000      -0.298858        -8.1323
  42   2.0000      -0.294670        -8.0184
  43   2.0000      -0.260509        -7.0888
  44   2.0000      -0.250633        -6.8201
  45   2.0000      -0.245654        -6.6846
  46   2.0000      -0.244156        -6.6438
  47   0.0000      -0.084607        -2.3023
  48   0.0000      -0.051027        -1.3885
  49   0.0000      -0.023213        -0.6316
  50   0.0000       0.017132         0.4662
  51   0.0000       0.052310         1.4234

MULLIKEN ATOMIC CHARGES
-----------------------
   0 C :   -0.525662
   1 C :    0.398701
   2 O :   -0.400266
   3 O :   -0.112806
   4 C :    0.226600
   5 C :   -0.192207
   6 C :   -0.112956
   7 C :   -0.151797
   8 C :   -0.212856
   9 C :    0.004464
  10 C :    0.288836
  11 O :   -0.403414
  12 O :   -0.320977
  13 H :    0.175250
  14 H :    0.180462
  15 H :    0.173814
  16 H :    0.160812
  17 H :    0.151857
  18 H :    0.150724
  19 H :    0.187587
  20 H :    0.333833
Sum of atomic charges:   -0.0000000

LOEWDIN ATOMIC CHARGES
----------------------
   0 C :   -0.328615
   1 C :    0.378610
   2 O :   -0.401340
   3 O :   -0.528510
   4 C :    0.234329
   5 C :   -0.105832
   6 C :   -0.131280
   7 C :   -0.160902
   8 C :   -0.093672
   9 C :   -0.008162
  10 C :    0.377446
  11 O :   -0.431222
  12 O :   -0.374113
  13 H :    0.179102
  14 H :    0.185718
  15 H :    0.177439
  16 H :    0.188553
  17 H :    0.172277
  18 H :    0.171723
  19 H :    0.195075
  20 H :    0.303373

  Mayer bond orders larger than 0.100000
B(  0-C ,  1-C ) :   0.9489 B(  0-C , 13-H ) :   0.9682 B(  0-C , 14-H ) :   0.9371
B(  0-C , 15-H ) :   0.9791 B(  1-C ,  2-O ) :   1.8880 B(  1-C ,  3-O ) :   0.9646
B(  3-O ,  4-C ) :   0.9285 B(  4-C ,  5-C ) :   1.3886 B(  4-C ,  9-C ) :   1.4516
B(  5-C ,  6-C ) :   1.3813 B(  5-C , 16-H ) :   0.9282 B(  6-C ,  7-C ) :   1.3728
B(  6-C , 17-H ) :   0.9487 B(  7-C ,  8-C ) :   1.3817 B(  7-C , 18-H ) :   0.9514
B(  8-C ,  9-C ) :   1.3418 B(  8-C , 19-H ) :   0.9482 B(  9-C , 10-C ) :   1.0238
B(  9-C , 11-O ) :  -0.1035 B( 10-C , 11-O ) :   1.9455 B( 10-C , 12-O ) :   1.0759
B( 12-O , 20-H ) :   0.8578

Dispersion correction           -0.007890974
FINAL SINGLE POINT ENERGY      -648.582627643194

DIPOLE MOMENT
-------------

Method             : SCF
Type of density    : Electron Density
Multiplicity       :   1
Irrep              :   0
Energy             :  -648.5850347707205401 Eh
Relativity type    :
Basis              : AO
                                X                 Y                 Z
Electronic contribution:      1.851664544      -3.525862227       1.232206172
Nuclear contribution   :     -2.291207422       3.805618370      -1.888042750
                        -----------------------------------------
Total Dipole Moment    :     -0.439542878       0.279756143      -0.655836578
                        -----------------------------------------
Magnitude (a.u.)       :      0.837605550
Magnitude (Debye)      :      2.129024112

Rotational constants in cm-1:             0.036317             0.024732             0.015538
Rotational constants in MHz :          1088.764357           741.450469           465.824357

                             ****ORCA TERMINATED NORMALLY****
TOTAL RUN TIME: 0 days 0 hours 0 minutes 52 seconds 5 msec
