                         Program Version 6.0.0  -   RELEASE  -
|  1> ! r2scan-3c def2/J RI DEFGRID2 scfconv6 printgap
|  2> %output
|  3>     printlevel normal
|  4> end
|  5> %cpcm
|  6>     smd true
|  7>     smdsolvent "water"
|  8> end
|  9> * xyz 0 1
| 10> C -3.3052580118 1.1374201931 -0.7396280768
| 11> C -1.9335616281 1.3209836458 -0.1758708877
| 12> O -1.6196442677 2.1275345438 0.6697526142
| 13> O -1.0732701658 0.4446164705 -0.716654187
| 14> C 0.2616538979 0.4370356846 -0.3390363831
| 15> C 1.0314765145 1.5827161332 -0.4712627537
| 16> C 2.3791936372 1.5548328749 -0.1565629871
| 17> C 2.971092157 0.3796094598 0.2793556303
| 18> C 2.2082804624 -0.7633784812 0.4070179984
| 19> C 0.844314602 -0.7536142657 0.1116168076
| 20> C 0.0965320012 -2.0167998875 0.3032968704
| 21> O 0.6453321256 -3.0789428356 0.5324019065
| 22> O -1.220368956 -1.9123160282 0.2283514271
| 23> H -3.7850545633 2.1052566213 -0.8496333014
| 24> H -3.886399561 0.5485872465 -0.0329506241
| 25> H -3.2523871127 0.6097766957 -1.6855381868
| 26> H 0.5650796254 2.4915508173 -0.8177588681
| 27> H 2.9653183729 2.45390691 -0.2591967077
| 28> H 4.0216849157 0.3558731439 0.5184559379
| 29> H 2.6394155709 -1.6935882246 0.7441790778
| 30> H -1.6582863768 -2.7767675332 0.3587075093
| 31> *
| 32>
| 33>                          ****END OF INPUT****

CARTESIAN COORDINATES (ANGSTROEM)
---------------------------------
  C     -3.305258    1.137420   -0.739628
  C     -1.933562    1.320984   -0.175871
  O     -1.619644    2.127535    0.669753
  O     -1.073270    0.444616   -0.716654
  C      0.261654    0.437036   -0.339036
  C      1.031477    1.582716   -0.471263
  C      2.379194    1.554833   -0.156563
  C      2.971092    0.379609    0.279356
  C      2.208280   -0.763378    0.407018
  C      0.844315   -0.753614    0.111617
  C      0.096532   -2.016800    0.303297
  O      0.645332   -3.078943    0.532402
  O     -1.220369   -1.912316    0.228351
  H     -3.785055    2.105257   -0.849633
  H     -3.886400    0.548587   -0.032951
  H     -3.252387    0.609777   -1.685538
  H      0.565080    2.491551   -0.817759
  H      2.965318    2.453907   -0.259197
  H      4.021685    0.355873    0.518456
  H      2.639416   -1.693588    0.744179
  H     -1.658286   -2.776768    0.358708

 Total Charge           Charge          ....    0
 Multiplicity           Mult            ....    1
 Number of Electrons    NEL             ....   94
 Basis Dimension        Dim             ....  307

ORBITAL ENERGIES
----------------

  NO   OCC          E(Eh)            E(eV)
   0   2.0000     -19.023567      -517.6576
   1   2.0000     -19.004778      -517.1463
   2   2.0000     -18.952965      -515.7364
   3   2.0000     -18.947177      -515.5789
   4   2.0000     -10.178854      -276.9807
   5   2.0000     -10.178150      -276.9615
   6   2.0000     -10.122356      -275.4433
   7   2.0000     -10.068586      -273.9801
   8   2.0000     -10.053043      -273.5572
   9   2.0000     -10.051534      -273.5161
  10   2.0000     -10.049467      -273.4599
  11   2.0000     -10.044226      -273.3173
  12   2.0000     -10.034755      -273.0596
  13   2.0000      -1.100074       -29.9345
  14   2.0000      -1.083178       -29.4748
  15   2.0000      -1.006047       -27.3759
  16   2.0000      -0.989388       -26.9226
  17   2.0000      -0.847672       -23.0663
  18   2.0000      -0.758769       -20.6472
  19   2.0000      -0.747825       -20.3494
  20   2.0000      -0.709782       -19.3141
  21   2.0000      -0.645775       -17.5724
  22   2.0000      -0.626816       -17.0565
  23   2.0000      -0.575193       -15.6518
  24   2.0000      -0.558179       -15.1888
  25   2.0000      -0.501914       -13.6578
  26   2.0000      -0.477113       -12.9829
  27   2.0000      -0.471344       -12.8259
  28   2.0000      -0.465751       -12.6737
  29   2.0000      -0.450746       -12.2654
  30   2.0000      -0.444422       -12.0933
  31   2.0000      -0.432261       -11.7624
  32   2.0000      -0.425785       -11.5862
  33   2.0000      -0.409365       -11.1394
  34   2.0000      -0.385673       -10.4947
  35   2.0000      -0.377418       -10.2701
  36   2.0000      -0.372804       -10.1445
  37   2.0000      -0.364651        -9.9227
  38   2.0000      -0.351262        -9.5583
  39   2.0000      -0.338709        -9.2167
  40   2.0000      -0.334248        -9.0954
  41   2.0000      -0.303766        -8.2659
  42   2.0000      -0.299661        -8.1542
  43   2.0000      -0.266251        -7.2450
  44   2.0000      -0.262383        -7.1398
  45   2.0000      -0.252565        -6.8726
  46   2.0000      -0.244122        -6.6429
  47   0.0000      -0.086050        -2.3415
  48   0.0000      -0.050520        -1.3747
  49   0.0000      -0.025024        -0.6809
  50   0.0000       0.015942         0.4338
  51   0.0000       0.068035         1.8513

MULLIKEN ATOMIC CHARGES
-----------------------
   0 C :   -0.562614
   1 C :    0.448703
   2 O :   -0.480579
   3 O :   -0.117565
   4 C :    0.210191
   5 C :   -0.226218
   6 C :   -0.129092
   7 C :   -0.190999
   8 C :   -0.235161
   9 C :    0.021174
  10 C :    0.322402
  11 O :   -0.479263
  12 O :   -0.341144
  13 H :    0.194895
  14 H :    0.212343
  15 H :    0.193763
  16 H :    0.195468
  17 H :    0.190379
  18 H :    0.186641
  19 H :    0.202805
  20 H :    0.383870
Sum of atomic charges:    0.0000000

LOEWDIN ATOMIC CHARGES
----------------------
   0 C :   -0.325089
   1 C :    0.392311
   2 O :   -0.458951
   3 O :   -0.527505
   4 C :    0.228148
   5 C :   -0.112489
   6 C :   -0.125737
   7 C :   -0.158781
   8 C :   -0.100486
   9 C :   -0.014762
  10 C :    0.386712
  11 O :   -0.488622
  12 O :   -0.360752
  13 H :    0.187554
  14 H :    0.198165
  15 H :    0.186657
  16 H :    0.199411
  17 H :    0.186186
  18 H :    0.184496
  19 H :    0.198674
  20 H :    0.324859

  Mayer bond orders larger than 0.100000
B(  0-C ,  1-C ) :   0.9493 B(  0-C , 13-H ) :   0.9594 B(  0-C , 14-H ) :   0.9202
B(  0-C , 15-H ) :   0.9687 B(  1-C ,  2-O ) :   1.8197 B(  1-C ,  3-O ) :   0.9887
B(  3-O ,  4-C ) :   0.9081 B(  4-C ,  5-C ) :   1.3525 B(  4-C ,  9-C ) :   1.4355
B(  5-C ,  6-C ) :   1.3492 B(  5-C , 16-H ) :   0.9444 B(  6-C ,  7-C ) :   1.3522
B(  6-C , 17-H ) :   0.9524 B(  7-C ,  8-C ) :   1.3767 B(  7-C , 18-H ) :   0.9563
B(  8-C ,  9-C ) :   1.2721 B(  8-C , 19-H ) :   0.9603 B(  9-C , 10-C ) :   1.0289
B( 10-C , 11-O ) :   1.8848 B( 10-C , 12-O ) :   1.1101 B( 12-O , 20-H ) :   0.8330

Dispersion correction           -0.007890974
FINAL SINGLE POINT ENERGY      -648.598683356332

DIPOLE MOMENT
-------------

Method             : SCF
Type of density    : Electron Density
Multiplicity       :   1
Irrep              :   0
Energy             :  -648.6010904838585702 Eh
Relativity type    :
Basis              : AO
                                X                 Y                 Z
Electronic contribution:      1.707952058      -3.400515202       0.928978506
Nuclear contribution   :     -2.291207422       3.805618370      -1.888042750
                        -----------------------------------------
Total Dipole Moment    :     -0.583255364       0.405103168      -0.959064244
                        -----------------------------------------
Magnitude (a.u.)       :      1.193356451
Magnitude (Debye)      :      3.033271041

Rotational constants in cm-1:             0.036317             0.024732             0.015538
Rotational constants in MHz :          1088.764357           741.450469           465.824357

                             ****ORCA TERMINATED NORMALLY****
TOTAL RUN TIME: 0 days 0 hours 0 minutes 58 seconds 525 msec
