                         Program Version 6.0.0  -   RELEASE  -
|  1> ! r2scan-3c def2/J RI DEFGRID2 scfconv6 printgap
|  2> %output
|  3>     printlevel normal
|  4> end
|  5> * xyz 0 1
|  6> C -2.6798529971 0.3846168799 0.9504708591
|  7> C -2.1529427193 0.4106333505 -0.4794640833
|  8> C -0.8684179115 -0.392583323 -0.6239838759
|  9> O 0.1698207985 0.2710534904 0.1119047693
| 10> C 1.4111686924 -0.1737717842 -0.031990839
| 11> O 1.6991843883 -1.1150536835 -0.7437872548
| 12> C 2.3859075632 0.628707124 0.7760472888
| 13> H -1.9320398622 0.7824031284 1.6313772051
| 14> H -3.5801288911 0.9871466076 1.0306880039
| 15> H -2.9159260917 -0.6334870414 1.2506520761
| 16> H -1.9539116253 1.4396409704 -0.7807283352
| 17> H -2.8924442901 -0.0121215764 -1.1595108921
| 18> H -0.9827744498 -1.4060532722 -0.2247990729
| 19> H -0.5551877302 -0.4714200163 -1.6704852213
| 20> H 3.3745752093 0.1897198223 0.6951764579
| 21> H 2.0618980989 0.652783878 1.8124064131
| 22> H 2.39869228 1.6491195134 0.4019150708
| 23> *
| 24>
| 25>                          ****END OF INPUT****

CARTESIAN COORDINATES (ANGSTROEM)
---------------------------------
  C     -2.679853    0.384617    0.950471
  C     -2.152943    0.410633   -0.479464
  C     -0.868418   -0.392583   -0.623984
  O      0.169821    0.271053    0.111905
  C      1.411169   -0.173772   -0.031991
  O      1.699184   -1.115054   -0.743787
  C      2.385908    0.628707    0.776047
  H     -1.932040    0.782403    1.631377
  H     -3.580129    0.987147    1.030688
  H     -2.915926   -0.633487    1.250652
  H     -1.953912    1.439641   -0.780728
  H     -2.892444   -0.012122   -1.159511
  H     -0.982774   -1.406053   -0.224799
  H     -0.555188   -0.471420   -1.670485
  H      3.374575    0.189720    0.695176
  H      2.061898    0.652784    1.812406
  H      2.398692    1.649120    0.401915

 Total Charge           Charge          ....    0
 Multiplicity           Mult            ....    1
 Number of Electrons    NEL             ....   56
 Basis Dimension        Dim             ....  193

ORBITAL ENERGIES
----------------

  NO   OCC          E(Eh)            E(eV)
   0   2.0000     -18.996693      -516.9263
   1   2.0000     -18.927754      -515.0504
   2   2.0000     -10.154961      -276.3305
   3   2.0000     -10.088787      -274.5298
   4   2.0000     -10.039321      -273.1838
   5   2.0000     -10.038864      -273.1714
   6   2.0000     -10.022719      -272.7320
   7   2.0000      -1.072692       -29.1894
   8   2.0000      -0.974463       -26.5165
   9   2.0000      -0.770444       -20.9649
  10   2.0000      -0.721579       -19.6351
  11   2.0000      -0.659953       -17.9582
  12   2.0000      -0.580758       -15.8032
  13   2.0000      -0.532134       -14.4801
  14   2.0000      -0.465794       -12.6749
  15   2.0000      -0.457968       -12.4619
  16   2.0000      -0.437124       -11.8947
  17   2.0000      -0.418669       -11.3926
  18   2.0000      -0.405897       -11.0450
  19   2.0000      -0.389532       -10.5997
  20   2.0000      -0.376541       -10.2462
  21   2.0000      -0.353001        -9.6056
  22   2.0000      -0.340033        -9.2528
  23   2.0000      -0.324282        -8.8242
  24   2.0000      -0.317076        -8.6281
  25   2.0000      -0.306152        -8.3308
  26   2.0000      -0.271416        -7.3856
  27   2.0000      -0.234942        -6.3931
  28   0.0000      -0.013480        -0.3668
  29   0.0000       0.072014         1.9596
  30   0.0000       0.094865         2.5814
  31   0.0000       0.110283         3.0010
  32   0.0000       0.121880         3.3165

MULLIKEN ATOMIC CHARGES
-----------------------
   0 C :   -0.472517
   1 C :   -0.220454
   2 C :   -0.164208
   3 O :   -0.170347
   4 C :    0.416834
   5 O :   -0.426138
   6 C :   -0.524097
   7 H :    0.159810
   8 H :    0.147970
   9 H :    0.141535
  10 H :    0.143687
  11 H :    0.139635
  12 H :    0.153405
  13 H :    0.162673
  14 H :    0.178191
  15 H :    0.166141
  16 H :    0.167880
Sum of atomic charges:   -0.0000000

LOEWDIN ATOMIC CHARGES
----------------------
   0 C :   -0.418540
   1 C :   -0.285768
   2 C :    0.039956
   3 O :   -0.603724
   4 C :    0.351241
   5 O :   -0.427677
   6 C :   -0.336794
   7 H :    0.159085
   8 H :    0.151566
   9 H :    0.151533
  10 H :    0.162787
  11 H :    0.160176
  12 H :    0.180049
  13 H :    0.185637
  14 H :    0.174751
  15 H :    0.177130
  16 H :    0.178591

  Mayer bond orders larger than 0.100000
B(  0-C ,  1-C ) :   0.9115 B(  0-C ,  7-H ) :   0.9801 B(  0-C ,  8-H ) :   0.9724
B(  0-C ,  9-H ) :   0.9761 B(  1-C ,  2-C ) :   0.9499 B(  1-C , 10-H ) :   0.9709
B(  1-C , 11-H ) :   0.9618 B(  2-C ,  3-O ) :   0.8043 B(  2-C , 12-H ) :   0.9554
B(  2-C , 13-H ) :   0.9529 B(  3-O ,  4-C ) :   1.0692 B(  4-C ,  5-O ) :   1.8199
B(  4-C ,  6-C ) :   0.9488 B(  6-C , 14-H ) :   0.9890 B(  6-C , 15-H ) :   0.9570
B(  6-C , 16-H ) :   0.9488

Dispersion correction           -0.003900913
FINAL SINGLE POINT ENERGY      -346.936993388166

DIPOLE MOMENT
-------------

Method             : SCF
Type of density    : Electron Density
Multiplicity       :   1
Irrep              :   0
Energy             :  -346.9434569372766646 Eh
Relativity type    :
Basis              : AO
                                X                 Y                 Z
Electronic contribution:      5.970729186      -2.341702457      -2.419637445
Nuclear contribution   :     -6.518114459       2.968730671       2.792647810
                        -----------------------------------------
Total Dipole Moment    :     -0.547385272       0.627028214       0.373010365
                        -----------------------------------------
Magnitude (a.u.)       :      0.912102927
Magnitude (Debye)      :      2.318381397

Rotational constants in cm-1:             0.194921             0.045635             0.039678
Rotational constants in MHz :          5843.577799          1368.093304          1189.505554

                             ****ORCA TERMINATED NORMALLY****
TOTAL RUN TIME: 0 days 0 hours 0 minutes 21 seconds 860 msec
