                         Program Version 6.0.0  -   RELEASE  -
|  1> ! r2scan-3c def2/J RI DEFGRID2 scfconv6 printgap
|  2> %output
|  3>     printlevel normal
|  4> end
|  5> %cpcm
|  6>     smd true
|  7>     smdsolvent "water"
|  8> end
|  9> * xyz 0 1
| 10> C -2.6798529971 0.3846168799 0.9504708591
| 11> C -2.1529427193 0.4106333505 -0.4794640833
| 12> C -0.8684179115 -0.392583323 -0.6239838759
| 13> O 0.1698207985 0.2710534904 0.1119047693
| 14> C 1.4111686924 -0.1737717842 -0.031990839
| 15> O 1.6991843883 -1.1150536835 -0.7437872548
| 16> C 2.3859075632 0.628707124 0.7760472888
| 17> H -1.9320398622 0.7824031284 1.6313772051
| 18> H -3.5801288911 0.9871466076 1.0306880039
| 19> H -2.9159260917 -0.6334870414 1.2506520761
| 20> H -1.9539116253 1.4396409704 -0.7807283352
| 21> H -2.8924442901 -0.0121215764 -1.1595108921
| 22> H -0.9827744498 -1.4060532722 -0.2247990729
| 23> H -0.5551877302 -0.4714200163 -1.6704852213
| 24> H 3.3745752093 0.1897198223 0.6951764579
| 25> H 2.0618980989 0.652783878 1.8124064131
| 26> H 2.39869228 1.6491195134 0.4019150708
| 27> *
| 28>
| 29>                          ****END OF INPUT****

CARTESIAN COORDINATES (ANGSTROEM)
---------------------------------
  C     -2.679853    0.384617    0.950471
  C     -2.152943    0.410633   -0.479464
  C     -0.868418   -0.392583   -0.623984
  O      0.169821    0.271053    0.111905
  C      1.411169   -0.173772   -0.031991
  O      1.699184   -1.115054   -0.743787
  C      2.385908    0.628707    0.776047
  H     -1.932040    0.782403    1.631377
  H     -3.580129    0.987147    1.030688
  H     -2.915926   -0.633487    1.250652
  H     -1.953912    1.439641   -0.780728
  H     -2.892444   -0.012122   -1.159511
  H     -0.982774   -1.406053   -0.224799
  H     -0.555188   -0.471420   -1.670485
  H      3.374575    0.189720    0.695176
  H      2.061898    0.652784    1.812406
  H      2.398692    1.649120    0.401915

 Total Charge           Charge          ....    0
 Multiplicity           Mult            ....    1
 Number of Electrons    NEL             ....   56
 Basis Dimension        Dim             ....  193

ORBITAL ENERGIES
----------------

  NO   OCC          E(Eh)            E(eV)
   0   2.0000     -19.001847      -517.0665
   1   2.0000     -18.943683      -515.4838
   2   2.0000     -10.165116      -276.6069
   3   2.0000     -10.081210      -274.3237
   4   2.0000     -10.030405      -272.9412
   5   2.0000     -10.026529      -272.8357
   6   2.0000     -10.011037      -272.4142
   7   2.0000      -1.079609       -29.3776
   8   2.0000      -0.988279       -26.8924
   9   2.0000      -0.762901       -20.7596
  10   2.0000      -0.714902       -19.4535
  11   2.0000      -0.652179       -17.7467
  12   2.0000      -0.572842       -15.5878
  13   2.0000      -0.529051       -14.3962
  14   2.0000      -0.465404       -12.6643
  15   2.0000      -0.462668       -12.5898
  16   2.0000      -0.444250       -12.0887
  17   2.0000      -0.411213       -11.1897
  18   2.0000      -0.398646       -10.8477
  19   2.0000      -0.382578       -10.4105
  20   2.0000      -0.369491       -10.0544
  21   2.0000      -0.349317        -9.5054
  22   2.0000      -0.339632        -9.2419
  23   2.0000      -0.317855        -8.6493
  24   2.0000      -0.308368        -8.3911
  25   2.0000      -0.300539        -8.1781
  26   2.0000      -0.276267        -7.5176
  27   2.0000      -0.252278        -6.8648
  28   0.0000      -0.021129        -0.5749
  29   0.0000       0.077111         2.0983
  30   0.0000       0.104052         2.8314
  31   0.0000       0.120036         3.2664
  32   0.0000       0.132402         3.6029

MULLIKEN ATOMIC CHARGES
-----------------------
   0 C :   -0.507348
   1 C :   -0.244735
   2 C :   -0.173309
   3 O :   -0.182914
   4 C :    0.467137
   5 O :   -0.516566
   6 C :   -0.560343
   7 H :    0.159332
   8 H :    0.161186
   9 H :    0.156923
  10 H :    0.156732
  11 H :    0.159064
  12 H :    0.173764
  13 H :    0.171344
  14 H :    0.186169
  15 H :    0.194839
  16 H :    0.198725
Sum of atomic charges:    0.0000000

LOEWDIN ATOMIC CHARGES
----------------------
   0 C :   -0.425436
   1 C :   -0.283638
   2 C :    0.040960
   3 O :   -0.603725
   4 C :    0.362952
   5 O :   -0.492550
   6 C :   -0.335171
   7 H :    0.157351
   8 H :    0.155414
   9 H :    0.155803
  10 H :    0.165780
  11 H :    0.168046
  12 H :    0.186553
  13 H :    0.188915
  14 H :    0.178410
  15 H :    0.189174
  16 H :    0.191162

  Mayer bond orders larger than 0.100000
B(  0-C ,  1-C ) :   0.9034 B(  0-C ,  7-H ) :   0.9788 B(  0-C ,  8-H ) :   0.9698
B(  0-C ,  9-H ) :   0.9736 B(  1-C ,  2-C ) :   0.9568 B(  1-C , 10-H ) :   0.9744
B(  1-C , 11-H ) :   0.9571 B(  2-C ,  3-O ) :   0.7897 B(  2-C , 12-H ) :   0.9463
B(  2-C , 13-H ) :   0.9462 B(  3-O ,  4-C ) :   1.0991 B(  4-C ,  5-O ) :   1.7477
B(  4-C ,  6-C ) :   0.9473 B(  6-C , 14-H ) :   0.9823 B(  6-C , 15-H ) :   0.9446
B(  6-C , 16-H ) :   0.9364

Dispersion correction           -0.003900913
FINAL SINGLE POINT ENERGY      -346.942778546639

DIPOLE MOMENT
-------------

Method             : SCF
Type of density    : Electron Density
Multiplicity       :   1
Irrep              :   0
Energy             :  -346.9492420957500372 Eh
Relativity type    :
Basis              : AO
                                X                 Y                 Z
Electronic contribution:      5.782120034      -2.104363268      -2.278719218
Nuclear contribution   :     -6.518114459       2.968730671       2.792647810
                        -----------------------------------------
Total Dipole Moment    :     -0.735994425       0.864367403       0.513928592
                        -----------------------------------------
Magnitude (a.u.)       :      1.246170694
Magnitude (Debye)      :      3.167514178

Rotational constants in cm-1:             0.194921             0.045635             0.039678
Rotational constants in MHz :          5843.577799          1368.093304          1189.505554

                             ****ORCA TERMINATED NORMALLY****
TOTAL RUN TIME: 0 days 0 hours 0 minutes 27 seconds 67 msec
