                         Program Version 6.0.0  -   RELEASE  -
|  1> ! r2scan-3c def2/J RI DEFGRID2 scfconv6 printgap
|  2> %output
|  3>     printlevel normal
|  4> end
|  5> * xyz 0 1
|  6> C -2.6515684167 0.0064689114 0.8251375447
|  7> C -1.7219248058 0.7321392221 -0.1486112122
|  8> C -0.4999303838 -0.1066938004 -0.4247283109
|  9> O -0.5196161492 -1.2165491215 -0.9172746121
| 10> O 0.6108792538 0.5094493187 -0.0495898478
| 11> C 1.8716926138 -0.163154404 -0.2161603226
| 12> C 2.8128886077 0.2941856739 0.8829734595
| 13> H -3.5672102281 0.5747860095 0.955734348
| 14> H -2.8976898189 -0.978853001 0.4366978657
| 15> H -2.1714193799 -0.1126262289 1.7930797044
| 16> H -1.4034209917 1.6921401855 0.254284918
| 17> H -2.2399843284 0.8854279627 -1.0964033201
| 18> H 1.695573844 -1.2430864082 -0.1830840736
| 19> H 2.2589727287 0.099657792 -1.2052205566
| 20> H 2.9351973696 1.3723242468 0.8398755386
| 21> H 2.4133276788 0.0253222526 1.8566581683
| 22> H 3.7783506826 -0.1825072896 0.7494217724
| 23> *
| 24>
| 25>                          ****END OF INPUT****

CARTESIAN COORDINATES (ANGSTROEM)
---------------------------------
  C     -2.651568    0.006469    0.825138
  C     -1.721925    0.732139   -0.148611
  C     -0.499930   -0.106694   -0.424728
  O     -0.519616   -1.216549   -0.917275
  O      0.610879    0.509449   -0.049590
  C      1.871693   -0.163154   -0.216160
  C      2.812889    0.294186    0.882973
  H     -3.567210    0.574786    0.955734
  H     -2.897690   -0.978853    0.436698
  H     -2.171419   -0.112626    1.793080
  H     -1.403421    1.692140    0.254285
  H     -2.239984    0.885428   -1.096403
  H      1.695574   -1.243086   -0.183084
  H      2.258973    0.099658   -1.205221
  H      2.935197    1.372324    0.839876
  H      2.413328    0.025322    1.856658
  H      3.778351   -0.182507    0.749422

 Total Charge           Charge          ....    0
 Multiplicity           Mult            ....    1
 Number of Electrons    NEL             ....   56
 Basis Dimension        Dim             ....  193

ORBITAL ENERGIES
----------------

  NO   OCC          E(Eh)            E(eV)
   0   2.0000     -18.997369      -516.9447
   1   2.0000     -18.925894      -514.9998
   2   2.0000     -10.150801      -276.2173
   3   2.0000     -10.090759      -274.5835
   4   2.0000     -10.042835      -273.2794
   5   2.0000     -10.032415      -272.9959
   6   2.0000     -10.027990      -272.8755
   7   2.0000      -1.071375       -29.1536
   8   2.0000      -0.973983       -26.5034
   9   2.0000      -0.764766       -20.8103
  10   2.0000      -0.733614       -19.9626
  11   2.0000      -0.640911       -17.4401
  12   2.0000      -0.591779       -16.1031
  13   2.0000      -0.531497       -14.4628
  14   2.0000      -0.465811       -12.6754
  15   2.0000      -0.461950       -12.5703
  16   2.0000      -0.442031       -12.0283
  17   2.0000      -0.413597       -11.2545
  18   2.0000      -0.392538       -10.6815
  19   2.0000      -0.385116       -10.4795
  20   2.0000      -0.374261       -10.1842
  21   2.0000      -0.348194        -9.4748
  22   2.0000      -0.339089        -9.2271
  23   2.0000      -0.331437        -9.0189
  24   2.0000      -0.318216        -8.6591
  25   2.0000      -0.308076        -8.3832
  26   2.0000      -0.270478        -7.3601
  27   2.0000      -0.234412        -6.3787
  28   0.0000      -0.013956        -0.3798
  29   0.0000       0.075860         2.0643
  30   0.0000       0.097146         2.6435
  31   0.0000       0.115355         3.1390
  32   0.0000       0.127093         3.4584

MULLIKEN ATOMIC CHARGES
-----------------------
   0 C :   -0.462863
   1 C :   -0.298441
   2 C :    0.402695
   3 O :   -0.437984
   4 O :   -0.169113
   5 C :   -0.154956
   6 C :   -0.441314
   7 H :    0.150545
   8 H :    0.172120
   9 H :    0.144366
  10 H :    0.160557
  11 H :    0.161329
  12 H :    0.177582
  13 H :    0.144357
  14 H :    0.152536
  15 H :    0.151609
  16 H :    0.146974
Sum of atomic charges:   -0.0000000

LOEWDIN ATOMIC CHARGES
----------------------
   0 C :   -0.394587
   1 C :   -0.237469
   2 C :    0.358431
   3 O :   -0.438287
   4 O :   -0.598172
   5 C :    0.032478
   6 C :   -0.386920
   7 H :    0.151892
   8 H :    0.164943
   9 H :    0.154372
  10 H :    0.173755
  11 H :    0.177286
  12 H :    0.190808
  13 H :    0.174981
  14 H :    0.158690
  15 H :    0.158452
  16 H :    0.159349

  Mayer bond orders larger than 0.100000
B(  0-C ,  1-C ) :   0.8993 B(  0-C ,  7-H ) :   0.9730 B(  0-C ,  8-H ) :   0.9728
B(  0-C ,  9-H ) :   0.9750 B(  1-C ,  2-C ) :   0.9553 B(  1-C , 10-H ) :   0.9844
B(  1-C , 11-H ) :   0.9553 B(  2-C ,  3-O ) :   1.8158 B(  2-C ,  4-O ) :   1.0772
B(  4-O ,  5-C ) :   0.7866 B(  5-C ,  6-C ) :   0.9475 B(  5-C , 12-H ) :   0.9643
B(  5-C , 13-H ) :   0.9456 B(  6-C , 14-H ) :   0.9689 B(  6-C , 15-H ) :   0.9743
B(  6-C , 16-H ) :   0.9679

Dispersion correction           -0.003861583
FINAL SINGLE POINT ENERGY      -346.935392547443

DIPOLE MOMENT
-------------

Method             : SCF
Type of density    : Electron Density
Multiplicity       :   1
Irrep              :   0
Energy             :  -346.9419645261523897 Eh
Relativity type    :
Basis              : AO
                                X                 Y                 Z
Electronic contribution:     -0.406495936      -1.349865321      -3.703854935
Nuclear contribution   :      0.753479434       1.990238218       4.114580592
                        -----------------------------------------
Total Dipole Moment    :      0.346983499       0.640372897       0.410725657
                        -----------------------------------------
Magnitude (a.u.)       :      0.836164195
Magnitude (Debye)      :      2.125360479

Rotational constants in cm-1:             0.188153             0.046152             0.041464
Rotational constants in MHz :          5640.691818          1383.600484          1243.071318

                             ****ORCA TERMINATED NORMALLY****
TOTAL RUN TIME: 0 days 0 hours 0 minutes 22 seconds 613 msec
