                         Program Version 6.0.0  -   RELEASE  -
|  1> ! r2scan-3c def2/J RI DEFGRID2 scfconv6 printgap
|  2> %output
|  3>     printlevel normal
|  4> end
|  5> %cpcm
|  6>     smd true
|  7>     smdsolvent "water"
|  8> end
|  9> * xyz 0 1
| 10> C -2.6515684167 0.0064689114 0.8251375447
| 11> C -1.7219248058 0.7321392221 -0.1486112122
| 12> C -0.4999303838 -0.1066938004 -0.4247283109
| 13> O -0.5196161492 -1.2165491215 -0.9172746121
| 14> O 0.6108792538 0.5094493187 -0.0495898478
| 15> C 1.8716926138 -0.163154404 -0.2161603226
| 16> C 2.8128886077 0.2941856739 0.8829734595
| 17> H -3.5672102281 0.5747860095 0.955734348
| 18> H -2.8976898189 -0.978853001 0.4366978657
| 19> H -2.1714193799 -0.1126262289 1.7930797044
| 20> H -1.4034209917 1.6921401855 0.254284918
| 21> H -2.2399843284 0.8854279627 -1.0964033201
| 22> H 1.695573844 -1.2430864082 -0.1830840736
| 23> H 2.2589727287 0.099657792 -1.2052205566
| 24> H 2.9351973696 1.3723242468 0.8398755386
| 25> H 2.4133276788 0.0253222526 1.8566581683
| 26> H 3.7783506826 -0.1825072896 0.7494217724
| 27> *
| 28>
| 29>                          ****END OF INPUT****

CARTESIAN COORDINATES (ANGSTROEM)
---------------------------------
  C     -2.651568    0.006469    0.825138
  C     -1.721925    0.732139   -0.148611
  C     -0.499930   -0.106694   -0.424728
  O     -0.519616   -1.216549   -0.917275
  O      0.610879    0.509449   -0.049590
  C      1.871693   -0.163154   -0.216160
  C      2.812889    0.294186    0.882973
  H     -3.567210    0.574786    0.955734
  H     -2.897690   -0.978853    0.436698
  H     -2.171419   -0.112626    1.793080
  H     -1.403421    1.692140    0.254285
  H     -2.239984    0.885428   -1.096403
  H      1.695574   -1.243086   -0.183084
  H      2.258973    0.099658   -1.205221
  H      2.935197    1.372324    0.839876
  H      2.413328    0.025322    1.856658
  H      3.778351   -0.182507    0.749422

 Total Charge           Charge          ....    0
 Multiplicity           Mult            ....    1
 Number of Electrons    NEL             ....   56
 Basis Dimension        Dim             ....  193

ORBITAL ENERGIES
----------------

  NO   OCC          E(Eh)            E(eV)
   0   2.0000     -19.003285      -517.1057
   1   2.0000     -18.942577      -515.4537
   2   2.0000     -10.162045      -276.5233
   3   2.0000     -10.082966      -274.3714
   4   2.0000     -10.037367      -273.1306
   5   2.0000     -10.020697      -272.6770
   6   2.0000     -10.018725      -272.6234
   7   2.0000      -1.079018       -29.3616
   8   2.0000      -0.988433       -26.8966
   9   2.0000      -0.760769       -20.7016
  10   2.0000      -0.725744       -19.7485
  11   2.0000      -0.635145       -17.2832
  12   2.0000      -0.585076       -15.9207
  13   2.0000      -0.530230       -14.4283
  14   2.0000      -0.469391       -12.7728
  15   2.0000      -0.459857       -12.5134
  16   2.0000      -0.449252       -12.2248
  17   2.0000      -0.413739       -11.2584
  18   2.0000      -0.390246       -10.6191
  19   2.0000      -0.381307       -10.3759
  20   2.0000      -0.363643        -9.8952
  21   2.0000      -0.339932        -9.2500
  22   2.0000      -0.334376        -9.0988
  23   2.0000      -0.329888        -8.9767
  24   2.0000      -0.312610        -8.5065
  25   2.0000      -0.308196        -8.3865
  26   2.0000      -0.277487        -7.5508
  27   2.0000      -0.251335        -6.8392
  28   0.0000      -0.022371        -0.6087
  29   0.0000       0.078777         2.1436
  30   0.0000       0.106867         2.9080
  31   0.0000       0.123914         3.3719
  32   0.0000       0.135177         3.6784

MULLIKEN ATOMIC CHARGES
-----------------------
   0 C :   -0.493779
   1 C :   -0.309496
   2 C :    0.444256
   3 O :   -0.524899
   4 O :   -0.186734
   5 C :   -0.149537
   6 C :   -0.486308
   7 H :    0.170660
   8 H :    0.166261
   9 H :    0.163271
  10 H :    0.175251
  11 H :    0.186812
  12 H :    0.175463
  13 H :    0.170688
  14 H :    0.164649
  15 H :    0.165029
  16 H :    0.168413
Sum of atomic charges:   -0.0000000

LOEWDIN ATOMIC CHARGES
----------------------
   0 C :   -0.397768
   1 C :   -0.233621
   2 C :    0.368616
   3 O :   -0.500526
   4 O :   -0.598988
   5 C :    0.036447
   6 C :   -0.390007
   7 H :    0.159750
   8 H :    0.161271
   9 H :    0.159866
  10 H :    0.181224
  11 H :    0.186421
  12 H :    0.190900
  13 H :    0.184612
  14 H :    0.162127
  15 H :    0.161734
  16 H :    0.167942

  Mayer bond orders larger than 0.100000
B(  0-C ,  1-C ) :   0.8841 B(  0-C ,  7-H ) :   0.9670 B(  0-C ,  8-H ) :   0.9740
B(  0-C ,  9-H ) :   0.9717 B(  1-C ,  2-C ) :   0.9571 B(  1-C , 10-H ) :   0.9756
B(  1-C , 11-H ) :   0.9473 B(  2-C ,  3-O ) :   1.7471 B(  2-C ,  4-O ) :   1.1038
B(  4-O ,  5-C ) :   0.7750 B(  5-C ,  6-C ) :   0.9443 B(  5-C , 12-H ) :   0.9597
B(  5-C , 13-H ) :   0.9368 B(  6-C , 14-H ) :   0.9661 B(  6-C , 15-H ) :   0.9724
B(  6-C , 16-H ) :   0.9616

Dispersion correction           -0.003861583
FINAL SINGLE POINT ENERGY      -346.940664141215

DIPOLE MOMENT
-------------

Method             : SCF
Type of density    : Electron Density
Multiplicity       :   1
Irrep              :   0
Energy             :  -346.9472361199253214 Eh
Relativity type    :
Basis              : AO
                                X                 Y                 Z
Electronic contribution:     -0.296008986      -1.055378491      -3.559352556
Nuclear contribution   :      0.753479434       1.990238218       4.114580592
                        -----------------------------------------
Total Dipole Moment    :      0.457470448       0.934859727       0.555228036
                        -----------------------------------------
Magnitude (a.u.)       :      1.179627098
Magnitude (Debye)      :      2.998373800

Rotational constants in cm-1:             0.188153             0.046152             0.041464
Rotational constants in MHz :          5640.691818          1383.600484          1243.071318

                             ****ORCA TERMINATED NORMALLY****
TOTAL RUN TIME: 0 days 0 hours 0 minutes 26 seconds 391 msec
