                         Program Version 6.0.0  -   RELEASE  -
|  1> ! r2scan-3c def2/J RI DEFGRID2 scfconv6 printgap
|  2> %output
|  3>     printlevel normal
|  4> end
|  5> * xyz 0 1
|  6> C 2.1501373245 0.649517343 -0.877079671
|  7> C 1.5727527551 -0.6321361301 -0.2844450298
|  8> C 0.2998934306 -0.4361200016 0.5648036376
|  9> H 0.2843591835 -1.2547967934 1.3069737927
| 10> C -1.0172637827 -0.5610815259 -0.237912069
| 11> C -2.2190668882 -0.5639158483 0.7108550506
| 12> C -1.1845125254 0.5412367255 -1.280685107
| 13> O 0.4057124633 0.7964796054 1.2511462369
| 14> H 1.4822472139 1.0932318109 -1.6072733046
| 15> H 3.0976092649 0.4287398168 -1.3628205628
| 16> H 2.3217089496 1.3745684957 -0.0865577458
| 17> H 1.3535221992 -1.3486180698 -1.0771801483
| 18> H 2.3365504456 -1.071816624 0.3603585786
| 19> H -0.9815118587 -1.5322950436 -0.7430323247
| 20> H -3.1213509846 -0.8279979159 0.1649517256
| 21> H -2.0814805124 -1.2886985894 1.5109521227
| 22> H -2.3698912032 0.4216120653 1.1459886709
| 23> H -2.2044530775 0.5454859504 -1.6581481234
| 24> H -0.5141826223 0.3880223466 -2.1210733718
| 25> H -0.9738207365 1.5105099736 -0.8344830725
| 26> H -0.3259637647 0.865381224 1.8774408507
| 27> *
| 28>
| 29>                          ****END OF INPUT****

CARTESIAN COORDINATES (ANGSTROEM)
---------------------------------
  C      2.150137    0.649517   -0.877080
  C      1.572753   -0.632136   -0.284445
  C      0.299893   -0.436120    0.564804
  H      0.284359   -1.254797    1.306974
  C     -1.017264   -0.561082   -0.237912
  C     -2.219067   -0.563916    0.710855
  C     -1.184513    0.541237   -1.280685
  O      0.405712    0.796480    1.251146
  H      1.482247    1.093232   -1.607273
  H      3.097609    0.428740   -1.362821
  H      2.321709    1.374568   -0.086558
  H      1.353522   -1.348618   -1.077180
  H      2.336550   -1.071817    0.360359
  H     -0.981512   -1.532295   -0.743032
  H     -3.121351   -0.827998    0.164952
  H     -2.081481   -1.288699    1.510952
  H     -2.369891    0.421612    1.145989
  H     -2.204453    0.545486   -1.658148
  H     -0.514183    0.388022   -2.121073
  H     -0.973821    1.510510   -0.834483
  H     -0.325964    0.865381    1.877441

 Total Charge           Charge          ....    0
 Multiplicity           Mult            ....    1
 Number of Electrons    NEL             ....   58
 Basis Dimension        Dim             ....  208

ORBITAL ENERGIES
----------------

  NO   OCC          E(Eh)            E(eV)
   0   2.0000     -18.947317      -515.5827
   1   2.0000     -10.076908      -274.2066
   2   2.0000     -10.033574      -273.0274
   3   2.0000     -10.022534      -272.7270
   4   2.0000     -10.022491      -272.7259
   5   2.0000     -10.012399      -272.4512
   6   2.0000     -10.006014      -272.2775
   7   2.0000      -0.986303       -26.8387
   8   2.0000      -0.770299       -20.9609
   9   2.0000      -0.726983       -19.7822
  10   2.0000      -0.651901       -17.7391
  11   2.0000      -0.640385       -17.4257
  12   2.0000      -0.557987       -15.1836
  13   2.0000      -0.529150       -14.3989
  14   2.0000      -0.469702       -12.7812
  15   2.0000      -0.442372       -12.0376
  16   2.0000      -0.426679       -11.6105
  17   2.0000      -0.391580       -10.6554
  18   2.0000      -0.387146       -10.5348
  19   2.0000      -0.365492        -9.9455
  20   2.0000      -0.353397        -9.6164
  21   2.0000      -0.342262        -9.3134
  22   2.0000      -0.338205        -9.2030
  23   2.0000      -0.313247        -8.5239
  24   2.0000      -0.311027        -8.4635
  25   2.0000      -0.299783        -8.1575
  26   2.0000      -0.295324        -8.0362
  27   2.0000      -0.272259        -7.4085
  28   2.0000      -0.230738        -6.2787
  29   0.0000       0.051160         1.3921
  30   0.0000       0.095346         2.5945
  31   0.0000       0.110726         3.0130
  32   0.0000       0.119865         3.2617
  33   0.0000       0.127081         3.4580

MULLIKEN ATOMIC CHARGES
-----------------------
   0 C :   -0.472980
   1 C :   -0.301045
   2 C :    0.054677
   3 H :    0.134770
   4 C :    0.006474
   5 C :   -0.548535
   6 C :   -0.558996
   7 O :   -0.438950
   8 H :    0.142799
   9 H :    0.142006
  10 H :    0.172708
  11 H :    0.136678
  12 H :    0.148766
  13 H :    0.151506
  14 H :    0.156433
  15 H :    0.153292
  16 H :    0.146261
  17 H :    0.141668
  18 H :    0.152240
  19 H :    0.184922
  20 H :    0.295305
Sum of atomic charges:    0.0000000

LOEWDIN ATOMIC CHARGES
----------------------
   0 C :   -0.411453
   1 C :   -0.277418
   2 C :    0.060307
   3 H :    0.165763
   4 C :   -0.229619
   5 C :   -0.420855
   6 C :   -0.412152
   7 O :   -0.623520
   8 H :    0.150824
   9 H :    0.147534
  10 H :    0.168088
  11 H :    0.158768
  12 H :    0.158620
  13 H :    0.160444
  14 H :    0.157246
  15 H :    0.154547
  16 H :    0.150583
  17 H :    0.152426
  18 H :    0.154143
  19 H :    0.165703
  20 H :    0.270020

  Mayer bond orders larger than 0.100000
B(  0-C ,  1-C ) :   0.9163 B(  0-C ,  8-H ) :   0.9644 B(  0-C ,  9-H ) :   0.9778
B(  0-C , 10-H ) :   0.9815 B(  1-C ,  2-C ) :   0.9405 B(  1-C , 11-H ) :   0.9785
B(  1-C , 12-H ) :   0.9688 B(  2-C ,  3-H ) :   0.9690 B(  2-C ,  4-C ) :   0.8800
B(  2-C ,  7-O ) :   0.8636 B(  4-C ,  5-C ) :   0.8758 B(  4-C ,  6-C ) :   0.8531
B(  4-C , 13-H ) :   0.9650 B(  5-C , 14-H ) :   0.9709 B(  5-C , 15-H ) :   0.9777
B(  5-C , 16-H ) :   0.9873 B(  6-C , 17-H ) :   0.9703 B(  6-C , 18-H ) :   0.9729
B(  6-C , 19-H ) :   0.9825 B(  7-O , 20-H ) :   0.8947

Dispersion correction           -0.005788881
FINAL SINGLE POINT ENERGY      -312.198427722501

DIPOLE MOMENT
-------------

Method             : SCF
Type of density    : Electron Density
Multiplicity       :   1
Irrep              :   0
Energy             :  -312.2039974037138563 Eh
Relativity type    :
Basis              : AO
                                X                 Y                 Z
Electronic contribution:      1.160150621       0.263132473       2.993966201
Nuclear contribution   :     -1.585721134      -0.641771294      -2.912163859
                        -----------------------------------------
Total Dipole Moment    :     -0.425570513      -0.378638821       0.081802342
                        -----------------------------------------
Magnitude (a.u.)       :      0.575473059
Magnitude (Debye)      :      1.462736270

Rotational constants in cm-1:             0.129076             0.059699             0.052284
Rotational constants in MHz :          3869.591651          1789.734395          1567.445359

                             ****ORCA TERMINATED NORMALLY****
TOTAL RUN TIME: 0 days 0 hours 0 minutes 27 seconds 705 msec
