                         Program Version 6.0.0  -   RELEASE  -
|  1> ! r2scan-3c def2/J RI DEFGRID2 scfconv6 printgap
|  2> %output
|  3>     printlevel normal
|  4> end
|  5> %cpcm
|  6>     smd true
|  7>     smdsolvent "water"
|  8> end
|  9> * xyz 0 1
| 10> C 2.1501373245 0.649517343 -0.877079671
| 11> C 1.5727527551 -0.6321361301 -0.2844450298
| 12> C 0.2998934306 -0.4361200016 0.5648036376
| 13> H 0.2843591835 -1.2547967934 1.3069737927
| 14> C -1.0172637827 -0.5610815259 -0.237912069
| 15> C -2.2190668882 -0.5639158483 0.7108550506
| 16> C -1.1845125254 0.5412367255 -1.280685107
| 17> O 0.4057124633 0.7964796054 1.2511462369
| 18> H 1.4822472139 1.0932318109 -1.6072733046
| 19> H 3.0976092649 0.4287398168 -1.3628205628
| 20> H 2.3217089496 1.3745684957 -0.0865577458
| 21> H 1.3535221992 -1.3486180698 -1.0771801483
| 22> H 2.3365504456 -1.071816624 0.3603585786
| 23> H -0.9815118587 -1.5322950436 -0.7430323247
| 24> H -3.1213509846 -0.8279979159 0.1649517256
| 25> H -2.0814805124 -1.2886985894 1.5109521227
| 26> H -2.3698912032 0.4216120653 1.1459886709
| 27> H -2.2044530775 0.5454859504 -1.6581481234
| 28> H -0.5141826223 0.3880223466 -2.1210733718
| 29> H -0.9738207365 1.5105099736 -0.8344830725
| 30> H -0.3259637647 0.865381224 1.8774408507
| 31> *
| 32>
| 33>                          ****END OF INPUT****

CARTESIAN COORDINATES (ANGSTROEM)
---------------------------------
  C      2.150137    0.649517   -0.877080
  C      1.572753   -0.632136   -0.284445
  C      0.299893   -0.436120    0.564804
  H      0.284359   -1.254797    1.306974
  C     -1.017264   -0.561082   -0.237912
  C     -2.219067   -0.563916    0.710855
  C     -1.184513    0.541237   -1.280685
  O      0.405712    0.796480    1.251146
  H      1.482247    1.093232   -1.607273
  H      3.097609    0.428740   -1.362821
  H      2.321709    1.374568   -0.086558
  H      1.353522   -1.348618   -1.077180
  H      2.336550   -1.071817    0.360359
  H     -0.981512   -1.532295   -0.743032
  H     -3.121351   -0.827998    0.164952
  H     -2.081481   -1.288699    1.510952
  H     -2.369891    0.421612    1.145989
  H     -2.204453    0.545486   -1.658148
  H     -0.514183    0.388022   -2.121073
  H     -0.973821    1.510510   -0.834483
  H     -0.325964    0.865381    1.877441

 Total Charge           Charge          ....    0
 Multiplicity           Mult            ....    1
 Number of Electrons    NEL             ....   58
 Basis Dimension        Dim             ....  208

ORBITAL ENERGIES
----------------

  NO   OCC          E(Eh)            E(eV)
   0   2.0000     -18.948768      -515.6222
   1   2.0000     -10.071111      -274.0489
   2   2.0000     -10.024145      -272.7709
   3   2.0000     -10.017509      -272.5903
   4   2.0000     -10.007983      -272.3311
   5   2.0000     -10.006199      -272.2825
   6   2.0000     -10.005561      -272.2651
   7   2.0000      -0.986809       -26.8524
   8   2.0000      -0.762387       -20.7456
   9   2.0000      -0.722467       -19.6593
  10   2.0000      -0.642894       -17.4940
  11   2.0000      -0.635824       -17.3017
  12   2.0000      -0.552647       -15.0383
  13   2.0000      -0.524116       -14.2619
  14   2.0000      -0.464207       -12.6317
  15   2.0000      -0.435871       -11.8607
  16   2.0000      -0.419764       -11.4224
  17   2.0000      -0.389883       -10.6093
  18   2.0000      -0.378994       -10.3129
  19   2.0000      -0.357795        -9.7361
  20   2.0000      -0.347061        -9.4440
  21   2.0000      -0.338455        -9.2098
  22   2.0000      -0.333737        -9.0815
  23   2.0000      -0.312153        -8.4941
  24   2.0000      -0.302395        -8.2286
  25   2.0000      -0.296375        -8.0648
  26   2.0000      -0.288797        -7.8586
  27   2.0000      -0.267711        -7.2848
  28   2.0000      -0.231027        -6.2866
  29   0.0000       0.065162         1.7732
  30   0.0000       0.107166         2.9161
  31   0.0000       0.117859         3.2071
  32   0.0000       0.128498         3.4966
  33   0.0000       0.135305         3.6818

MULLIKEN ATOMIC CHARGES
-----------------------
   0 C :   -0.520258
   1 C :   -0.310251
   2 C :    0.058897
   3 H :    0.148007
   4 C :    0.012965
   5 C :   -0.570335
   6 C :   -0.599401
   7 O :   -0.519505
   8 H :    0.160114
   9 H :    0.157141
  10 H :    0.164246
  11 H :    0.155457
  12 H :    0.161943
  13 H :    0.164112
  14 H :    0.165784
  15 H :    0.161904
  16 H :    0.162277
  17 H :    0.155898
  18 H :    0.166694
  19 H :    0.176267
  20 H :    0.348044
Sum of atomic charges:   -0.0000000

LOEWDIN ATOMIC CHARGES
----------------------
   0 C :   -0.421798
   1 C :   -0.280879
   2 C :    0.060990
   3 H :    0.173364
   4 C :   -0.225478
   5 C :   -0.424944
   6 C :   -0.419726
   7 O :   -0.656149
   8 H :    0.154070
   9 H :    0.152381
  10 H :    0.161322
  11 H :    0.165763
  12 H :    0.160495
  13 H :    0.165548
  14 H :    0.158372
  15 H :    0.158291
  16 H :    0.156912
  17 H :    0.156359
  18 H :    0.157364
  19 H :    0.160993
  20 H :    0.286749

  Mayer bond orders larger than 0.100000
B(  0-C ,  1-C ) :   0.8856 B(  0-C ,  8-H ) :   0.9668 B(  0-C ,  9-H ) :   0.9728
B(  0-C , 10-H ) :   0.9840 B(  1-C ,  2-C ) :   0.9311 B(  1-C , 11-H ) :   0.9744
B(  1-C , 12-H ) :   0.9718 B(  2-C ,  3-H ) :   0.9651 B(  2-C ,  4-C ) :   0.8930
B(  2-C ,  7-O ) :   0.8546 B(  4-C ,  5-C ) :   0.8833 B(  4-C ,  6-C ) :   0.8381
B(  4-C , 13-H ) :   0.9638 B(  5-C , 14-H ) :   0.9704 B(  5-C , 15-H ) :   0.9728
B(  5-C , 16-H ) :   0.9799 B(  6-C , 17-H ) :   0.9679 B(  6-C , 18-H ) :   0.9710
B(  6-C , 19-H ) :   0.9845 B(  7-O , 20-H ) :   0.8700

Dispersion correction           -0.005788881
FINAL SINGLE POINT ENERGY      -312.202878831846

DIPOLE MOMENT
-------------

Method             : SCF
Type of density    : Electron Density
Multiplicity       :   1
Irrep              :   0
Energy             :  -312.2084485130590679 Eh
Relativity type    :
Basis              : AO
                                X                 Y                 Z
Electronic contribution:      0.975654506       0.024018219       3.010788290
Nuclear contribution   :     -1.585721134      -0.641771294      -2.912163859
                        -----------------------------------------
Total Dipole Moment    :     -0.610066628      -0.617753075       0.098624431
                        -----------------------------------------
Magnitude (a.u.)       :      0.873800281
Magnitude (Debye)      :      2.221023806

Rotational constants in cm-1:             0.129076             0.059699             0.052284
Rotational constants in MHz :          3869.591651          1789.734395          1567.445359

                             ****ORCA TERMINATED NORMALLY****
TOTAL RUN TIME: 0 days 0 hours 0 minutes 32 seconds 802 msec
