                         Program Version 6.0.0  -   RELEASE  -
|  1> ! r2scan-3c def2/J RI DEFGRID2 scfconv6 printgap
|  2> %output
|  3>     printlevel normal
|  4> end
|  5> * xyz 0 1
|  6> C 2.1860328501 0.7565460977 -0.4235837523
|  7> C 1.2580585305 0.2317739552 0.6765201119
|  8> C 0.0278220556 -0.3876113294 0.0653937673
|  9> O -0.1480199106 -1.5905293324 0.0495221325
| 10> C -0.9774090143 0.569223645 -0.5316463949
| 11> C -2.3228180157 0.4251951625 0.1847231342
| 12> H 3.0781768907 1.1843025598 0.0243739698
| 13> H 2.4838745829 -0.0564760012 -1.0814208143
| 14> H 1.6936341578 1.5206351599 -1.018355631
| 15> H 1.7786192072 -0.5242642072 1.2661591363
| 16> H 0.9572559427 1.0546553649 1.3258237498
| 17> H -1.1100947908 0.3031659124 -1.5822682424
| 18> H -0.6221197949 1.5954184774 -0.4624783621
| 19> H -3.0727608385 1.0450933994 -0.297711961
| 20> H -2.2339105754 0.7286579372 1.2252005362
| 21> H -2.6489362906 -0.6118661768 0.1553140674
| 22> *
| 23>
| 24>                          ****END OF INPUT****

CARTESIAN COORDINATES (ANGSTROEM)
---------------------------------
  C      2.186033    0.756546   -0.423584
  C      1.258059    0.231774    0.676520
  C      0.027822   -0.387611    0.065394
  O     -0.148020   -1.590529    0.049522
  C     -0.977409    0.569224   -0.531646
  C     -2.322818    0.425195    0.184723
  H      3.078177    1.184303    0.024374
  H      2.483875   -0.056476   -1.081421
  H      1.693634    1.520635   -1.018356
  H      1.778619   -0.524264    1.266159
  H      0.957256    1.054655    1.325824
  H     -1.110095    0.303166   -1.582268
  H     -0.622120    1.595418   -0.462478
  H     -3.072761    1.045093   -0.297712
  H     -2.233911    0.728658    1.225201
  H     -2.648936   -0.611866    0.155314

 Total Charge           Charge          ....    0
 Multiplicity           Mult            ....    1
 Number of Electrons    NEL             ....   48
 Basis Dimension        Dim             ....  169

ORBITAL ENERGIES
----------------

  NO   OCC          E(Eh)            E(eV)
   0   2.0000     -18.933958      -515.2192
   1   2.0000     -10.114742      -275.2361
   2   2.0000     -10.039583      -273.1909
   3   2.0000     -10.039535      -273.1896
   4   2.0000     -10.036429      -273.1051
   5   2.0000     -10.029285      -272.9107
   6   2.0000      -1.000954       -27.2374
   7   2.0000      -0.768680       -20.9168
   8   2.0000      -0.736446       -20.0397
   9   2.0000      -0.633822       -17.2472
  10   2.0000      -0.599713       -16.3190
  11   2.0000      -0.493699       -13.4342
  12   2.0000      -0.449466       -12.2306
  13   2.0000      -0.444196       -12.0872
  14   2.0000      -0.417327       -11.3560
  15   2.0000      -0.397324       -10.8117
  16   2.0000      -0.380472       -10.3532
  17   2.0000      -0.358133        -9.7453
  18   2.0000      -0.348240        -9.4761
  19   2.0000      -0.344169        -9.3653
  20   2.0000      -0.325994        -8.8708
  21   2.0000      -0.318299        -8.6613
  22   2.0000      -0.309479        -8.4213
  23   2.0000      -0.209704        -5.7063
  24   0.0000      -0.047516        -1.2930
  25   0.0000       0.076467         2.0808
  26   0.0000       0.107976         2.9382
  27   0.0000       0.113128         3.0784
  28   0.0000       0.127848         3.4789

MULLIKEN ATOMIC CHARGES
-----------------------
   0 C :   -0.455691
   1 C :   -0.288591
   2 C :    0.304323
   3 O :   -0.353865
   4 C :   -0.288077
   5 C :   -0.473645
   6 H :    0.155425
   7 H :    0.161544
   8 H :    0.144123
   9 H :    0.166018
  10 H :    0.146312
  11 H :    0.167553
  12 H :    0.144023
  13 H :    0.151298
  14 H :    0.143160
  15 H :    0.176090
Sum of atomic charges:   -0.0000000

LOEWDIN ATOMIC CHARGES
----------------------
   0 C :   -0.398087
   1 C :   -0.285117
   2 C :    0.220536
   3 O :   -0.463003
   4 C :   -0.292765
   5 C :   -0.395082
   6 H :    0.155131
   7 H :    0.158675
   8 H :    0.152430
   9 H :    0.174084
  10 H :    0.165590
  11 H :    0.179868
  12 H :    0.157250
  13 H :    0.151665
  14 H :    0.152568
  15 H :    0.166255

  Mayer bond orders larger than 0.100000
B(  0-C ,  1-C ) :   0.8841 B(  0-C ,  6-H ) :   0.9681 B(  0-C ,  7-H ) :   0.9796
B(  0-C ,  8-H ) :   0.9696 B(  1-C ,  2-C ) :   0.9118 B(  1-C ,  9-H ) :   0.9800
B(  1-C , 10-H ) :   0.9495 B(  2-C ,  3-O ) :   1.9286 B(  2-C ,  4-C ) :   0.8799
B(  4-C ,  5-C ) :   0.8972 B(  4-C , 11-H ) :   0.9557 B(  4-C , 12-H ) :   0.9600
B(  5-C , 13-H ) :   0.9748 B(  5-C , 14-H ) :   0.9755 B(  5-C , 15-H ) :   0.9748

Dispersion correction           -0.003758083
FINAL SINGLE POINT ENERGY      -271.701361818523

DIPOLE MOMENT
-------------

Method             : SCF
Type of density    : Electron Density
Multiplicity       :   1
Irrep              :   0
Energy             :  -271.7049139051064230 Eh
Relativity type    :
Basis              : AO
                                X                 Y                 Z
Electronic contribution:     -0.114178967      -4.694633312       0.401336533
Nuclear contribution   :      0.282757730       5.829905795      -0.417091293
                        -----------------------------------------
Total Dipole Moment    :      0.168578763       1.135272484      -0.015754760
                        -----------------------------------------
Magnitude (a.u.)       :      1.147828656
Magnitude (Debye)      :      2.917548583

Rotational constants in cm-1:             0.195031             0.076603             0.063361
Rotational constants in MHz :          5846.887167          2296.490561          1899.514974

                             ****ORCA TERMINATED NORMALLY****
TOTAL RUN TIME: 0 days 0 hours 0 minutes 18 seconds 614 msec
