                         Program Version 6.0.0  -   RELEASE  -
|  1> ! r2scan-3c def2/J RI DEFGRID2 scfconv6 printgap
|  2> %output
|  3>     printlevel normal
|  4> end
|  5> %cpcm
|  6>     smd true
|  7>     smdsolvent "water"
|  8> end
|  9> * xyz 0 1
| 10> C 2.1860328501 0.7565460977 -0.4235837523
| 11> C 1.2580585305 0.2317739552 0.6765201119
| 12> C 0.0278220556 -0.3876113294 0.0653937673
| 13> O -0.1480199106 -1.5905293324 0.0495221325
| 14> C -0.9774090143 0.569223645 -0.5316463949
| 15> C -2.3228180157 0.4251951625 0.1847231342
| 16> H 3.0781768907 1.1843025598 0.0243739698
| 17> H 2.4838745829 -0.0564760012 -1.0814208143
| 18> H 1.6936341578 1.5206351599 -1.018355631
| 19> H 1.7786192072 -0.5242642072 1.2661591363
| 20> H 0.9572559427 1.0546553649 1.3258237498
| 21> H -1.1100947908 0.3031659124 -1.5822682424
| 22> H -0.6221197949 1.5954184774 -0.4624783621
| 23> H -3.0727608385 1.0450933994 -0.297711961
| 24> H -2.2339105754 0.7286579372 1.2252005362
| 25> H -2.6489362906 -0.6118661768 0.1553140674
| 26> *
| 27>
| 28>                          ****END OF INPUT****

CARTESIAN COORDINATES (ANGSTROEM)
---------------------------------
  C      2.186033    0.756546   -0.423584
  C      1.258059    0.231774    0.676520
  C      0.027822   -0.387611    0.065394
  O     -0.148020   -1.590529    0.049522
  C     -0.977409    0.569224   -0.531646
  C     -2.322818    0.425195    0.184723
  H      3.078177    1.184303    0.024374
  H      2.483875   -0.056476   -1.081421
  H      1.693634    1.520635   -1.018356
  H      1.778619   -0.524264    1.266159
  H      0.957256    1.054655    1.325824
  H     -1.110095    0.303166   -1.582268
  H     -0.622120    1.595418   -0.462478
  H     -3.072761    1.045093   -0.297712
  H     -2.233911    0.728658    1.225201
  H     -2.648936   -0.611866    0.155314

 Total Charge           Charge          ....    0
 Multiplicity           Mult            ....    1
 Number of Electrons    NEL             ....   48
 Basis Dimension        Dim             ....  169

ORBITAL ENERGIES
----------------

  NO   OCC          E(Eh)            E(eV)
   0   2.0000     -18.945945      -515.5454
   1   2.0000     -10.121370      -275.4165
   2   2.0000     -10.029778      -272.9241
   3   2.0000     -10.029410      -272.9141
   4   2.0000     -10.021823      -272.7077
   5   2.0000     -10.019742      -272.6510
   6   2.0000      -1.014509       -27.6062
   7   2.0000      -0.760281       -20.6883
   8   2.0000      -0.726277       -19.7630
   9   2.0000      -0.624691       -16.9987
  10   2.0000      -0.589846       -16.0505
  11   2.0000      -0.490666       -13.3517
  12   2.0000      -0.443935       -12.0801
  13   2.0000      -0.438545       -11.9334
  14   2.0000      -0.412029       -11.2119
  15   2.0000      -0.396791       -10.7972
  16   2.0000      -0.377969       -10.2851
  17   2.0000      -0.348219        -9.4755
  18   2.0000      -0.339701        -9.2437
  19   2.0000      -0.332938        -9.0597
  20   2.0000      -0.320758        -8.7283
  21   2.0000      -0.311634        -8.4800
  22   2.0000      -0.304672        -8.2906
  23   2.0000      -0.220620        -6.0034
  24   0.0000      -0.050850        -1.3837
  25   0.0000       0.087640         2.3848
  26   0.0000       0.121037         3.2936
  27   0.0000       0.125795         3.4231
  28   0.0000       0.140005         3.8097

MULLIKEN ATOMIC CHARGES
-----------------------
   0 C :   -0.487645
   1 C :   -0.292619
   2 C :    0.340659
   3 O :   -0.461471
   4 C :   -0.291693
   5 C :   -0.509923
   6 H :    0.171202
   7 H :    0.166385
   8 H :    0.164274
   9 H :    0.166109
  10 H :    0.176374
  11 H :    0.186655
  12 H :    0.171572
  13 H :    0.169275
  14 H :    0.164834
  15 H :    0.166011
Sum of atomic charges:   -0.0000000

LOEWDIN ATOMIC CHARGES
----------------------
   0 C :   -0.399105
   1 C :   -0.280709
   2 C :    0.238060
   3 O :   -0.540388
   4 C :   -0.286652
   5 C :   -0.399509
   6 H :    0.160976
   7 H :    0.159339
   8 H :    0.159704
   9 H :    0.173798
  10 H :    0.179651
  11 H :    0.186462
  12 H :    0.170409
  13 H :    0.158634
  14 H :    0.158857
  15 H :    0.160473

  Mayer bond orders larger than 0.100000
B(  0-C ,  1-C ) :   0.8725 B(  0-C ,  6-H ) :   0.9632 B(  0-C ,  7-H ) :   0.9765
B(  0-C ,  8-H ) :   0.9662 B(  1-C ,  2-C ) :   0.9272 B(  1-C ,  9-H ) :   0.9795
B(  1-C , 10-H ) :   0.9377 B(  2-C ,  3-O ) :   1.8476 B(  2-C ,  4-C ) :   0.8989
B(  4-C ,  5-C ) :   0.8739 B(  4-C , 11-H ) :   0.9515 B(  4-C , 12-H ) :   0.9490
B(  5-C , 13-H ) :   0.9688 B(  5-C , 14-H ) :   0.9735 B(  5-C , 15-H ) :   0.9763

Dispersion correction           -0.003758083
FINAL SINGLE POINT ENERGY      -271.707703689444

DIPOLE MOMENT
-------------

Method             : SCF
Type of density    : Electron Density
Multiplicity       :   1
Irrep              :   0
Energy             :  -271.7112557760272011 Eh
Relativity type    :
Basis              : AO
                                X                 Y                 Z
Electronic contribution:     -0.041957464      -4.127254801       0.397387715
Nuclear contribution   :      0.282757730       5.829905795      -0.417091293
                        -----------------------------------------
Total Dipole Moment    :      0.240800267       1.702650995      -0.019703577
                        -----------------------------------------
Magnitude (a.u.)       :      1.719707362
Magnitude (Debye)      :      4.371148732

Rotational constants in cm-1:             0.195031             0.076603             0.063361
Rotational constants in MHz :          5846.887167          2296.490561          1899.514974

                             ****ORCA TERMINATED NORMALLY****
TOTAL RUN TIME: 0 days 0 hours 0 minutes 18 seconds 643 msec
