                         Program Version 6.0.0  -   RELEASE  -
|  1> ! pbe def2-sv(p) def2/J RI DEFGRID1 loosescf d4 GCP(DFT/SV(P)) printgap
|  2> %output
|  3>     printlevel normal
|  4> end
|  5> * xyz 0 1
|  6> C -3.6124298948 1.0206451042 -0.3745940669
|  7> O -2.3426252511 1.4438313893 0.0996686706
|  8> C -1.250619086 0.6258417083 0.0524348686
|  9> C -1.1867750754 -0.7640315828 -0.0026549193
| 10> C 0.0406949223 -1.4009769095 -0.0365439817
| 11> C 1.2289601974 -0.6893042159 -0.0031960649
| 12> C 1.2215894053 0.7033637828 0.0644921587
| 13> C -0.0378943447 1.3333279018 0.0898308874
| 14> O -0.0494826079 2.6829010043 0.1556686148
| 15> O 2.246772828 1.5850051663 0.1160375173
| 16> C 3.5979974889 1.2022853007 -0.074285083
| 17> Cl 2.6751299409 -1.6583199441 -0.0257386046
| 18> Cl -2.5850333796 -1.7992771516 0.0048142557
| 19> H -4.1833961934 1.9395184174 -0.4932873122
| 20> H -4.1115477265 0.3731296376 0.3470204784
| 21> H -3.528019906 0.5116281982 -1.3350861194
| 22> H 0.0751250811 -2.4771180286 -0.0786084285
| 23> H -0.9741383745 2.9905890804 0.155343346
| 24> H 4.1422032659 2.1444571808 -0.0971814742
| 25> H 3.7370053558 0.6755336684 -1.0194302169
| 26> H 3.9625023914 0.5906100751 0.7525830507
| 27> *
| 28>
| 29>                          ****END OF INPUT****

CARTESIAN COORDINATES (ANGSTROEM)
---------------------------------
  C     -3.612430    1.020645   -0.374594
  O     -2.342625    1.443831    0.099669
  C     -1.250619    0.625842    0.052435
  C     -1.186775   -0.764032   -0.002655
  C      0.040695   -1.400977   -0.036544
  C      1.228960   -0.689304   -0.003196
  C      1.221589    0.703364    0.064492
  C     -0.037894    1.333328    0.089831
  O     -0.049483    2.682901    0.155669
  O      2.246773    1.585005    0.116038
  C      3.597997    1.202285   -0.074285
  Cl     2.675130   -1.658320   -0.025739
  Cl    -2.585033   -1.799277    0.004814
  H     -4.183396    1.939518   -0.493287
  H     -4.111548    0.373130    0.347020
  H     -3.528020    0.511628   -1.335086
  H      0.075125   -2.477118   -0.078608
  H     -0.974138    2.990589    0.155343
  H      4.142203    2.144457   -0.097181
  H      3.737005    0.675534   -1.019430
  H      3.962502    0.590610    0.752583

 Total Charge           Charge          ....    0
 Multiplicity           Mult            ....    1
 Number of Electrons    NEL             ....  114
 Basis Dimension        Dim             ....  206

ORBITAL ENERGIES
----------------

  NO   OCC          E(Eh)            E(eV)
   0   2.0000    -100.645945     -2738.7154
   1   2.0000    -100.643083     -2738.6375
   2   2.0000     -18.806649      -511.7549
   3   2.0000     -18.789356      -511.2844
   4   2.0000     -18.782864      -511.1077
   5   2.0000      -9.964099      -271.1369
   6   2.0000      -9.962431      -271.0915
   7   2.0000      -9.957446      -270.9559
   8   2.0000      -9.951171      -270.7851
   9   2.0000      -9.950292      -270.7612
  10   2.0000      -9.947388      -270.6822
  11   2.0000      -9.935368      -270.3551
  12   2.0000      -9.900003      -269.3928
  13   2.0000      -9.181288      -249.8355
  14   2.0000      -9.178449      -249.7583
  15   2.0000      -7.012818      -190.8285
  16   2.0000      -7.010010      -190.7521
  17   2.0000      -7.001036      -190.5079
  18   2.0000      -7.000776      -190.5008
  19   2.0000      -6.998186      -190.4303
  20   2.0000      -6.997901      -190.4226
  21   2.0000      -0.992899       -27.0182
  22   2.0000      -0.974398       -26.5147
  23   2.0000      -0.952147       -25.9092
  24   2.0000      -0.820174       -22.3181
  25   2.0000      -0.795275       -21.6405
  26   2.0000      -0.750132       -20.4121
  27   2.0000      -0.693840       -18.8804
  28   2.0000      -0.677532       -18.4366
  29   2.0000      -0.627203       -17.0671
  30   2.0000      -0.617011       -16.7897
  31   2.0000      -0.569395       -15.4940
  32   2.0000      -0.539005       -14.6671
  33   2.0000      -0.504275       -13.7220
  34   2.0000      -0.492096       -13.3906
  35   2.0000      -0.467363       -12.7176
  36   2.0000      -0.450912       -12.2699
  37   2.0000      -0.434142       -11.8136
  38   2.0000      -0.422453       -11.4955
  39   2.0000      -0.420001       -11.4288
  40   2.0000      -0.408097       -11.1049
  41   2.0000      -0.385035       -10.4773
  42   2.0000      -0.377649       -10.2763
  43   2.0000      -0.375347       -10.2137
  44   2.0000      -0.362404        -9.8615
  45   2.0000      -0.336477        -9.1560
  46   2.0000      -0.326653        -8.8887
  47   2.0000      -0.321408        -8.7459
  48   2.0000      -0.312184        -8.4950
  49   2.0000      -0.298749        -8.1294
  50   2.0000      -0.293994        -8.0000
  51   2.0000      -0.287004        -7.8098
  52   2.0000      -0.267917        -7.2904
  53   2.0000      -0.257142        -6.9972
  54   2.0000      -0.245940        -6.6924
  55   2.0000      -0.188611        -5.1324
  56   2.0000      -0.179157        -4.8751
  57   0.0000      -0.029556        -0.8043
  58   0.0000      -0.027138        -0.7385
  59   0.0000      -0.016004        -0.4355
  60   0.0000       0.027154         0.7389
  61   0.0000       0.034237         0.9316

MULLIKEN ATOMIC CHARGES
-----------------------
   0 C :   -0.106158
   1 O :   -0.313629
   2 C :    0.173134
   3 C :    0.014958
   4 C :   -0.148714
   5 C :    0.000691
   6 C :    0.160022
   7 C :   -0.004533
   8 O :   -0.313371
   9 O :   -0.255329
  10 C :   -0.108062
  11 Cl:   -0.079197
  12 Cl:   -0.078674
  13 H :    0.118920
  14 H :    0.123169
  15 H :    0.117681
  16 H :    0.029858
  17 H :    0.320915
  18 H :    0.121456
  19 H :    0.112190
  20 H :    0.114674
Sum of atomic charges:    0.0000000

LOEWDIN ATOMIC CHARGES
----------------------
   0 C :   -0.210043
   1 O :   -0.106538
   2 C :   -0.027725
   3 C :   -0.177376
   4 C :   -0.179011
   5 C :   -0.176406
   6 C :   -0.009103
   7 C :    0.001570
   8 O :   -0.215933
   9 O :   -0.076096
  10 C :   -0.212108
  11 Cl:    0.143809
  12 Cl:    0.142240
  13 H :    0.118433
  14 H :    0.109028
  15 H :    0.112530
  16 H :    0.134083
  17 H :    0.295271
  18 H :    0.119811
  19 H :    0.107341
  20 H :    0.106222

  Mayer bond orders larger than 0.100000
B(  0-C ,  1-O ) :   0.9462 B(  0-C , 13-H ) :   0.9551 B(  0-C , 14-H ) :   0.9454
B(  0-C , 15-H ) :   0.9471 B(  1-O ,  2-C ) :   1.1211 B(  2-C ,  3-C ) :   1.3390
B(  2-C ,  7-C ) :   1.3074 B(  3-C ,  4-C ) :   1.3229 B(  3-C , 12-Cl) :   0.9592
B(  4-C ,  5-C ) :   1.3147 B(  4-C , 16-H ) :   0.9779 B(  5-C ,  6-C ) :   1.3556
B(  5-C , 11-Cl) :   0.9615 B(  6-C ,  7-C ) :   1.3262 B(  6-C ,  9-O ) :   1.2291
B(  7-C ,  8-O ) :   1.2974 B(  8-O , 17-H ) :   0.8093 B(  9-O , 10-C ) :   0.9581
B( 10-C , 18-H ) :   0.9552 B( 10-C , 19-H ) :   0.9462 B( 10-C , 20-H ) :   0.9455

Dispersion correction           -0.027630119
FINAL SINGLE POINT ENERGY     -1453.918144396660

DIPOLE MOMENT
-------------

Method             : SCF
Type of density    : Electron Density
Multiplicity       :   1
Irrep              :   0
Energy             : -1453.9878868776868330 Eh
Relativity type    :
Basis              : AO
                                X                 Y                 Z
Electronic contribution:      0.450792320     -10.722097839       1.347989328
Nuclear contribution   :     -0.948921928      11.056461432      -1.625718313
                        -----------------------------------------
Total Dipole Moment    :     -0.498129607       0.334363593      -0.277728985
                        -----------------------------------------
Magnitude (a.u.)       :      0.661109300
Magnitude (Debye)      :      1.680406297

Rotational constants in cm-1:             0.031809             0.014717             0.010137
Rotational constants in MHz :           953.624443           441.206916           303.900090

                             ****ORCA TERMINATED NORMALLY****
TOTAL RUN TIME: 0 days 0 hours 0 minutes 16 seconds 320 msec
