                         Program Version 6.0.0  -   RELEASE  -
|  1> ! pbe def2-sv(p) def2/J RI DEFGRID1 loosescf d4 GCP(DFT/SV(P)) printgap
|  2> %output
|  3>     printlevel normal
|  4> end
|  5> * xyz 0 1
|  6> C 2.0244248786 0.5589715683 -1.0206191247
|  7> C 1.0577318519 -0.1570959029 -0.0821045241
|  8> H 0.6100968172 -1.0004457796 -0.6271745032
|  9> C -0.0470270214 0.7906892691 0.4300510095
| 10> C -1.4899736184 0.3475038235 0.1459958606
| 11> C -1.7785776428 0.2958244641 -1.3532543748
| 12> C -1.826074463 -0.9858594093 0.8120890624
| 13> O 1.8362697298 -0.6805160367 0.9880983857
| 14> H 2.496083799 1.386762509 -0.4974390741
| 15> H 2.8009110148 -0.1300887933 -1.3429687759
| 16> H 1.4921525556 0.9326978089 -1.8897225575
| 17> H 0.0819585478 0.9033527138 1.5092832973
| 18> H 0.1002215978 1.7774193874 -0.0116352085
| 19> H -2.1418963708 1.1123786101 0.5846366117
| 20> H -2.8260086019 0.0602551122 -1.5260053233
| 21> H -1.1748089133 -0.4638628801 -1.8431039585
| 22> H -1.5621247811 1.2560633858 -1.8151255038
| 23> H -1.6448361581 -0.9338919607 1.8832245883
| 24> H -2.8747541574 -1.2276546423 0.6561865072
| 25> H -1.2308755601 -1.794269883 0.3945114082
| 26> H 1.2676620557 -1.2059383741 1.5655845458
| 27> *
| 28>
| 29>                          ****END OF INPUT****

CARTESIAN COORDINATES (ANGSTROEM)
---------------------------------
  C      2.024425    0.558972   -1.020619
  C      1.057732   -0.157096   -0.082105
  H      0.610097   -1.000446   -0.627175
  C     -0.047027    0.790689    0.430051
  C     -1.489974    0.347504    0.145996
  C     -1.778578    0.295824   -1.353254
  C     -1.826074   -0.985859    0.812089
  O      1.836270   -0.680516    0.988098
  H      2.496084    1.386763   -0.497439
  H      2.800911   -0.130089   -1.342969
  H      1.492153    0.932698   -1.889723
  H      0.081959    0.903353    1.509283
  H      0.100222    1.777419   -0.011635
  H     -2.141896    1.112379    0.584637
  H     -2.826009    0.060255   -1.526005
  H     -1.174809   -0.463863   -1.843104
  H     -1.562125    1.256063   -1.815126
  H     -1.644836   -0.933892    1.883225
  H     -2.874754   -1.227655    0.656187
  H     -1.230876   -1.794270    0.394511
  H      1.267662   -1.205938    1.565585

 Total Charge           Charge          ....    0
 Multiplicity           Mult            ....    1
 Number of Electrons    NEL             ....   58
 Basis Dimension        Dim             ....  126

ORBITAL ENERGIES
----------------

  NO   OCC          E(Eh)            E(eV)
   0   2.0000     -18.733154      -509.7550
   1   2.0000      -9.933295      -270.2987
   2   2.0000      -9.897975      -269.3376
   3   2.0000      -9.878609      -268.8106
   4   2.0000      -9.877815      -268.7890
   5   2.0000      -9.875332      -268.7215
   6   2.0000      -9.868724      -268.5416
   7   2.0000      -0.910599       -24.7787
   8   2.0000      -0.733701       -19.9650
   9   2.0000      -0.674695       -18.3594
  10   2.0000      -0.615397       -16.7458
  11   2.0000      -0.608811       -16.5666
  12   2.0000      -0.533117       -14.5069
  13   2.0000      -0.492794       -13.4096
  14   2.0000      -0.462686       -12.5903
  15   2.0000      -0.407252       -11.0819
  16   2.0000      -0.402033       -10.9399
  17   2.0000      -0.395747       -10.7688
  18   2.0000      -0.369786       -10.0624
  19   2.0000      -0.354785        -9.6542
  20   2.0000      -0.340673        -9.2702
  21   2.0000      -0.335698        -9.1348
  22   2.0000      -0.322339        -8.7713
  23   2.0000      -0.312652        -8.5077
  24   2.0000      -0.298273        -8.1164
  25   2.0000      -0.287517        -7.8237
  26   2.0000      -0.279554        -7.6070
  27   2.0000      -0.259408        -7.0589
  28   2.0000      -0.205288        -5.5862
  29   0.0000       0.019297         0.5251
  30   0.0000       0.047344         1.2883
  31   0.0000       0.057369         1.5611
  32   0.0000       0.069568         1.8930
  33   0.0000       0.083415         2.2698

MULLIKEN ATOMIC CHARGES
-----------------------
   0 C :   -0.254420
   1 C :   -0.001827
   2 H :    0.075391
   3 C :   -0.122587
   4 C :   -0.183248
   5 C :   -0.250818
   6 C :   -0.257896
   7 O :   -0.433958
   8 H :    0.104768
   9 H :    0.104631
  10 H :    0.099112
  11 H :    0.078166
  12 H :    0.080233
  13 H :    0.071464
  14 H :    0.099628
  15 H :    0.101365
  16 H :    0.099730
  17 H :    0.095469
  18 H :    0.103474
  19 H :    0.098899
  20 H :    0.292422
Sum of atomic charges:   -0.0000000

LOEWDIN ATOMIC CHARGES
----------------------
   0 C :   -0.339111
   1 C :   -0.055679
   2 H :    0.093565
   3 C :   -0.232110
   4 C :   -0.157262
   5 C :   -0.333090
   6 C :   -0.335364
   7 O :   -0.337503
   8 H :    0.122712
   9 H :    0.122302
  10 H :    0.120392
  11 H :    0.117183
  12 H :    0.117912
  13 H :    0.116272
  14 H :    0.118576
  15 H :    0.115368
  16 H :    0.117750
  17 H :    0.114943
  18 H :    0.120822
  19 H :    0.114515
  20 H :    0.277809

  Mayer bond orders larger than 0.100000
B(  0-C ,  1-C ) :   1.1261 B(  0-C ,  8-H ) :   0.9420 B(  0-C ,  9-H ) :   0.9446
B(  0-C , 10-H ) :   0.9459 B(  1-C ,  2-H ) :   0.9175 B(  1-C ,  3-C ) :   1.0152
B(  1-C ,  7-O ) :   1.0621 B(  3-C ,  4-C ) :   1.0841 B(  3-C , 11-H ) :   0.9120
B(  3-C , 12-H ) :   0.9173 B(  4-C ,  5-C ) :   1.1090 B(  4-C ,  6-C ) :   1.1070
B(  4-C , 13-H ) :   0.8990 B(  5-C , 14-H ) :   0.9494 B(  5-C , 15-H ) :   0.9415
B(  5-C , 16-H ) :   0.9498 B(  6-C , 17-H ) :   0.9513 B(  6-C , 18-H ) :   0.9503
B(  6-C , 19-H ) :   0.9414 B(  7-O , 20-H ) :   0.8535

Dispersion correction           -0.016645849
FINAL SINGLE POINT ENERGY      -311.513184958066

DIPOLE MOMENT
-------------

Method             : SCF
Type of density    : Electron Density
Multiplicity       :   1
Irrep              :   0
Energy             :  -311.5924801973949911 Eh
Relativity type    :
Basis              : AO
                                X                 Y                 Z
Electronic contribution:      3.642536584      -0.711164429       2.745580672
Nuclear contribution   :     -4.294134299       0.621075673      -2.762063487
                        -----------------------------------------
Total Dipole Moment    :     -0.651597715      -0.090088756      -0.016482816
                        -----------------------------------------
Magnitude (a.u.)       :      0.658002469
Magnitude (Debye)      :      1.672509359

Rotational constants in cm-1:             0.124176             0.056292             0.044957
Rotational constants in MHz :          3722.707874          1687.577079          1347.769475

                             ****ORCA TERMINATED NORMALLY****
TOTAL RUN TIME: 0 days 0 hours 0 minutes 10 seconds 83 msec
