                         Program Version 6.0.0  -   RELEASE  -
|  1> ! r2scan-3c def2/J RI DEFGRID2 scfconv6 printgap
|  2> %output
|  3>     printlevel normal
|  4> end
|  5> * xyz 0 1
|  6> C -2.2344760323 -0.8002022811 -0.1689519362
|  7> C -1.4583944432 0.5066499721 -0.2893744941
|  8> C -0.2798652322 0.6143403382 0.6972569312
|  9> C 1.0276243375 0.1535519867 0.1120175882
| 10> C 1.9841832174 1.0153691958 -0.1979750301
| 11> C 1.1909191263 -1.3183509352 -0.1166647
| 12> H -2.6511212502 -0.9004288357 0.831192697
| 13> H -1.5991080556 -1.6593798202 -0.3620516154
| 14> H -3.0549357406 -0.8157594522 -0.8832756149
| 15> H -1.0835347081 0.6227341714 -1.3085576295
| 16> H -2.1479728691 1.3319244289 -0.1005054272
| 17> H -0.1696558729 1.6561127195 1.0029443996
| 18> H -0.5088341121 0.0270460107 1.5893414888
| 19> H 2.9223629272 0.6979216658 -0.6219789818
| 20> H 1.8701877771 2.0751907847 -0.0425693098
| 21> H 0.5793390971 -1.6372106247 -0.9595783894
| 22> H 2.2267654798 -1.5613659078 -0.3388277083
| 23> H 0.8757378229 -1.8788371875 0.7611845748
| 24> *
| 25>
| 26>                          ****END OF INPUT****

CARTESIAN COORDINATES (ANGSTROEM)
---------------------------------
  C     -2.234476   -0.800202   -0.168952
  C     -1.458394    0.506650   -0.289374
  C     -0.279865    0.614340    0.697257
  C      1.027624    0.153552    0.112018
  C      1.984183    1.015369   -0.197975
  C      1.190919   -1.318351   -0.116665
  H     -2.651121   -0.900429    0.831193
  H     -1.599108   -1.659380   -0.362052
  H     -3.054936   -0.815759   -0.883276
  H     -1.083535    0.622734   -1.308558
  H     -2.147973    1.331924   -0.100505
  H     -0.169656    1.656113    1.002944
  H     -0.508834    0.027046    1.589341
  H      2.922363    0.697922   -0.621979
  H      1.870188    2.075191   -0.042569
  H      0.579339   -1.637211   -0.959578
  H      2.226765   -1.561366   -0.338828
  H      0.875738   -1.878837    0.761185

 Total Charge           Charge          ....    0
 Multiplicity           Mult            ....    1
 Number of Electrons    NEL             ....   48
 Basis Dimension        Dim             ....  174

ORBITAL ENERGIES
----------------

  NO   OCC          E(Eh)            E(eV)
   0   2.0000     -10.036880      -273.1174
   1   2.0000     -10.027805      -272.8704
   2   2.0000     -10.026715      -272.8408
   3   2.0000     -10.022919      -272.7375
   4   2.0000     -10.017229      -272.5826
   5   2.0000     -10.007696      -272.3232
   6   2.0000      -0.785855       -21.3842
   7   2.0000      -0.730505       -19.8781
   8   2.0000      -0.658786       -17.9265
   9   2.0000      -0.640756       -17.4359
  10   2.0000      -0.560292       -15.2463
  11   2.0000      -0.490526       -13.3479
  12   2.0000      -0.435996       -11.8641
  13   2.0000      -0.428527       -11.6608
  14   2.0000      -0.402226       -10.9451
  15   2.0000      -0.387295       -10.5388
  16   2.0000      -0.374901       -10.2016
  17   2.0000      -0.358962        -9.7679
  18   2.0000      -0.344457        -9.3732
  19   2.0000      -0.320020        -8.7082
  20   2.0000      -0.309791        -8.4299
  21   2.0000      -0.300769        -8.1843
  22   2.0000      -0.286258        -7.7895
  23   2.0000      -0.221550        -6.0287
  24   0.0000      -0.005078        -0.1382
  25   0.0000       0.086327         2.3491
  26   0.0000       0.106212         2.8902
  27   0.0000       0.115875         3.1531
  28   0.0000       0.124659         3.3921

MULLIKEN ATOMIC CHARGES
-----------------------
   0 C :   -0.480577
   1 C :   -0.250914
   2 C :   -0.229807
   3 C :    0.095579
   4 C :   -0.392425
   5 C :   -0.523268
   6 H :    0.146524
   7 H :    0.146216
   8 H :    0.145337
   9 H :    0.151620
  10 H :    0.142355
  11 H :    0.149304
  12 H :    0.148273
  13 H :    0.138228
  14 H :    0.140348
  15 H :    0.166385
  16 H :    0.149475
  17 H :    0.157347
Sum of atomic charges:   -0.0000000

LOEWDIN ATOMIC CHARGES
----------------------
   0 C :   -0.425519
   1 C :   -0.306190
   2 C :   -0.288163
   3 C :   -0.130010
   4 C :   -0.331497
   5 C :   -0.398050
   6 H :    0.149181
   7 H :    0.149572
   8 H :    0.150743
   9 H :    0.157965
  10 H :    0.153551
  11 H :    0.163042
  12 H :    0.161995
  13 H :    0.155254
  14 H :    0.156794
  15 H :    0.162101
  16 H :    0.159607
  17 H :    0.159622

  Mayer bond orders larger than 0.100000
B(  0-C ,  1-C ) :   0.9132 B(  0-C ,  6-H ) :   0.9845 B(  0-C ,  7-H ) :   0.9744
B(  0-C ,  8-H ) :   0.9730 B(  1-C ,  2-C ) :   0.8355 B(  1-C ,  9-H ) :   0.9769
B(  1-C , 10-H ) :   0.9615 B(  2-C ,  3-C ) :   0.8783 B(  2-C , 11-H ) :   0.9845
B(  2-C , 12-H ) :   0.9887 B(  3-C ,  4-C ) :   1.8880 B(  3-C ,  5-C ) :   0.8692
B(  4-C , 13-H ) :   0.9777 B(  4-C , 14-H ) :   0.9830 B(  5-C , 15-H ) :   0.9767
B(  5-C , 16-H ) :   0.9820 B(  5-C , 17-H ) :   0.9706

Dispersion correction           -0.004609374
FINAL SINGLE POINT ENERGY      -235.758582392219

DIPOLE MOMENT
-------------

Method             : SCF
Type of density    : Electron Density
Multiplicity       :   1
Irrep              :   0
Energy             :  -235.7616733792702917 Eh
Relativity type    :
Basis              : AO
                                X                 Y                 Z
Electronic contribution:      2.359568461       1.786311772       0.416978022
Nuclear contribution   :     -2.571288649      -1.915777756      -0.405925806
                        -----------------------------------------
Total Dipole Moment    :     -0.211720189      -0.129465984       0.011052216
                        -----------------------------------------
Magnitude (a.u.)       :      0.248413024
Magnitude (Debye)      :      0.631415729

Rotational constants in cm-1:             0.197878             0.074447             0.060380
Rotational constants in MHz :          5932.242030          2231.864577          1810.158124

                             ****ORCA TERMINATED NORMALLY****
TOTAL RUN TIME: 0 days 0 hours 0 minutes 19 seconds 96 msec
