                         Program Version 6.0.0  -   RELEASE  -
|  1> ! r2scan-3c def2/J RI DEFGRID2 scfconv6 printgap
|  2> %output
|  3>     printlevel normal
|  4> end
|  5> %cpcm
|  6>     smd true
|  7>     smdsolvent "water"
|  8> end
|  9> * xyz 0 1
| 10> C -2.2344760323 -0.8002022811 -0.1689519362
| 11> C -1.4583944432 0.5066499721 -0.2893744941
| 12> C -0.2798652322 0.6143403382 0.6972569312
| 13> C 1.0276243375 0.1535519867 0.1120175882
| 14> C 1.9841832174 1.0153691958 -0.1979750301
| 15> C 1.1909191263 -1.3183509352 -0.1166647
| 16> H -2.6511212502 -0.9004288357 0.831192697
| 17> H -1.5991080556 -1.6593798202 -0.3620516154
| 18> H -3.0549357406 -0.8157594522 -0.8832756149
| 19> H -1.0835347081 0.6227341714 -1.3085576295
| 20> H -2.1479728691 1.3319244289 -0.1005054272
| 21> H -0.1696558729 1.6561127195 1.0029443996
| 22> H -0.5088341121 0.0270460107 1.5893414888
| 23> H 2.9223629272 0.6979216658 -0.6219789818
| 24> H 1.8701877771 2.0751907847 -0.0425693098
| 25> H 0.5793390971 -1.6372106247 -0.9595783894
| 26> H 2.2267654798 -1.5613659078 -0.3388277083
| 27> H 0.8757378229 -1.8788371875 0.7611845748
| 28> *
| 29>
| 30>                          ****END OF INPUT****

CARTESIAN COORDINATES (ANGSTROEM)
---------------------------------
  C     -2.234476   -0.800202   -0.168952
  C     -1.458394    0.506650   -0.289374
  C     -0.279865    0.614340    0.697257
  C      1.027624    0.153552    0.112018
  C      1.984183    1.015369   -0.197975
  C      1.190919   -1.318351   -0.116665
  H     -2.651121   -0.900429    0.831193
  H     -1.599108   -1.659380   -0.362052
  H     -3.054936   -0.815759   -0.883276
  H     -1.083535    0.622734   -1.308558
  H     -2.147973    1.331924   -0.100505
  H     -0.169656    1.656113    1.002944
  H     -0.508834    0.027046    1.589341
  H      2.922363    0.697922   -0.621979
  H      1.870188    2.075191   -0.042569
  H      0.579339   -1.637211   -0.959578
  H      2.226765   -1.561366   -0.338828
  H      0.875738   -1.878837    0.761185

 Total Charge           Charge          ....    0
 Multiplicity           Mult            ....    1
 Number of Electrons    NEL             ....   48
 Basis Dimension        Dim             ....  174

ORBITAL ENERGIES
----------------

  NO   OCC          E(Eh)            E(eV)
   0   2.0000     -10.036364      -273.1033
   1   2.0000     -10.020322      -272.6668
   2   2.0000     -10.019479      -272.6439
   3   2.0000     -10.014299      -272.5029
   4   2.0000     -10.007635      -272.3216
   5   2.0000     -10.005052      -272.2513
   6   2.0000      -0.781529       -21.2665
   7   2.0000      -0.724064       -19.7028
   8   2.0000      -0.652026       -17.7425
   9   2.0000      -0.635918       -17.3042
  10   2.0000      -0.553184       -15.0529
  11   2.0000      -0.485751       -13.2180
  12   2.0000      -0.429880       -11.6976
  13   2.0000      -0.422253       -11.4901
  14   2.0000      -0.395283       -10.7562
  15   2.0000      -0.379950       -10.3390
  16   2.0000      -0.367985       -10.0134
  17   2.0000      -0.351332        -9.5602
  18   2.0000      -0.336571        -9.1586
  19   2.0000      -0.313823        -8.5395
  20   2.0000      -0.302063        -8.2196
  21   2.0000      -0.293481        -7.9860
  22   2.0000      -0.279323        -7.6008
  23   2.0000      -0.222600        -6.0572
  24   0.0000      -0.005482        -0.1492
  25   0.0000       0.093758         2.5513
  26   0.0000       0.114078         3.1042
  27   0.0000       0.121395         3.3033
  28   0.0000       0.132028         3.5927

MULLIKEN ATOMIC CHARGES
-----------------------
   0 C :   -0.517726
   1 C :   -0.255897
   2 C :   -0.229045
   3 C :    0.067924
   4 C :   -0.474604
   5 C :   -0.545000
   6 H :    0.157958
   7 H :    0.158336
   8 H :    0.154417
   9 H :    0.153022
  10 H :    0.154512
  11 H :    0.161069
  12 H :    0.164104
  13 H :    0.162817
  14 H :    0.164010
  15 H :    0.186197
  16 H :    0.163391
  17 H :    0.174515
Sum of atomic charges:   -0.0000000

LOEWDIN ATOMIC CHARGES
----------------------
   0 C :   -0.432162
   1 C :   -0.306335
   2 C :   -0.291931
   3 C :   -0.130122
   4 C :   -0.364112
   5 C :   -0.404772
   6 H :    0.152264
   7 H :    0.153047
   8 H :    0.152694
   9 H :    0.157753
  10 H :    0.157095
  11 H :    0.166176
  12 H :    0.168104
  13 H :    0.160871
  14 H :    0.162212
  15 H :    0.170064
  16 H :    0.162930
  17 H :    0.166225

  Mayer bond orders larger than 0.100000
B(  0-C ,  1-C ) :   0.9085 B(  0-C ,  6-H ) :   0.9816 B(  0-C ,  7-H ) :   0.9723
B(  0-C ,  8-H ) :   0.9710 B(  1-C ,  2-C ) :   0.8321 B(  1-C ,  9-H ) :   0.9767
B(  1-C , 10-H ) :   0.9620 B(  2-C ,  3-C ) :   0.8719 B(  2-C , 11-H ) :   0.9821
B(  2-C , 12-H ) :   0.9816 B(  3-C ,  4-C ) :   1.8616 B(  3-C ,  5-C ) :   0.8714
B(  4-C , 13-H ) :   0.9773 B(  4-C , 14-H ) :   0.9806 B(  5-C , 15-H ) :   0.9677
B(  5-C , 16-H ) :   0.9786 B(  5-C , 17-H ) :   0.9647

Dispersion correction           -0.004609374
FINAL SINGLE POINT ENERGY      -235.756661706026

DIPOLE MOMENT
-------------

Method             : SCF
Type of density    : Electron Density
Multiplicity       :   1
Irrep              :   0
Energy             :  -235.7597526930773597 Eh
Relativity type    :
Basis              : AO
                                X                 Y                 Z
Electronic contribution:      2.243975783       1.691463917       0.441618315
Nuclear contribution   :     -2.571288649      -1.915777756      -0.405925806
                        -----------------------------------------
Total Dipole Moment    :     -0.327312866      -0.224313839       0.035692508
                        -----------------------------------------
Magnitude (a.u.)       :      0.398402266
Magnitude (Debye)      :      1.012658083

Rotational constants in cm-1:             0.197878             0.074447             0.060380
Rotational constants in MHz :          5932.242030          2231.864577          1810.158124

                             ****ORCA TERMINATED NORMALLY****
TOTAL RUN TIME: 0 days 0 hours 0 minutes 22 seconds 334 msec
