                         Program Version 6.0.0  -   RELEASE  -
|  1> ! pbe def2-sv(p) def2/J RI DEFGRID1 loosescf d4 GCP(DFT/SV(P)) printgap
|  2> %output
|  3>     printlevel normal
|  4> end
|  5> * xyz 0 1
|  6> C -1.7108771884 0.8340753031 -0.9315509891
|  7> C -1.8369132263 -0.0580941306 0.3015841795
|  8> C -2.2240707651 -1.4818744858 -0.0912249172
|  9> C -0.5343171317 -0.0580078486 1.1103653874
| 10> O 0.5605895421 -0.5562625791 0.3322481963
| 11> C 1.5229909931 0.2773602006 -0.0402332083
| 12> O 1.5577249437 1.4527476536 0.2639687528
| 13> C 2.5563997863 -0.4173503978 -0.8768655777
| 14> H -1.373936334 1.8306696543 -0.6531251807
| 15> H -2.6699178434 0.9189699982 -1.4348739244
| 16> H -0.9920568308 0.4139429652 -1.6323687027
| 17> H -2.6072807955 0.3560797927 0.9595625156
| 18> H -3.1416006024 -1.4744319426 -0.6729709345
| 19> H -2.3786873731 -2.0935109774 0.7936959603
| 20> H -1.4353569775 -1.9313593724 -0.6891639341
| 21> H -0.2883008997 0.9538770739 1.4474533401
| 22> H -0.6187299486 -0.7255243338 1.9708290715
| 23> H 2.4551795886 -0.0777972606 -1.9053389609
| 24> H 2.4139640359 -1.4912515514 -0.8277944347
| 25> H 3.5469177151 -0.1389201093 -0.5290418072
| 26> *
| 27>
| 28>                          ****END OF INPUT****

CARTESIAN COORDINATES (ANGSTROEM)
---------------------------------
  C     -1.710877    0.834075   -0.931551
  C     -1.836913   -0.058094    0.301584
  C     -2.224071   -1.481874   -0.091225
  C     -0.534317   -0.058008    1.110365
  O      0.560590   -0.556263    0.332248
  C      1.522991    0.277360   -0.040233
  O      1.557725    1.452748    0.263969
  C      2.556400   -0.417350   -0.876866
  H     -1.373936    1.830670   -0.653125
  H     -2.669918    0.918970   -1.434874
  H     -0.992057    0.413943   -1.632369
  H     -2.607281    0.356080    0.959563
  H     -3.141601   -1.474432   -0.672971
  H     -2.378687   -2.093511    0.793696
  H     -1.435357   -1.931359   -0.689164
  H     -0.288301    0.953877    1.447453
  H     -0.618730   -0.725524    1.970829
  H      2.455180   -0.077797   -1.905339
  H      2.413964   -1.491252   -0.827794
  H      3.546918   -0.138920   -0.529042

 Total Charge           Charge          ....    0
 Multiplicity           Mult            ....    1
 Number of Electrons    NEL             ....   64
 Basis Dimension        Dim             ....  136

ORBITAL ENERGIES
----------------

  NO   OCC          E(Eh)            E(eV)
   0   2.0000     -18.798854      -511.5428
   1   2.0000     -18.729713      -509.6614
   2   2.0000     -10.008755      -272.3521
   3   2.0000      -9.939347      -270.4634
   4   2.0000      -9.904061      -269.5032
   5   2.0000      -9.893784      -269.2235
   6   2.0000      -9.877830      -268.7894
   7   2.0000      -9.877184      -268.7718
   8   2.0000      -1.005111       -27.3505
   9   2.0000      -0.908370       -24.7180
  10   2.0000      -0.737070       -20.0567
  11   2.0000      -0.684177       -18.6174
  12   2.0000      -0.625098       -17.0098
  13   2.0000      -0.615295       -16.7430
  14   2.0000      -0.538717       -14.6592
  15   2.0000      -0.479655       -13.0521
  16   2.0000      -0.445270       -12.1164
  17   2.0000      -0.442277       -12.0350
  18   2.0000      -0.415698       -11.3117
  19   2.0000      -0.404599       -11.0097
  20   2.0000      -0.389004       -10.5853
  21   2.0000      -0.382544       -10.4095
  22   2.0000      -0.359223        -9.7750
  23   2.0000      -0.349168        -9.5013
  24   2.0000      -0.339672        -9.2430
  25   2.0000      -0.334560        -9.1038
  26   2.0000      -0.311452        -8.4750
  27   2.0000      -0.303126        -8.2485
  28   2.0000      -0.296964        -8.0808
  29   2.0000      -0.282158        -7.6779
  30   2.0000      -0.251088        -6.8324
  31   2.0000      -0.218295        -5.9401
  32   0.0000      -0.019898        -0.5415
  33   0.0000       0.032027         0.8715
  34   0.0000       0.049448         1.3456
  35   0.0000       0.078288         2.1303
  36   0.0000       0.083110         2.2615

MULLIKEN ATOMIC CHARGES
-----------------------
   0 C :   -0.256915
   1 C :   -0.197778
   2 C :   -0.248614
   3 C :    0.031533
   4 O :   -0.242878
   5 C :    0.084458
   6 O :   -0.211881
   7 C :   -0.252967
   8 H :    0.112398
   9 H :    0.103134
  10 H :    0.104796
  11 H :    0.083028
  12 H :    0.101799
  13 H :    0.095921
  14 H :    0.105496
  15 H :    0.111724
  16 H :    0.092853
  17 H :    0.135274
  18 H :    0.117312
  19 H :    0.131307
Sum of atomic charges:   -0.0000000

LOEWDIN ATOMIC CHARGES
----------------------
   0 C :   -0.332733
   1 C :   -0.169086
   2 C :   -0.332525
   3 C :   -0.102205
   4 O :   -0.062871
   5 C :    0.029709
   6 O :   -0.175171
   7 C :   -0.359649
   8 H :    0.124284
   9 H :    0.120184
  10 H :    0.118095
  11 H :    0.123014
  12 H :    0.118817
  13 H :    0.117027
  14 H :    0.119965
  15 H :    0.120006
  16 H :    0.114747
  17 H :    0.148913
  18 H :    0.133852
  19 H :    0.145626

  Mayer bond orders larger than 0.100000
B(  0-C ,  1-C ) :   1.1142 B(  0-C ,  8-H ) :   0.9479 B(  0-C ,  9-H ) :   0.9502
B(  0-C , 10-H ) :   0.9432 B(  1-C ,  2-C ) :   1.1054 B(  1-C ,  3-C ) :   1.0791
B(  1-C , 11-H ) :   0.8988 B(  2-C , 12-H ) :   0.9533 B(  2-C , 13-H ) :   0.9512
B(  2-C , 14-H ) :   0.9475 B(  3-C ,  4-O ) :   0.9247 B(  3-C , 15-H ) :   0.8972
B(  3-C , 16-H ) :   0.9294 B(  4-O ,  5-C ) :   1.1979 B(  5-C ,  6-O ) :   2.0492
B(  5-C ,  7-C ) :   1.0794 B(  7-C , 17-H ) :   0.9279 B(  7-C , 18-H ) :   0.9378
B(  7-C , 19-H ) :   0.9334

Dispersion correction           -0.015999751
FINAL SINGLE POINT ENERGY      -385.457581336225

DIPOLE MOMENT
-------------

Method             : SCF
Type of density    : Electron Density
Multiplicity       :   1
Irrep              :   0
Energy             :  -385.5325349546088773 Eh
Relativity type    :
Basis              : AO
                                X                 Y                 Z
Electronic contribution:      6.284567937       2.605285024       2.859503567
Nuclear contribution   :     -6.620009419      -3.232065611      -2.968090652
                        -----------------------------------------
Total Dipole Moment    :     -0.335441482      -0.626780587      -0.108587086
                        -----------------------------------------
Magnitude (a.u.)       :      0.719142578
Magnitude (Debye)      :      1.827915165

Rotational constants in cm-1:             0.118789             0.040648             0.037927
Rotational constants in MHz :          3561.195188          1218.588850          1137.011601

                             ****ORCA TERMINATED NORMALLY****
TOTAL RUN TIME: 0 days 0 hours 0 minutes 12 seconds 549 msec
