                         Program Version 6.0.0  -   RELEASE  -
|  1> ! pbe def2-sv(p) def2/J RI DEFGRID1 loosescf d4 GCP(DFT/SV(P)) printgap
|  2> %output
|  3>     printlevel normal
|  4> end
|  5> * xyz 0 1
|  6> C 1.9001473382 -0.3462372904 0.8621202859
|  7> C 1.5092567595 0.2816367122 -0.4702300196
|  8> C 0.2406297754 -0.2946376841 -1.1046724416
|  9> C -1.0746818059 0.0024391352 -0.3569593122
| 10> H -1.8846863764 0.0023789 -1.108507141
| 11> C -1.422446408 -1.0593153068 0.6890240578
| 12> O -0.9898288137 1.2977206242 0.2129466479
| 13> H 1.2172796347 -0.0363037465 1.647815013
| 14> H 2.9002080191 -0.0236985599 1.1434185357
| 15> H 1.8956684714 -1.4318048805 0.793313693
| 16> H 1.3736027008 1.355580585 -0.3358000757
| 17> H 2.3240721869 0.1326439573 -1.1828570577
| 18> H 0.1593150267 0.1342121854 -2.1055885581
| 19> H 0.3392854919 -1.3756879717 -1.2107115781
| 20> H -2.3891340365 -0.8403434746 1.1388080979
| 21> H -1.4794167694 -2.0344474006 0.2142276087
| 22> H -0.6737425568 -1.0923705602 1.4732849043
| 23> H -1.8089254026 1.4854626658 0.6892375454
| 24> *
| 25>
| 26>                          ****END OF INPUT****

CARTESIAN COORDINATES (ANGSTROEM)
---------------------------------
  C      1.900147   -0.346237    0.862120
  C      1.509257    0.281637   -0.470230
  C      0.240630   -0.294638   -1.104672
  C     -1.074682    0.002439   -0.356959
  H     -1.884686    0.002379   -1.108507
  C     -1.422446   -1.059315    0.689024
  O     -0.989829    1.297721    0.212947
  H      1.217280   -0.036304    1.647815
  H      2.900208   -0.023699    1.143419
  H      1.895668   -1.431805    0.793314
  H      1.373603    1.355581   -0.335800
  H      2.324072    0.132644   -1.182857
  H      0.159315    0.134212   -2.105589
  H      0.339285   -1.375688   -1.210712
  H     -2.389134   -0.840343    1.138808
  H     -1.479417   -2.034447    0.214228
  H     -0.673743   -1.092371    1.473285
  H     -1.808925    1.485463    0.689238

 Total Charge           Charge          ....    0
 Multiplicity           Mult            ....    1
 Number of Electrons    NEL             ....   50
 Basis Dimension        Dim             ....  108

ORBITAL ENERGIES
----------------

  NO   OCC          E(Eh)            E(eV)
   0   2.0000     -18.740347      -509.9508
   1   2.0000      -9.935911      -270.3699
   2   2.0000      -9.877253      -268.7737
   3   2.0000      -9.873952      -268.6839
   4   2.0000      -9.872794      -268.6524
   5   2.0000      -9.864000      -268.4131
   6   2.0000      -0.917586       -24.9688
   7   2.0000      -0.710129       -19.3236
   8   2.0000      -0.662489       -18.0272
   9   2.0000      -0.610492       -16.6123
  10   2.0000      -0.541439       -14.7333
  11   2.0000      -0.498993       -13.5783
  12   2.0000      -0.453773       -12.3478
  13   2.0000      -0.406917       -11.0728
  14   2.0000      -0.398047       -10.8314
  15   2.0000      -0.376002       -10.2315
  16   2.0000      -0.360919        -9.8211
  17   2.0000      -0.342763        -9.3271
  18   2.0000      -0.328178        -8.9302
  19   2.0000      -0.324081        -8.8187
  20   2.0000      -0.294941        -8.0258
  21   2.0000      -0.280377        -7.6294
  22   2.0000      -0.277906        -7.5622
  23   2.0000      -0.258916        -7.0455
  24   2.0000      -0.210846        -5.7374
  25   0.0000       0.019837         0.5398
  26   0.0000       0.062366         1.6971
  27   0.0000       0.069295         1.8856
  28   0.0000       0.077258         2.1023
  29   0.0000       0.085941         2.3386

MULLIKEN ATOMIC CHARGES
-----------------------
   0 C :   -0.291121
   1 C :   -0.171920
   2 C :   -0.159547
   3 C :    0.033743
   4 H :    0.055334
   5 C :   -0.278034
   6 O :   -0.425363
   7 H :    0.116301
   8 H :    0.096506
   9 H :    0.090733
  10 H :    0.101739
  11 H :    0.079348
  12 H :    0.082176
  13 H :    0.078703
  14 H :    0.088430
  15 H :    0.097324
  16 H :    0.110581
  17 H :    0.295066
Sum of atomic charges:    0.0000000

LOEWDIN ATOMIC CHARGES
----------------------
   0 C :   -0.345523
   1 C :   -0.234196
   2 C :   -0.230222
   3 C :   -0.055308
   4 H :    0.094285
   5 C :   -0.357374
   6 O :   -0.330803
   7 H :    0.116512
   8 H :    0.117951
   9 H :    0.112069
  10 H :    0.123117
  11 H :    0.113526
  12 H :    0.119652
  13 H :    0.116166
  14 H :    0.111901
  15 H :    0.122813
  16 H :    0.122999
  17 H :    0.282436

  Mayer bond orders larger than 0.100000
B(  0-C ,  1-C ) :   1.1614 B(  0-C ,  7-H ) :   0.9410 B(  0-C ,  8-H ) :   0.9483
B(  0-C ,  9-H ) :   0.9532 B(  1-C ,  2-C ) :   1.1415 B(  1-C , 10-H ) :   0.9143
B(  1-C , 11-H ) :   0.9264 B(  2-C ,  3-C ) :   1.0652 B(  2-C , 12-H ) :   0.9142
B(  2-C , 13-H ) :   0.9244 B(  3-C ,  4-H ) :   0.9122 B(  3-C ,  5-C ) :   1.1189
B(  3-C ,  6-O ) :   1.0523 B(  5-C , 14-H ) :   0.9440 B(  5-C , 15-H ) :   0.9364
B(  5-C , 16-H ) :   0.9372 B(  6-O , 17-H ) :   0.8515

Dispersion correction           -0.013239787
FINAL SINGLE POINT ENERGY      -272.301402159460

DIPOLE MOMENT
-------------

Method             : SCF
Type of density    : Electron Density
Multiplicity       :   1
Irrep              :   0
Energy             :  -272.3710452365148171 Eh
Relativity type    :
Basis              : AO
                                X                 Y                 Z
Electronic contribution:     -2.334944443       3.248976748      -0.997383493
Nuclear contribution   :      1.836801172      -3.474817499       1.088278729
                        -----------------------------------------
Total Dipole Moment    :     -0.498143271      -0.225840751       0.090895236
                        -----------------------------------------
Magnitude (a.u.)       :      0.554448110
Magnitude (Debye)      :      1.409295098

Rotational constants in cm-1:             0.154060             0.081117             0.074804
Rotational constants in MHz :          4618.614151          2431.831311          2242.574231

                             ****ORCA TERMINATED NORMALLY****
TOTAL RUN TIME: 0 days 0 hours 0 minutes 7 seconds 157 msec
