                         Program Version 6.0.0  -   RELEASE  -
|  1> ! pbe def2-sv(p) def2/J RI DEFGRID1 loosescf d4 GCP(DFT/SV(P)) printgap
|  2> %output
|  3>     printlevel normal
|  4> end
|  5> * xyz 0 1
|  6> C 0.9757163403 -1.2298968976 0.6801298676
|  7> C 1.0765413134 0.2698805543 0.4170557938
|  8> C 1.8264697254 0.5388283473 -0.8870503831
|  9> C -0.2992152235 0.9526002297 0.4398239373
| 10> C -1.3357429493 0.4034577595 -0.5412350409
| 11> O -1.940766587 -0.7565504937 0.0005576613
| 12> H 1.9683914402 -1.6670781554 0.7615048707
| 13> H 0.4441133078 -1.7265050656 -0.1266146778
| 14> H 0.4336957712 -1.4184740856 1.6033733519
| 15> H 1.6561080888 0.7193542616 1.2326469031
| 16> H 1.885685457 1.60700508 -1.0824115742
| 17> H 1.3325601495 0.0598184925 -1.7286274472
| 18> H 2.8375755503 0.144166658 -0.8226470863
| 19> H -0.1616518153 2.0146671046 0.2293241137
| 20> H -0.7251350159 0.8569804743 1.440668101
| 21> H -2.1024564821 1.1733185141 -0.70642418
| 22> H -0.8686729673 0.1733725545 -1.5066270755
| 23> H -2.6311699325 -1.0678586151 -0.5986680351
| 24> *
| 25>
| 26>                          ****END OF INPUT****

CARTESIAN COORDINATES (ANGSTROEM)
---------------------------------
  C      0.975716   -1.229897    0.680130
  C      1.076541    0.269881    0.417056
  C      1.826470    0.538828   -0.887050
  C     -0.299215    0.952600    0.439824
  C     -1.335743    0.403458   -0.541235
  O     -1.940767   -0.756550    0.000558
  H      1.968391   -1.667078    0.761505
  H      0.444113   -1.726505   -0.126615
  H      0.433696   -1.418474    1.603373
  H      1.656108    0.719354    1.232647
  H      1.885685    1.607005   -1.082412
  H      1.332560    0.059818   -1.728627
  H      2.837576    0.144167   -0.822647
  H     -0.161652    2.014667    0.229324
  H     -0.725135    0.856980    1.440668
  H     -2.102456    1.173319   -0.706424
  H     -0.868673    0.173373   -1.506627
  H     -2.631170   -1.067859   -0.598668

 Total Charge           Charge          ....    0
 Multiplicity           Mult            ....    1
 Number of Electrons    NEL             ....   50
 Basis Dimension        Dim             ....  108

ORBITAL ENERGIES
----------------

  NO   OCC          E(Eh)            E(eV)
   0   2.0000     -18.738323      -509.8957
   1   2.0000      -9.927234      -270.1338
   2   2.0000      -9.888016      -269.0666
   3   2.0000      -9.877929      -268.7921
   4   2.0000      -9.868199      -268.5274
   5   2.0000      -9.858724      -268.2695
   6   2.0000      -0.914354       -24.8808
   7   2.0000      -0.723954       -19.6998
   8   2.0000      -0.646081       -17.5808
   9   2.0000      -0.602127       -16.3847
  10   2.0000      -0.556081       -15.1317
  11   2.0000      -0.477853       -13.0030
  12   2.0000      -0.463849       -12.6220
  13   2.0000      -0.427382       -11.6297
  14   2.0000      -0.385952       -10.5023
  15   2.0000      -0.373627       -10.1669
  16   2.0000      -0.360020        -9.7966
  17   2.0000      -0.343372        -9.3436
  18   2.0000      -0.329754        -8.9731
  19   2.0000      -0.313351        -8.5267
  20   2.0000      -0.294584        -8.0161
  21   2.0000      -0.279295        -7.6000
  22   2.0000      -0.275247        -7.4898
  23   2.0000      -0.257002        -6.9934
  24   2.0000      -0.209028        -5.6879
  25   0.0000       0.024352         0.6627
  26   0.0000       0.047695         1.2979
  27   0.0000       0.068800         1.8721
  28   0.0000       0.082604         2.2478
  29   0.0000       0.098422         2.6782

MULLIKEN ATOMIC CHARGES
-----------------------
   0 C :   -0.226899
   1 C :   -0.186913
   2 C :   -0.255215
   3 C :   -0.135083
   4 C :   -0.008461
   5 O :   -0.437222
   6 H :    0.088447
   7 H :    0.097043
   8 H :    0.098858
   9 H :    0.069654
  10 H :    0.093169
  11 H :    0.097053
  12 H :    0.097858
  13 H :    0.079699
  14 H :    0.090761
  15 H :    0.069050
  16 H :    0.072310
  17 H :    0.295890
Sum of atomic charges:    0.0000000

LOEWDIN ATOMIC CHARGES
----------------------
   0 C :   -0.330608
   1 C :   -0.157323
   2 C :   -0.333200
   3 C :   -0.230461
   4 C :   -0.122539
   5 O :   -0.346258
   6 H :    0.111641
   7 H :    0.115950
   8 H :    0.119218
   9 H :    0.113909
  10 H :    0.114340
  11 H :    0.112902
  12 H :    0.118550
  13 H :    0.117852
  14 H :    0.123280
  15 H :    0.095838
  16 H :    0.093262
  17 H :    0.283649

  Mayer bond orders larger than 0.100000
B(  0-C ,  1-C ) :   1.1201 B(  0-C ,  6-H ) :   0.9490 B(  0-C ,  7-H ) :   0.9394
B(  0-C ,  8-H ) :   0.9501 B(  1-C ,  2-C ) :   1.1111 B(  1-C ,  3-C ) :   1.1009
B(  1-C ,  9-H ) :   0.9028 B(  2-C , 10-H ) :   0.9515 B(  2-C , 11-H ) :   0.9431
B(  2-C , 12-H ) :   0.9498 B(  3-C ,  4-C ) :   1.1082 B(  3-C , 13-H ) :   0.9187
B(  3-C , 14-H ) :   0.9104 B(  4-C ,  5-O ) :   1.0597 B(  4-C , 15-H ) :   0.9232
B(  4-C , 16-H ) :   0.9205 B(  5-O , 17-H ) :   0.8527

Dispersion correction           -0.013326048
FINAL SINGLE POINT ENERGY      -272.298218089755

DIPOLE MOMENT
-------------

Method             : SCF
Type of density    : Electron Density
Multiplicity       :   1
Irrep              :   0
Energy             :  -272.3680027113735491 Eh
Relativity type    :
Basis              : AO
                                X                 Y                 Z
Electronic contribution:     -4.050627908      -0.618699187       0.747876665
Nuclear contribution   :      3.788626809       0.803818255      -1.223828743
                        -----------------------------------------
Total Dipole Moment    :     -0.262001099       0.185119067      -0.475952079
                        -----------------------------------------
Magnitude (a.u.)       :      0.573972147
Magnitude (Debye)      :      1.458921256

Rotational constants in cm-1:             0.169972             0.079013             0.066904
Rotational constants in MHz :          5095.619773          2368.754631          2005.730771

                             ****ORCA TERMINATED NORMALLY****
TOTAL RUN TIME: 0 days 0 hours 0 minutes 9 seconds 692 msec
