                         Program Version 6.0.0  -   RELEASE  -
|  1> ! r2scan-3c def2/J RI DEFGRID2 scfconv6 printgap
|  2> %output
|  3>     printlevel normal
|  4> end
|  5> * xyz 0 1
|  6> C -2.7651299064 -1.3089461935 -2.0337458198
|  7> C -3.4871950508 -0.8681367695 -0.7653596217
|  8> C -2.5726324835 -0.8897185561 0.462082859
|  9> H -2.153747857 -1.8957910992 0.5720910213
| 10> C -3.3105369969 -0.5123418203 1.7424938415
| 11> N -1.3956493844 -0.0240308807 0.2638972156
| 12> C -0.147897691 -0.6461561245 0.248531366
| 13> O -0.0339864234 -1.8501684843 0.4052507203
| 14> C 0.9759633145 0.2405242814 0.0372812238
| 15> C 0.8314820723 1.5786890925 -0.1325242509
| 16> N -0.439922514 2.0689571189 -0.0984258606
| 17> C -1.5802626767 1.3258450408 0.0899513549
| 18> O -2.6663237669 1.8749461958 0.0953691386
| 19> C 1.9175513774 2.5645676405 -0.3523926808
| 20> Br 2.6719154198 -0.6203541286 0.0172547055
| 21> H -2.3045247468 -2.2847697966 -1.8912875765
| 22> H -3.4657092056 -1.3728253156 -2.8613663275
| 23> H -1.9835670665 -0.6009000632 -2.3050414728
| 24> H -3.8961600875 0.1342833257 -0.8952622814
| 25> H -4.3142221992 -1.5490585147 -0.563949416
| 26> H -3.7490414978 0.4775269411 1.6525972715
| 27> H -4.1014217278 -1.2335550396 1.9224811617
| 28> H -2.6281078023 -0.5252258561 2.5893454805
| 29> H -0.5893562034 3.0657768972 -0.2224361213
| 30> H 1.7688067058 3.070998717 -1.303904197
| 31> H 2.8884988381 2.0796437355 -0.3579318658
| 32> H 1.8996608904 3.3141547669 0.4360466507
| 33> *
| 34>
| 35>                          ****END OF INPUT****

CARTESIAN COORDINATES (ANGSTROEM)
---------------------------------
  C     -2.765130   -1.308946   -2.033746
  C     -3.487195   -0.868137   -0.765360
  C     -2.572632   -0.889719    0.462083
  H     -2.153748   -1.895791    0.572091
  C     -3.310537   -0.512342    1.742494
  N     -1.395649   -0.024031    0.263897
  C     -0.147898   -0.646156    0.248531
  O     -0.033986   -1.850168    0.405251
  C      0.975963    0.240524    0.037281
  C      0.831482    1.578689   -0.132524
  N     -0.439923    2.068957   -0.098426
  C     -1.580263    1.325845    0.089951
  O     -2.666324    1.874946    0.095369
  C      1.917551    2.564568   -0.352393
  Br     2.671915   -0.620354    0.017255
  H     -2.304525   -2.284770   -1.891288
  H     -3.465709   -1.372825   -2.861366
  H     -1.983567   -0.600900   -2.305041
  H     -3.896160    0.134283   -0.895262
  H     -4.314222   -1.549059   -0.563949
  H     -3.749041    0.477527    1.652597
  H     -4.101422   -1.233555    1.922481
  H     -2.628108   -0.525226    2.589345
  H     -0.589356    3.065777   -0.222436
  H      1.768807    3.070999   -1.303904
  H      2.888499    2.079644   -0.357932
  H      1.899661    3.314155    0.436047

 Total Charge           Charge          ....    0
 Multiplicity           Mult            ....    1
 Number of Electrons    NEL             ....  132
 Basis Dimension        Dim             ....  368

ORBITAL ENERGIES
----------------

  NO   OCC          E(Eh)            E(eV)
   0   2.0000    -482.235373    -13122.2916
   1   2.0000     -62.306548     -1695.4474
   2   2.0000     -56.087158     -1526.2092
   3   2.0000     -56.084312     -1526.1317
   4   2.0000     -56.084156     -1526.1275
   5   2.0000     -18.933356      -515.2028
   6   2.0000     -18.928012      -515.0574
   7   2.0000     -14.239392      -387.4735
   8   2.0000     -14.227824      -387.1588
   9   2.0000     -10.183559      -277.1087
  10   2.0000     -10.152082      -276.2522
  11   2.0000     -10.130944      -275.6770
  12   2.0000     -10.101745      -274.8825
  13   2.0000     -10.076333      -274.1910
  14   2.0000     -10.069070      -273.9933
  15   2.0000     -10.026652      -272.8391
  16   2.0000     -10.019047      -272.6321
  17   2.0000     -10.017039      -272.5775
  18   2.0000      -8.638379      -235.0622
  19   2.0000      -6.446650      -175.4223
  20   2.0000      -6.432033      -175.0245
  21   2.0000      -6.431360      -175.0062
  22   2.0000      -2.544026       -69.2265
  23   2.0000      -2.540446       -69.1291
  24   2.0000      -2.539976       -69.1163
  25   2.0000      -2.529094       -68.8201
  26   2.0000      -2.529077       -68.8197
  27   2.0000      -1.054993       -28.7078
  28   2.0000      -1.015990       -27.6465
  29   2.0000      -0.959075       -26.0977
  30   2.0000      -0.919498       -25.0208
  31   2.0000      -0.814254       -22.1570
  32   2.0000      -0.775048       -21.0901
  33   2.0000      -0.750172       -20.4132
  34   2.0000      -0.709136       -19.2966
  35   2.0000      -0.695509       -18.9258
  36   2.0000      -0.647950       -17.6316
  37   2.0000      -0.630690       -17.1620
  38   2.0000      -0.599805       -16.3215
  39   2.0000      -0.570364       -15.5204
  40   2.0000      -0.552097       -15.0233
  41   2.0000      -0.517575       -14.0839
  42   2.0000      -0.475118       -12.9286
  43   2.0000      -0.458607       -12.4793
  44   2.0000      -0.437311       -11.8999
  45   2.0000      -0.436540       -11.8788
  46   2.0000      -0.416396       -11.3307
  47   2.0000      -0.410567       -11.1721
  48   2.0000      -0.406720       -11.0674
  49   2.0000      -0.403437       -10.9781
  50   2.0000      -0.392286       -10.6747
  51   2.0000      -0.387266       -10.5380
  52   2.0000      -0.382303       -10.4030
  53   2.0000      -0.379546       -10.3280
  54   2.0000      -0.360510        -9.8100
  55   2.0000      -0.338444        -9.2095
  56   2.0000      -0.336546        -9.1579
  57   2.0000      -0.316513        -8.6127
  58   2.0000      -0.309452        -8.4206
  59   2.0000      -0.305567        -8.3149
  60   2.0000      -0.292021        -7.9463
  61   2.0000      -0.269923        -7.3450
  62   2.0000      -0.255732        -6.9588
  63   2.0000      -0.252924        -6.8824
  64   2.0000      -0.235647        -6.4123
  65   2.0000      -0.219570        -5.9748
  66   0.0000      -0.074385        -2.0241
  67   0.0000      -0.034288        -0.9330
  68   0.0000      -0.026306        -0.7158
  69   0.0000       0.038547         1.0489
  70   0.0000       0.063637         1.7316

MULLIKEN ATOMIC CHARGES
-----------------------
   0 C :   -0.505220
   1 C :   -0.290402
   2 C :   -0.062329
   3 H :    0.225648
   4 C :   -0.552451
   5 N :    0.152229
   6 C :    0.223556
   7 O :   -0.434590
   8 C :   -0.154769
   9 C :    0.215379
  10 N :   -0.023233
  11 C :    0.226283
  12 O :   -0.458924
  13 C :   -0.605357
  14 Br:   -0.079958
  15 H :    0.162748
  16 H :    0.151875
  17 H :    0.145198
  18 H :    0.190778
  19 H :    0.148684
  20 H :    0.195027
  21 H :    0.151934
  22 H :    0.155755
  23 H :    0.280956
  24 H :    0.177134
  25 H :    0.187435
  26 H :    0.176615
Sum of atomic charges:    0.0000000

LOEWDIN ATOMIC CHARGES
----------------------
   0 C :   -0.408960
   1 C :   -0.265993
   2 C :    0.042302
   3 H :    0.223307
   4 C :   -0.364660
   5 N :   -0.625919
   6 C :    0.355525
   7 O :   -0.472108
   8 C :   -0.194483
   9 C :    0.155708
  10 N :   -0.517591
  11 C :    0.458908
  12 O :   -0.424854
  13 C :   -0.350886
  14 Br:    0.256654
  15 H :    0.157719
  16 H :    0.152330
  17 H :    0.152868
  18 H :    0.180502
  19 H :    0.160092
  20 H :    0.179136
  21 H :    0.158667
  22 H :    0.160373
  23 H :    0.299080
  24 H :    0.176129
  25 H :    0.180179
  26 H :    0.175976

  Mayer bond orders larger than 0.100000
B(  0-C ,  1-C ) :   0.8567 B(  0-C , 15-H ) :   0.9782 B(  0-C , 16-H ) :   0.9719
B(  0-C , 17-H ) :   0.9826 B(  1-C ,  2-C ) :   0.8877 B(  1-C , 18-H ) :   0.9748
B(  1-C , 19-H ) :   0.9662 B(  2-C ,  3-H ) :   0.9656 B(  2-C ,  4-C ) :   0.8688
B(  2-C ,  5-N ) :   0.8234 B(  4-C , 20-H ) :   0.9735 B(  4-C , 21-H ) :   0.9703
B(  4-C , 22-H ) :   0.9781 B(  5-N ,  6-C ) :   1.0881 B(  5-N , 11-C ) :   1.1588
B(  6-C ,  7-O ) :   1.9193 B(  6-C ,  8-C ) :   0.9632 B(  6-C , 14-Br) :  -0.1277
B(  8-C ,  9-C ) :   1.4739 B(  8-C , 14-Br) :   1.2208 B(  9-C , 10-N ) :   1.1544
B(  9-C , 13-C ) :   0.8446 B( 10-N , 11-C ) :   1.0325 B( 10-N , 23-H ) :   0.9050
B( 11-C , 12-O ) :   1.9082 B( 13-C , 24-H ) :   0.9666 B( 13-C , 25-H ) :   0.9547
B( 13-C , 26-H ) :   0.9673

Dispersion correction           -0.011529732
FINAL SINGLE POINT ENERGY     -3184.787518950993

DIPOLE MOMENT
-------------

Method             : SCF
Type of density    : Electron Density
Multiplicity       :   1
Irrep              :   0
Energy             : -3184.7974536771671410 Eh
Relativity type    :
Basis              : AO
                                X                 Y                 Z
Electronic contribution:     46.431341322      -6.780024672       2.918136735
Nuclear contribution   :    -46.088542312       8.286135551      -3.180901832
                        -----------------------------------------
Total Dipole Moment    :      0.342799010       1.506110879      -0.262765096
                        -----------------------------------------
Magnitude (a.u.)       :      1.566820550
Magnitude (Debye)      :      3.982541341

Rotational constants in cm-1:             0.029783             0.011183             0.009360
Rotational constants in MHz :           892.868453           335.271504           280.614328

                             ****ORCA TERMINATED NORMALLY****
TOTAL RUN TIME: 0 days 0 hours 1 minutes 24 seconds 461 msec
