                         Program Version 6.0.0  -   RELEASE  -
|  1> ! r2scan-3c def2/J RI DEFGRID2 scfconv6 printgap
|  2> %output
|  3>     printlevel normal
|  4> end
|  5> %cpcm
|  6>     smd true
|  7>     smdsolvent "water"
|  8> end
|  9> * xyz 0 1
| 10> C -2.7651299064 -1.3089461935 -2.0337458198
| 11> C -3.4871950508 -0.8681367695 -0.7653596217
| 12> C -2.5726324835 -0.8897185561 0.462082859
| 13> H -2.153747857 -1.8957910992 0.5720910213
| 14> C -3.3105369969 -0.5123418203 1.7424938415
| 15> N -1.3956493844 -0.0240308807 0.2638972156
| 16> C -0.147897691 -0.6461561245 0.248531366
| 17> O -0.0339864234 -1.8501684843 0.4052507203
| 18> C 0.9759633145 0.2405242814 0.0372812238
| 19> C 0.8314820723 1.5786890925 -0.1325242509
| 20> N -0.439922514 2.0689571189 -0.0984258606
| 21> C -1.5802626767 1.3258450408 0.0899513549
| 22> O -2.6663237669 1.8749461958 0.0953691386
| 23> C 1.9175513774 2.5645676405 -0.3523926808
| 24> Br 2.6719154198 -0.6203541286 0.0172547055
| 25> H -2.3045247468 -2.2847697966 -1.8912875765
| 26> H -3.4657092056 -1.3728253156 -2.8613663275
| 27> H -1.9835670665 -0.6009000632 -2.3050414728
| 28> H -3.8961600875 0.1342833257 -0.8952622814
| 29> H -4.3142221992 -1.5490585147 -0.563949416
| 30> H -3.7490414978 0.4775269411 1.6525972715
| 31> H -4.1014217278 -1.2335550396 1.9224811617
| 32> H -2.6281078023 -0.5252258561 2.5893454805
| 33> H -0.5893562034 3.0657768972 -0.2224361213
| 34> H 1.7688067058 3.070998717 -1.303904197
| 35> H 2.8884988381 2.0796437355 -0.3579318658
| 36> H 1.8996608904 3.3141547669 0.4360466507
| 37> *
| 38>
| 39>                          ****END OF INPUT****

CARTESIAN COORDINATES (ANGSTROEM)
---------------------------------
  C     -2.765130   -1.308946   -2.033746
  C     -3.487195   -0.868137   -0.765360
  C     -2.572632   -0.889719    0.462083
  H     -2.153748   -1.895791    0.572091
  C     -3.310537   -0.512342    1.742494
  N     -1.395649   -0.024031    0.263897
  C     -0.147898   -0.646156    0.248531
  O     -0.033986   -1.850168    0.405251
  C      0.975963    0.240524    0.037281
  C      0.831482    1.578689   -0.132524
  N     -0.439923    2.068957   -0.098426
  C     -1.580263    1.325845    0.089951
  O     -2.666324    1.874946    0.095369
  C      1.917551    2.564568   -0.352393
  Br     2.671915   -0.620354    0.017255
  H     -2.304525   -2.284770   -1.891288
  H     -3.465709   -1.372825   -2.861366
  H     -1.983567   -0.600900   -2.305041
  H     -3.896160    0.134283   -0.895262
  H     -4.314222   -1.549059   -0.563949
  H     -3.749041    0.477527    1.652597
  H     -4.101422   -1.233555    1.922481
  H     -2.628108   -0.525226    2.589345
  H     -0.589356    3.065777   -0.222436
  H      1.768807    3.070999   -1.303904
  H      2.888499    2.079644   -0.357932
  H      1.899661    3.314155    0.436047

 Total Charge           Charge          ....    0
 Multiplicity           Mult            ....    1
 Number of Electrons    NEL             ....  132
 Basis Dimension        Dim             ....  368

ORBITAL ENERGIES
----------------

  NO   OCC          E(Eh)            E(eV)
   0   2.0000    -482.234912    -13122.2791
   1   2.0000     -62.306140     -1695.4363
   2   2.0000     -56.086706     -1526.1969
   3   2.0000     -56.083917     -1526.1210
   4   2.0000     -56.083774     -1526.1171
   5   2.0000     -18.937713      -515.3214
   6   2.0000     -18.935737      -515.2676
   7   2.0000     -14.227554      -387.1514
   8   2.0000     -14.226512      -387.1231
   9   2.0000     -10.183876      -277.1174
  10   2.0000     -10.156658      -276.3767
  11   2.0000     -10.121845      -275.4294
  12   2.0000     -10.095191      -274.7041
  13   2.0000     -10.073227      -274.1064
  14   2.0000     -10.040401      -273.2132
  15   2.0000     -10.022171      -272.7171
  16   2.0000     -10.014098      -272.4975
  17   2.0000     -10.011152      -272.4173
  18   2.0000      -8.638030      -235.0528
  19   2.0000      -6.446076      -175.4066
  20   2.0000      -6.431798      -175.0181
  21   2.0000      -6.431137      -175.0001
  22   2.0000      -2.543523       -69.2128
  23   2.0000      -2.540022       -69.1175
  24   2.0000      -2.539560       -69.1050
  25   2.0000      -2.528925       -68.8156
  26   2.0000      -2.528908       -68.8151
  27   2.0000      -1.055429       -28.7197
  28   2.0000      -1.023645       -27.8548
  29   2.0000      -0.952563       -25.9206
  30   2.0000      -0.917167       -24.9574
  31   2.0000      -0.808262       -21.9939
  32   2.0000      -0.768334       -20.9074
  33   2.0000      -0.739140       -20.1130
  34   2.0000      -0.702811       -19.1245
  35   2.0000      -0.686795       -18.6886
  36   2.0000      -0.643316       -17.5055
  37   2.0000      -0.620984       -16.8978
  38   2.0000      -0.593770       -16.1573
  39   2.0000      -0.564703       -15.3663
  40   2.0000      -0.545407       -14.8413
  41   2.0000      -0.506498       -13.7825
  42   2.0000      -0.468635       -12.7522
  43   2.0000      -0.453562       -12.3420
  44   2.0000      -0.439893       -11.9701
  45   2.0000      -0.419218       -11.4075
  46   2.0000      -0.417169       -11.3517
  47   2.0000      -0.405111       -11.0236
  48   2.0000      -0.399713       -10.8768
  49   2.0000      -0.396557       -10.7909
  50   2.0000      -0.384410       -10.4603
  51   2.0000      -0.381611       -10.3842
  52   2.0000      -0.380150       -10.3444
  53   2.0000      -0.372123       -10.1260
  54   2.0000      -0.354442        -9.6449
  55   2.0000      -0.335527        -9.1302
  56   2.0000      -0.326851        -8.8941
  57   2.0000      -0.310739        -8.4556
  58   2.0000      -0.308066        -8.3829
  59   2.0000      -0.302619        -8.2347
  60   2.0000      -0.291471        -7.9313
  61   2.0000      -0.270650        -7.3647
  62   2.0000      -0.259817        -7.0700
  63   2.0000      -0.255899        -6.9634
  64   2.0000      -0.244896        -6.6640
  65   2.0000      -0.216075        -5.8797
  66   0.0000      -0.067307        -1.8315
  67   0.0000      -0.030958        -0.8424
  68   0.0000      -0.026451        -0.7198
  69   0.0000       0.057902         1.5756
  70   0.0000       0.077947         2.1211

MULLIKEN ATOMIC CHARGES
-----------------------
   0 C :   -0.559691
   1 C :   -0.278793
   2 C :   -0.054009
   3 H :    0.224039
   4 C :   -0.581849
   5 N :    0.176539
   6 C :    0.210065
   7 O :   -0.510952
   8 C :   -0.156792
   9 C :    0.242455
  10 N :   -0.024397
  11 C :    0.254785
  12 O :   -0.528830
  13 C :   -0.615448
  14 Br:   -0.110868
  15 H :    0.167028
  16 H :    0.165571
  17 H :    0.166722
  18 H :    0.178578
  19 H :    0.169570
  20 H :    0.184275
  21 H :    0.174181
  22 H :    0.172378
  23 H :    0.337387
  24 H :    0.208818
  25 H :    0.180954
  26 H :    0.208284
Sum of atomic charges:    0.0000000

LOEWDIN ATOMIC CHARGES
----------------------
   0 C :   -0.416945
   1 C :   -0.265195
   2 C :    0.044169
   3 H :    0.222678
   4 C :   -0.368354
   5 N :   -0.614556
   6 C :    0.357153
   7 O :   -0.539561
   8 C :   -0.205158
   9 C :    0.182864
  10 N :   -0.477583
  11 C :    0.466417
  12 O :   -0.475865
  13 C :   -0.344401
  14 Br:    0.236347
  15 H :    0.157104
  16 H :    0.156234
  17 H :    0.158138
  18 H :    0.175962
  19 H :    0.166990
  20 H :    0.174331
  21 H :    0.165658
  22 H :    0.165299
  23 H :    0.317622
  24 H :    0.192441
  25 H :    0.175929
  26 H :    0.192280

  Mayer bond orders larger than 0.100000
B(  0-C ,  1-C ) :   0.8414 B(  0-C , 15-H ) :   0.9797 B(  0-C , 16-H ) :   0.9678
B(  0-C , 17-H ) :   0.9797 B(  1-C ,  2-C ) :   0.8913 B(  1-C , 18-H ) :   0.9749
B(  1-C , 19-H ) :   0.9644 B(  2-C ,  3-H ) :   0.9604 B(  2-C ,  4-C ) :   0.8648
B(  2-C ,  5-N ) :   0.8113 B(  4-C , 20-H ) :   0.9737 B(  4-C , 21-H ) :   0.9672
B(  4-C , 22-H ) :   0.9745 B(  5-N ,  6-C ) :   1.0968 B(  5-N , 11-C ) :   1.1686
B(  6-C ,  7-O ) :   1.8742 B(  6-C ,  8-C ) :   0.9791 B(  8-C ,  9-C ) :   1.4471
B(  8-C , 14-Br) :   1.1433 B(  9-C , 10-N ) :   1.1638 B(  9-C , 13-C ) :   0.8579
B( 10-N , 11-C ) :   1.0560 B( 10-N , 23-H ) :   0.8803 B( 11-C , 12-O ) :   1.8454
B( 13-C , 24-H ) :   0.9461 B( 13-C , 25-H ) :   0.9661 B( 13-C , 26-H ) :   0.9468

Dispersion correction           -0.011529732
FINAL SINGLE POINT ENERGY     -3184.803586162095

DIPOLE MOMENT
-------------

Method             : SCF
Type of density    : Electron Density
Multiplicity       :   1
Irrep              :   0
Energy             : -3184.8135208882690677 Eh
Relativity type    :
Basis              : AO
                                X                 Y                 Z
Electronic contribution:     46.602339474      -5.966507318       2.791220392
Nuclear contribution   :    -46.088542312       8.286135551      -3.180901832
                        -----------------------------------------
Total Dipole Moment    :      0.513797162       2.319628233      -0.389681440
                        -----------------------------------------
Magnitude (a.u.)       :      2.407595126
Magnitude (Debye)      :      6.119620476

Rotational constants in cm-1:             0.029783             0.011183             0.009360
Rotational constants in MHz :           892.868453           335.271504           280.614328

                             ****ORCA TERMINATED NORMALLY****
TOTAL RUN TIME: 0 days 0 hours 1 minutes 44 seconds 365 msec
