                         Program Version 6.0.0  -   RELEASE  -
|  1> ! r2scan-3c def2/J RI DEFGRID2 scfconv6 printgap
|  2> %output
|  3>     printlevel normal
|  4> end
|  5> * xyz 0 1
|  6> C 2.2524862581 0.5341185216 0.295802406
|  7> C 1.3391835298 -0.6865430396 0.2147663506
|  8> C 0.2783512416 -0.5485764236 -0.8848427065
|  9> C -1.0508263851 0.0853173893 -0.4283634372
| 10> H -1.6263917783 0.3448979522 -1.3256928205
| 11> C -1.8789353126 -0.8783261867 0.4224127039
| 12> O -0.8694739465 1.3247905216 0.2343485578
| 13> H 2.855322916 0.6111701974 -0.6066728499
| 14> H 2.9233900941 0.4540150366 1.1482598769
| 15> H 1.6735281114 1.4489429727 0.3903427944
| 16> H 1.9515894219 -1.5662341175 0.0073657812
| 17> H 0.8604335883 -0.8527187564 1.181579165
| 18> H 0.6921765852 0.0573484758 -1.692776282
| 19> H 0.0371190607 -1.5295140078 -1.2960617837
| 20> H -1.3237430581 -1.1953550948 1.3022875418
| 21> H -2.7935850979 -0.3872869234 0.7460305332
| 22> H -2.1406134687 -1.7571320766 -0.159035021
| 23> H -0.5121367565 1.1460478109 1.1154082402
| 24> *
| 25>
| 26>                          ****END OF INPUT****

CARTESIAN COORDINATES (ANGSTROEM)
---------------------------------
  C      2.252486    0.534119    0.295802
  C      1.339184   -0.686543    0.214766
  C      0.278351   -0.548576   -0.884843
  C     -1.050826    0.085317   -0.428363
  H     -1.626392    0.344898   -1.325693
  C     -1.878935   -0.878326    0.422413
  O     -0.869474    1.324791    0.234349
  H      2.855323    0.611170   -0.606673
  H      2.923390    0.454015    1.148260
  H      1.673528    1.448943    0.390343
  H      1.951589   -1.566234    0.007366
  H      0.860434   -0.852719    1.181579
  H      0.692177    0.057348   -1.692776
  H      0.037119   -1.529514   -1.296062
  H     -1.323743   -1.195355    1.302288
  H     -2.793585   -0.387287    0.746031
  H     -2.140613   -1.757132   -0.159035
  H     -0.512137    1.146048    1.115408

 Total Charge           Charge          ....    0
 Multiplicity           Mult            ....    1
 Number of Electrons    NEL             ....   50
 Basis Dimension        Dim             ....  179

ORBITAL ENERGIES
----------------

  NO   OCC          E(Eh)            E(eV)
   0   2.0000     -18.944740      -515.5126
   1   2.0000     -10.080376      -274.3010
   2   2.0000     -10.029358      -272.9127
   3   2.0000     -10.023099      -272.7424
   4   2.0000     -10.020358      -272.6678
   5   2.0000     -10.014333      -272.5039
   6   2.0000      -0.983785       -26.7702
   7   2.0000      -0.762005       -20.7352
   8   2.0000      -0.713879       -19.4256
   9   2.0000      -0.648648       -17.6506
  10   2.0000      -0.588012       -16.0006
  11   2.0000      -0.538467       -14.6524
  12   2.0000      -0.460300       -12.5254
  13   2.0000      -0.440100       -11.9757
  14   2.0000      -0.409932       -11.1548
  15   2.0000      -0.401916       -10.9367
  16   2.0000      -0.381389       -10.3781
  17   2.0000      -0.373754       -10.1704
  18   2.0000      -0.344774        -9.3818
  19   2.0000      -0.334096        -9.0912
  20   2.0000      -0.316540        -8.6135
  21   2.0000      -0.304866        -8.2958
  22   2.0000      -0.300661        -8.1814
  23   2.0000      -0.278663        -7.5828
  24   2.0000      -0.230928        -6.2839
  25   0.0000       0.055386         1.5071
  26   0.0000       0.093348         2.5401
  27   0.0000       0.112185         3.0527
  28   0.0000       0.119479         3.2512
  29   0.0000       0.125261         3.4085

MULLIKEN ATOMIC CHARGES
-----------------------
   0 C :   -0.516738
   1 C :   -0.255941
   2 C :   -0.186933
   3 C :   -0.054093
   4 H :    0.141009
   5 C :   -0.488908
   6 O :   -0.413997
   7 H :    0.145395
   8 H :    0.144817
   9 H :    0.166517
  10 H :    0.145354
  11 H :    0.131089
  12 H :    0.151091
  13 H :    0.140923
  14 H :    0.140760
  15 H :    0.164189
  16 H :    0.145447
  17 H :    0.300019
Sum of atomic charges:    0.0000000

LOEWDIN ATOMIC CHARGES
----------------------
   0 C :   -0.428109
   1 C :   -0.317849
   2 C :   -0.289820
   3 C :    0.041678
   4 H :    0.180211
   5 C :   -0.402138
   6 O :   -0.607823
   7 H :    0.150795
   8 H :    0.148414
   9 H :    0.158663
  10 H :    0.154822
  11 H :    0.147387
  12 H :    0.163895
  13 H :    0.160258
  14 H :    0.151453
  15 H :    0.161797
  16 H :    0.158381
  17 H :    0.267986

  Mayer bond orders larger than 0.100000
B(  0-C ,  1-C ) :   0.9110 B(  0-C ,  7-H ) :   0.9797 B(  0-C ,  8-H ) :   0.9755
B(  0-C ,  9-H ) :   0.9799 B(  1-C ,  2-C ) :   0.8216 B(  1-C , 10-H ) :   0.9582
B(  1-C , 11-H ) :   0.9939 B(  2-C ,  3-C ) :   0.9052 B(  2-C , 12-H ) :   0.9695
B(  2-C , 13-H ) :   0.9717 B(  3-C ,  4-H ) :   0.9591 B(  3-C ,  5-C ) :   0.9698
B(  3-C ,  6-O ) :   0.9537 B(  5-C , 14-H ) :   0.9685 B(  5-C , 15-H ) :   0.9731
B(  5-C , 16-H ) :   0.9703 B(  6-O , 17-H ) :   0.8889

Dispersion correction           -0.004391750
FINAL SINGLE POINT ENERGY      -272.898757867682

DIPOLE MOMENT
-------------

Method             : SCF
Type of density    : Electron Density
Multiplicity       :   1
Irrep              :   0
Energy             :  -272.9041094258637941 Eh
Relativity type    :
Basis              : AO
                                X                 Y                 Z
Electronic contribution:     -2.302560871       2.424773305      -0.588623296
Nuclear contribution   :      2.423591633      -3.006685127       0.764361541
                        -----------------------------------------
Total Dipole Moment    :      0.121030762      -0.581911822       0.175738245
                        -----------------------------------------
Magnitude (a.u.)       :      0.619801376
Magnitude (Debye)      :      1.575409897

Rotational constants in cm-1:             0.180654             0.075998             0.065106
Rotational constants in MHz :          5415.869386          2278.352702          1951.814758

                             ****ORCA TERMINATED NORMALLY****
TOTAL RUN TIME: 0 days 0 hours 0 minutes 20 seconds 657 msec
