                         Program Version 6.0.0  -   RELEASE  -
|  1> ! r2scan-3c def2/J RI DEFGRID2 scfconv6 printgap
|  2> %output
|  3>     printlevel normal
|  4> end
|  5> %cpcm
|  6>     smd true
|  7>     smdsolvent "water"
|  8> end
|  9> * xyz 0 1
| 10> C 2.2524862581 0.5341185216 0.295802406
| 11> C 1.3391835298 -0.6865430396 0.2147663506
| 12> C 0.2783512416 -0.5485764236 -0.8848427065
| 13> C -1.0508263851 0.0853173893 -0.4283634372
| 14> H -1.6263917783 0.3448979522 -1.3256928205
| 15> C -1.8789353126 -0.8783261867 0.4224127039
| 16> O -0.8694739465 1.3247905216 0.2343485578
| 17> H 2.855322916 0.6111701974 -0.6066728499
| 18> H 2.9233900941 0.4540150366 1.1482598769
| 19> H 1.6735281114 1.4489429727 0.3903427944
| 20> H 1.9515894219 -1.5662341175 0.0073657812
| 21> H 0.8604335883 -0.8527187564 1.181579165
| 22> H 0.6921765852 0.0573484758 -1.692776282
| 23> H 0.0371190607 -1.5295140078 -1.2960617837
| 24> H -1.3237430581 -1.1953550948 1.3022875418
| 25> H -2.7935850979 -0.3872869234 0.7460305332
| 26> H -2.1406134687 -1.7571320766 -0.159035021
| 27> H -0.5121367565 1.1460478109 1.1154082402
| 28> *
| 29>
| 30>                          ****END OF INPUT****

CARTESIAN COORDINATES (ANGSTROEM)
---------------------------------
  C      2.252486    0.534119    0.295802
  C      1.339184   -0.686543    0.214766
  C      0.278351   -0.548576   -0.884843
  C     -1.050826    0.085317   -0.428363
  H     -1.626392    0.344898   -1.325693
  C     -1.878935   -0.878326    0.422413
  O     -0.869474    1.324791    0.234349
  H      2.855323    0.611170   -0.606673
  H      2.923390    0.454015    1.148260
  H      1.673528    1.448943    0.390343
  H      1.951589   -1.566234    0.007366
  H      0.860434   -0.852719    1.181579
  H      0.692177    0.057348   -1.692776
  H      0.037119   -1.529514   -1.296062
  H     -1.323743   -1.195355    1.302288
  H     -2.793585   -0.387287    0.746031
  H     -2.140613   -1.757132   -0.159035
  H     -0.512137    1.146048    1.115408

 Total Charge           Charge          ....    0
 Multiplicity           Mult            ....    1
 Number of Electrons    NEL             ....   50
 Basis Dimension        Dim             ....  179

ORBITAL ENERGIES
----------------

  NO   OCC          E(Eh)            E(eV)
   0   2.0000     -18.947935      -515.5995
   1   2.0000     -10.074575      -274.1431
   2   2.0000     -10.017488      -272.5897
   3   2.0000     -10.014034      -272.4957
   4   2.0000     -10.009060      -272.3604
   5   2.0000     -10.006410      -272.2883
   6   2.0000      -0.985779       -26.8244
   7   2.0000      -0.753052       -20.4916
   8   2.0000      -0.705221       -19.1900
   9   2.0000      -0.639721       -17.4077
  10   2.0000      -0.580810       -15.8046
  11   2.0000      -0.531305       -14.4575
  12   2.0000      -0.453522       -12.3410
  13   2.0000      -0.433096       -11.7852
  14   2.0000      -0.403564       -10.9815
  15   2.0000      -0.394421       -10.7327
  16   2.0000      -0.372770       -10.1436
  17   2.0000      -0.366184        -9.9644
  18   2.0000      -0.336801        -9.1648
  19   2.0000      -0.326417        -8.8823
  20   2.0000      -0.312549        -8.5049
  21   2.0000      -0.296491        -8.0679
  22   2.0000      -0.291643        -7.9360
  23   2.0000      -0.273482        -7.4418
  24   2.0000      -0.233087        -6.3426
  25   0.0000       0.071379         1.9423
  26   0.0000       0.104687         2.8487
  27   0.0000       0.123124         3.3504
  28   0.0000       0.130099         3.5402
  29   0.0000       0.133907         3.6438

MULLIKEN ATOMIC CHARGES
-----------------------
   0 C :   -0.552115
   1 C :   -0.245671
   2 C :   -0.243487
   3 C :   -0.023470
   4 H :    0.150060
   5 C :   -0.527310
   6 O :   -0.501931
   7 H :    0.156188
   8 H :    0.154629
   9 H :    0.162254
  10 H :    0.153527
  11 H :    0.153215
  12 H :    0.159078
  13 H :    0.158356
  14 H :    0.164154
  15 H :    0.163005
  16 H :    0.163382
  17 H :    0.356137
Sum of atomic charges:    0.0000000

LOEWDIN ATOMIC CHARGES
----------------------
   0 C :   -0.434839
   1 C :   -0.318582
   2 C :   -0.291622
   3 C :    0.040940
   4 H :    0.182612
   5 C :   -0.405732
   6 O :   -0.645799
   7 H :    0.151752
   8 H :    0.151603
   9 H :    0.155516
  10 H :    0.156578
  11 H :    0.156503
  12 H :    0.163582
  13 H :    0.166765
  14 H :    0.159737
  15 H :    0.160890
  16 H :    0.164097
  17 H :    0.286000

  Mayer bond orders larger than 0.100000
B(  0-C ,  1-C ) :   0.8924 B(  0-C ,  7-H ) :   0.9788 B(  0-C ,  8-H ) :   0.9721
B(  0-C ,  9-H ) :   0.9827 B(  1-C ,  2-C ) :   0.8243 B(  1-C , 10-H ) :   0.9597
B(  1-C , 11-H ) :   0.9851 B(  2-C ,  3-C ) :   0.9099 B(  2-C , 12-H ) :   0.9739
B(  2-C , 13-H ) :   0.9695 B(  3-C ,  4-H ) :   0.9590 B(  3-C ,  5-C ) :   0.9604
B(  3-C ,  6-O ) :   0.9346 B(  5-C , 14-H ) :   0.9656 B(  5-C , 15-H ) :   0.9700
B(  5-C , 16-H ) :   0.9671 B(  6-O , 17-H ) :   0.8622

Dispersion correction           -0.004391750
FINAL SINGLE POINT ENERGY      -272.904924096151

DIPOLE MOMENT
-------------

Method             : SCF
Type of density    : Electron Density
Multiplicity       :   1
Irrep              :   0
Energy             :  -272.9102756543334749 Eh
Relativity type    :
Basis              : AO
                                X                 Y                 Z
Electronic contribution:     -2.251955844       2.150704491      -0.450372864
Nuclear contribution   :      2.423591633      -3.006685127       0.764361541
                        -----------------------------------------
Total Dipole Moment    :      0.171635789      -0.855980636       0.313988677
                        -----------------------------------------
Magnitude (a.u.)       :      0.927766448
Magnitude (Debye)      :      2.358194902

Rotational constants in cm-1:             0.180654             0.075998             0.065106
Rotational constants in MHz :          5415.869386          2278.352702          1951.814758

                             ****ORCA TERMINATED NORMALLY****
TOTAL RUN TIME: 0 days 0 hours 0 minutes 24 seconds 698 msec
