                         Program Version 6.0.0  -   RELEASE  -
|  1> ! r2scan-3c def2/J RI DEFGRID2 scfconv6 printgap
|  2> %output
|  3>     printlevel normal
|  4> end
|  5> * xyz 0 1
|  6> C -1.9188131627 1.2315951172 0.2242731161
|  7> C -1.0842413968 -0.0465696038 0.1528485869
|  8> C -1.9858718001 -1.2419011028 -0.1531230896
|  9> C 0.0376496523 0.0815971365 -0.8966956386
| 10> C 1.469679184 0.0542846626 -0.341259435
| 11> C 1.7339854798 1.211847822 0.61948191
| 12> C 1.7982637184 -1.2846025005 0.3168206531
| 13> H -2.6853104205 1.1450695359 0.9917229762
| 14> H -1.2912905544 2.087040494 0.4621857316
| 15> H -2.4099217829 1.4170960701 -0.7290674886
| 16> H -0.6406490834 -0.2103599579 1.1388799859
| 17> H -1.4088823963 -2.163635601 -0.1633744997
| 18> H -2.7658234424 -1.3347112339 0.5999201731
| 19> H -2.4614975697 -1.1200016557 -1.1242946151
| 20> H -0.0929793544 1.0151909797 -1.4479621709
| 21> H -0.0537514239 -0.7306798682 -1.6208413199
| 22> H 2.1416359671 0.1750698232 -1.2002334497
| 23> H 2.7765257842 1.2123355554 0.9300414473
| 24> H 1.5201144471 2.1629498822 0.1370461791
| 25> H 1.1159018809 1.1305435053 1.5099713485
| 26> H 1.6347119229 -2.1017892655 -0.3821232485
| 27> H 2.8396194469 -1.3048502786 0.6302059359
| 28> H 1.1779878195 -1.4537665869 1.1933133896
| 29> *
| 30>
| 31>                          ****END OF INPUT****

CARTESIAN COORDINATES (ANGSTROEM)
---------------------------------
  C     -1.918813    1.231595    0.224273
  C     -1.084241   -0.046570    0.152849
  C     -1.985872   -1.241901   -0.153123
  C      0.037650    0.081597   -0.896696
  C      1.469679    0.054285   -0.341259
  C      1.733985    1.211848    0.619482
  C      1.798264   -1.284603    0.316821
  H     -2.685310    1.145070    0.991723
  H     -1.291291    2.087040    0.462186
  H     -2.409922    1.417096   -0.729067
  H     -0.640649   -0.210360    1.138880
  H     -1.408882   -2.163636   -0.163374
  H     -2.765823   -1.334711    0.599920
  H     -2.461498   -1.120002   -1.124295
  H     -0.092979    1.015191   -1.447962
  H     -0.053751   -0.730680   -1.620841
  H      2.141636    0.175070   -1.200233
  H      2.776526    1.212336    0.930041
  H      1.520114    2.162950    0.137046
  H      1.115902    1.130544    1.509971
  H      1.634712   -2.101789   -0.382123
  H      2.839619   -1.304850    0.630206
  H      1.177988   -1.453767    1.193313

 Total Charge           Charge          ....    0
 Multiplicity           Mult            ....    1
 Number of Electrons    NEL             ....   58
 Basis Dimension        Dim             ....  213

ORBITAL ENERGIES
----------------

  NO   OCC          E(Eh)            E(eV)
   0   2.0000     -10.030817      -272.9524
   1   2.0000     -10.028801      -272.8976
   2   2.0000     -10.016277      -272.5567
   3   2.0000     -10.012675      -272.4587
   4   2.0000     -10.012575      -272.4560
   5   2.0000     -10.012047      -272.4416
   6   2.0000     -10.011954      -272.4391
   7   2.0000      -0.785523       -21.3752
   8   2.0000      -0.741347       -20.1731
   9   2.0000      -0.650995       -17.7145
  10   2.0000      -0.643675       -17.5153
  11   2.0000      -0.641077       -17.4446
  12   2.0000      -0.547056       -14.8861
  13   2.0000      -0.505341       -13.7510
  14   2.0000      -0.437134       -11.8950
  15   2.0000      -0.414647       -11.2831
  16   2.0000      -0.412498       -11.2247
  17   2.0000      -0.392803       -10.6887
  18   2.0000      -0.384081       -10.4514
  19   2.0000      -0.367480        -9.9996
  20   2.0000      -0.351442        -9.5632
  21   2.0000      -0.346798        -9.4368
  22   2.0000      -0.324816        -8.8387
  23   2.0000      -0.322600        -8.7784
  24   2.0000      -0.308518        -8.3952
  25   2.0000      -0.299825        -8.1586
  26   2.0000      -0.281715        -7.6659
  27   2.0000      -0.276515        -7.5243
  28   2.0000      -0.269339        -7.3291
  29   0.0000       0.076178         2.0729
  30   0.0000       0.101374         2.7585
  31   0.0000       0.115228         3.1355
  32   0.0000       0.117868         3.2073
  33   0.0000       0.128839         3.5059

MULLIKEN ATOMIC CHARGES
-----------------------
   0 C :   -0.518748
   1 C :    0.019865
   2 C :   -0.514750
   3 C :   -0.357072
   4 C :   -0.028081
   5 C :   -0.499036
   6 C :   -0.495325
   7 H :    0.143044
   8 H :    0.151630
   9 H :    0.152047
  10 H :    0.150401
  11 H :    0.150004
  12 H :    0.142301
  13 H :    0.151875
  14 H :    0.158650
  15 H :    0.158430
  16 H :    0.145301
  17 H :    0.144938
  18 H :    0.150653
  19 H :    0.150880
  20 H :    0.149341
  21 H :    0.144999
  22 H :    0.148652
Sum of atomic charges:    0.0000000

LOEWDIN ATOMIC CHARGES
----------------------
   0 C :   -0.417549
   1 C :   -0.250962
   2 C :   -0.417392
   3 C :   -0.296304
   4 C :   -0.242495
   5 C :   -0.418586
   6 C :   -0.418491
   7 H :    0.151242
   8 H :    0.153143
   9 H :    0.152888
  10 H :    0.153269
  11 H :    0.152580
  12 H :    0.151185
  13 H :    0.153161
  14 H :    0.161400
  15 H :    0.161096
  16 H :    0.154798
  17 H :    0.152971
  18 H :    0.153663
  19 H :    0.152192
  20 H :    0.153605
  21 H :    0.153029
  22 H :    0.151556

  Mayer bond orders larger than 0.100000
B(  0-C ,  1-C ) :   0.8848 B(  0-C ,  7-H ) :   0.9774 B(  0-C ,  8-H ) :   0.9762
B(  0-C ,  9-H ) :   0.9898 B(  1-C ,  2-C ) :   0.8832 B(  1-C ,  3-C ) :   0.7824
B(  1-C , 10-H ) :   0.9715 B(  2-C , 11-H ) :   0.9787 B(  2-C , 12-H ) :   0.9771
B(  2-C , 13-H ) :   0.9889 B(  3-C ,  4-C ) :   0.8889 B(  3-C , 14-H ) :   0.9871
B(  3-C , 15-H ) :   0.9919 B(  4-C ,  5-C ) :   0.9047 B(  4-C ,  6-C ) :   0.9180
B(  4-C , 16-H ) :   0.9728 B(  5-C , 17-H ) :   0.9713 B(  5-C , 18-H ) :   0.9775
B(  5-C , 19-H ) :   0.9759 B(  6-C , 20-H ) :   0.9775 B(  6-C , 21-H ) :   0.9720
B(  6-C , 22-H ) :   0.9764

Dispersion correction           -0.006506873
FINAL SINGLE POINT ENERGY      -276.284810372663

DIPOLE MOMENT
-------------

Method             : SCF
Type of density    : Electron Density
Multiplicity       :   1
Irrep              :   0
Energy             :  -276.2893828199015047 Eh
Relativity type    :
Basis              : AO
                                X                 Y                 Z
Electronic contribution:      0.624418501       0.071267549      -0.883723781
Nuclear contribution   :     -0.566282460      -0.069891715       0.868165563
                        -----------------------------------------
Total Dipole Moment    :      0.058136041       0.001375833      -0.015558218
                        -----------------------------------------
Magnitude (a.u.)       :      0.060197594
Magnitude (Debye)      :      0.153010124

Rotational constants in cm-1:             0.119872             0.056494             0.044883
Rotational constants in MHz :          3593.680788          1693.657660          1345.573362

                             ****ORCA TERMINATED NORMALLY****
TOTAL RUN TIME: 0 days 0 hours 0 minutes 26 seconds 833 msec
