                         Program Version 6.0.0  -   RELEASE  -
|  1> ! r2scan-3c def2/J RI DEFGRID2 scfconv6 printgap
|  2> %output
|  3>     printlevel normal
|  4> end
|  5> %cpcm
|  6>     smd true
|  7>     smdsolvent "water"
|  8> end
|  9> * xyz 0 1
| 10> C -1.9188131627 1.2315951172 0.2242731161
| 11> C -1.0842413968 -0.0465696038 0.1528485869
| 12> C -1.9858718001 -1.2419011028 -0.1531230896
| 13> C 0.0376496523 0.0815971365 -0.8966956386
| 14> C 1.469679184 0.0542846626 -0.341259435
| 15> C 1.7339854798 1.211847822 0.61948191
| 16> C 1.7982637184 -1.2846025005 0.3168206531
| 17> H -2.6853104205 1.1450695359 0.9917229762
| 18> H -1.2912905544 2.087040494 0.4621857316
| 19> H -2.4099217829 1.4170960701 -0.7290674886
| 20> H -0.6406490834 -0.2103599579 1.1388799859
| 21> H -1.4088823963 -2.163635601 -0.1633744997
| 22> H -2.7658234424 -1.3347112339 0.5999201731
| 23> H -2.4614975697 -1.1200016557 -1.1242946151
| 24> H -0.0929793544 1.0151909797 -1.4479621709
| 25> H -0.0537514239 -0.7306798682 -1.6208413199
| 26> H 2.1416359671 0.1750698232 -1.2002334497
| 27> H 2.7765257842 1.2123355554 0.9300414473
| 28> H 1.5201144471 2.1629498822 0.1370461791
| 29> H 1.1159018809 1.1305435053 1.5099713485
| 30> H 1.6347119229 -2.1017892655 -0.3821232485
| 31> H 2.8396194469 -1.3048502786 0.6302059359
| 32> H 1.1779878195 -1.4537665869 1.1933133896
| 33> *
| 34>
| 35>                          ****END OF INPUT****

CARTESIAN COORDINATES (ANGSTROEM)
---------------------------------
  C     -1.918813    1.231595    0.224273
  C     -1.084241   -0.046570    0.152849
  C     -1.985872   -1.241901   -0.153123
  C      0.037650    0.081597   -0.896696
  C      1.469679    0.054285   -0.341259
  C      1.733985    1.211848    0.619482
  C      1.798264   -1.284603    0.316821
  H     -2.685310    1.145070    0.991723
  H     -1.291291    2.087040    0.462186
  H     -2.409922    1.417096   -0.729067
  H     -0.640649   -0.210360    1.138880
  H     -1.408882   -2.163636   -0.163374
  H     -2.765823   -1.334711    0.599920
  H     -2.461498   -1.120002   -1.124295
  H     -0.092979    1.015191   -1.447962
  H     -0.053751   -0.730680   -1.620841
  H      2.141636    0.175070   -1.200233
  H      2.776526    1.212336    0.930041
  H      1.520114    2.162950    0.137046
  H      1.115902    1.130544    1.509971
  H      1.634712   -2.101789   -0.382123
  H      2.839619   -1.304850    0.630206
  H      1.177988   -1.453767    1.193313

 Total Charge           Charge          ....    0
 Multiplicity           Mult            ....    1
 Number of Electrons    NEL             ....   58
 Basis Dimension        Dim             ....  213

ORBITAL ENERGIES
----------------

  NO   OCC          E(Eh)            E(eV)
   0   2.0000     -10.023104      -272.7425
   1   2.0000     -10.020916      -272.6830
   2   2.0000     -10.008292      -272.3395
   3   2.0000     -10.004829      -272.2452
   4   2.0000     -10.004726      -272.2424
   5   2.0000     -10.004518      -272.2368
   6   2.0000     -10.004477      -272.2357
   7   2.0000      -0.777784       -21.1646
   8   2.0000      -0.733875       -19.9698
   9   2.0000      -0.643894       -17.5212
  10   2.0000      -0.636773       -17.3275
  11   2.0000      -0.633726       -17.2446
  12   2.0000      -0.539632       -14.6841
  13   2.0000      -0.497789       -13.5455
  14   2.0000      -0.429483       -11.6868
  15   2.0000      -0.407065       -11.0768
  16   2.0000      -0.404937       -11.0189
  17   2.0000      -0.385665       -10.4945
  18   2.0000      -0.376521       -10.2456
  19   2.0000      -0.360116        -9.7992
  20   2.0000      -0.344390        -9.3713
  21   2.0000      -0.339064        -9.2264
  22   2.0000      -0.317360        -8.6358
  23   2.0000      -0.314842        -8.5673
  24   2.0000      -0.300711        -8.1828
  25   2.0000      -0.292629        -7.9628
  26   2.0000      -0.274203        -7.4614
  27   2.0000      -0.268588        -7.3087
  28   2.0000      -0.261495        -7.1156
  29   0.0000       0.084483         2.2989
  30   0.0000       0.109211         2.9718
  31   0.0000       0.124126         3.3777
  32   0.0000       0.124459         3.3867
  33   0.0000       0.135703         3.6927

MULLIKEN ATOMIC CHARGES
-----------------------
   0 C :   -0.558377
   1 C :    0.029249
   2 C :   -0.553832
   3 C :   -0.370427
   4 C :   -0.010786
   5 C :   -0.541151
   6 C :   -0.539694
   7 H :    0.153608
   8 H :    0.159315
   9 H :    0.161721
  10 H :    0.164675
  11 H :    0.158246
  12 H :    0.152823
  13 H :    0.161246
  14 H :    0.164329
  15 H :    0.163899
  16 H :    0.150763
  17 H :    0.155565
  18 H :    0.160215
  19 H :    0.162512
  20 H :    0.159231
  21 H :    0.155739
  22 H :    0.161130
Sum of atomic charges:    0.0000000

LOEWDIN ATOMIC CHARGES
----------------------
   0 C :   -0.425905
   1 C :   -0.249617
   2 C :   -0.425817
   3 C :   -0.299013
   4 C :   -0.240653
   5 C :   -0.426963
   6 C :   -0.427189
   7 H :    0.153191
   8 H :    0.154707
   9 H :    0.154889
  10 H :    0.157505
  11 H :    0.154318
  12 H :    0.153127
  13 H :    0.155054
  14 H :    0.162630
  15 H :    0.162331
  16 H :    0.156288
  17 H :    0.154928
  18 H :    0.155864
  19 H :    0.154994
  20 H :    0.155769
  21 H :    0.155077
  22 H :    0.154485

  Mayer bond orders larger than 0.100000
B(  0-C ,  1-C ) :   0.8772 B(  0-C ,  7-H ) :   0.9763 B(  0-C ,  8-H ) :   0.9741
B(  0-C ,  9-H ) :   0.9873 B(  1-C ,  2-C ) :   0.8757 B(  1-C ,  3-C ) :   0.7796
B(  1-C , 10-H ) :   0.9712 B(  2-C , 11-H ) :   0.9760 B(  2-C , 12-H ) :   0.9762
B(  2-C , 13-H ) :   0.9863 B(  3-C ,  4-C ) :   0.8868 B(  3-C , 14-H ) :   0.9861
B(  3-C , 15-H ) :   0.9908 B(  4-C ,  5-C ) :   0.8971 B(  4-C ,  6-C ) :   0.9090
B(  4-C , 16-H ) :   0.9739 B(  5-C , 17-H ) :   0.9698 B(  5-C , 18-H ) :   0.9744
B(  5-C , 19-H ) :   0.9746 B(  6-C , 20-H ) :   0.9746 B(  6-C , 21-H ) :   0.9704
B(  6-C , 22-H ) :   0.9751

Dispersion correction           -0.006506873
FINAL SINGLE POINT ENERGY      -276.281005565910

DIPOLE MOMENT
-------------

Method             : SCF
Type of density    : Electron Density
Multiplicity       :   1
Irrep              :   0
Energy             :  -276.2855780131483243 Eh
Relativity type    :
Basis              : AO
                                X                 Y                 Z
Electronic contribution:      0.638879392       0.069964511      -0.876854066
Nuclear contribution   :     -0.566282460      -0.069891715       0.868165563
                        -----------------------------------------
Total Dipole Moment    :      0.072596932       0.000072795      -0.008688503
                        -----------------------------------------
Magnitude (a.u.)       :      0.073115045
Magnitude (Debye)      :      0.185843676

Rotational constants in cm-1:             0.119872             0.056494             0.044883
Rotational constants in MHz :          3593.680788          1693.657660          1345.573362

                             ****ORCA TERMINATED NORMALLY****
TOTAL RUN TIME: 0 days 0 hours 0 minutes 28 seconds 833 msec
