                         Program Version 6.0.0  -   RELEASE  -
|  1> ! r2scan-3c def2/J RI DEFGRID2 scfconv6 printgap
|  2> %output
|  3>     printlevel normal
|  4> end
|  5> * xyz 0 1
|  6> C 2.8163197695 0.2167916159 0.1530458182
|  7> C 1.4835336808 -0.3612709976 -0.3095845141
|  8> C 0.3066315573 0.4693934343 0.198714559
|  9> C -1.0552379186 0.0107273304 -0.334919412
| 10> C -2.1292384326 1.0331299332 0.0358100494
| 11> C -1.4422683171 -1.3648699398 0.2041077367
| 12> H 3.6430558849 -0.3882013437 -0.2113668399
| 13> H 2.942568173 1.2312268573 -0.2188453564
| 14> H 2.8621967177 0.2430903641 1.2395013297
| 15> H 1.4597912518 -0.3883080971 -1.4016404109
| 16> H 1.397671362 -1.3873357728 0.0511978325
| 17> H 0.2905391316 0.4416718156 1.290988193
| 18> H 0.4641329829 1.5087897206 -0.1009469116
| 19> H -0.9955390176 -0.0478317807 -1.4280661636
| 20> H -1.887204674 2.0118308798 -0.3722936069
| 21> H -2.2074067159 1.1218797305 1.1173688411
| 22> H -3.0975875273 0.728840796 -0.3542921361
| 23> H -1.4620021219 -1.351770189 1.2918516866
| 24> H -2.4307426263 -1.6445743376 -0.1532944111
| 25> H -0.7380413455 -2.1258007866 -0.1206449954
| 26> *
| 27>
| 28>                          ****END OF INPUT****

CARTESIAN COORDINATES (ANGSTROEM)
---------------------------------
  C      2.816320    0.216792    0.153046
  C      1.483534   -0.361271   -0.309585
  C      0.306632    0.469393    0.198715
  C     -1.055238    0.010727   -0.334919
  C     -2.129238    1.033130    0.035810
  C     -1.442268   -1.364870    0.204108
  H      3.643056   -0.388201   -0.211367
  H      2.942568    1.231227   -0.218845
  H      2.862197    0.243090    1.239501
  H      1.459791   -0.388308   -1.401640
  H      1.397671   -1.387336    0.051198
  H      0.290539    0.441672    1.290988
  H      0.464133    1.508790   -0.100947
  H     -0.995539   -0.047832   -1.428066
  H     -1.887205    2.011831   -0.372294
  H     -2.207407    1.121880    1.117369
  H     -3.097588    0.728841   -0.354292
  H     -1.462002   -1.351770    1.291852
  H     -2.430743   -1.644574   -0.153294
  H     -0.738041   -2.125801   -0.120645

 Total Charge           Charge          ....    0
 Multiplicity           Mult            ....    1
 Number of Electrons    NEL             ....   50
 Basis Dimension        Dim             ....  184

ORBITAL ENERGIES
----------------

  NO   OCC          E(Eh)            E(eV)
   0   2.0000     -10.029201      -272.9084
   1   2.0000     -10.020960      -272.6842
   2   2.0000     -10.017911      -272.6012
   3   2.0000     -10.013493      -272.4810
   4   2.0000     -10.011862      -272.4366
   5   2.0000     -10.011561      -272.4284
   6   2.0000      -0.779011       -21.1980
   7   2.0000      -0.727677       -19.8011
   8   2.0000      -0.646822       -17.6009
   9   2.0000      -0.639669       -17.4063
  10   2.0000      -0.556324       -15.1384
  11   2.0000      -0.522063       -14.2061
  12   2.0000      -0.440500       -11.9866
  13   2.0000      -0.414583       -11.2814
  14   2.0000      -0.407263       -11.0822
  15   2.0000      -0.385539       -10.4910
  16   2.0000      -0.364299        -9.9131
  17   2.0000      -0.350559        -9.5392
  18   2.0000      -0.346453        -9.4275
  19   2.0000      -0.330928        -9.0050
  20   2.0000      -0.314627        -8.5614
  21   2.0000      -0.301030        -8.1914
  22   2.0000      -0.287845        -7.8327
  23   2.0000      -0.283584        -7.7167
  24   2.0000      -0.275015        -7.4835
  25   0.0000       0.089680         2.4403
  26   0.0000       0.103554         2.8179
  27   0.0000       0.122105         3.3227
  28   0.0000       0.132663         3.6099
  29   0.0000       0.134173         3.6510

MULLIKEN ATOMIC CHARGES
-----------------------
   0 C :   -0.471626
   1 C :   -0.259108
   2 C :   -0.282527
   3 C :   -0.003381
   4 C :   -0.475449
   5 C :   -0.508017
   6 H :    0.145516
   7 H :    0.142227
   8 H :    0.140787
   9 H :    0.139700
  10 H :    0.140282
  11 H :    0.139959
  12 H :    0.136506
  13 H :    0.139005
  14 H :    0.144368
  15 H :    0.143870
  16 H :    0.145849
  17 H :    0.148948
  18 H :    0.143589
  19 H :    0.149503
Sum of atomic charges:   -0.0000000

LOEWDIN ATOMIC CHARGES
----------------------
   0 C :   -0.424859
   1 C :   -0.315717
   2 C :   -0.306768
   3 C :   -0.248853
   4 C :   -0.418223
   5 C :   -0.418348
   6 H :    0.149303
   7 H :    0.149117
   8 H :    0.149648
   9 H :    0.151377
  10 H :    0.150970
  11 H :    0.156366
  12 H :    0.156393
  13 H :    0.154078
  14 H :    0.151982
  15 H :    0.153411
  16 H :    0.151582
  17 H :    0.153316
  18 H :    0.152864
  19 H :    0.152360

  Mayer bond orders larger than 0.100000
B(  0-C ,  1-C ) :   0.9023 B(  0-C ,  6-H ) :   0.9750 B(  0-C ,  7-H ) :   0.9864
B(  0-C ,  8-H ) :   0.9818 B(  1-C ,  2-C ) :   0.9133 B(  1-C ,  9-H ) :   0.9813
B(  1-C , 10-H ) :   0.9693 B(  2-C ,  3-C ) :   0.9025 B(  2-C , 11-H ) :   0.9764
B(  2-C , 12-H ) :   0.9818 B(  3-C ,  4-C ) :   0.9108 B(  3-C ,  5-C ) :   0.8944
B(  3-C , 13-H ) :   0.9642 B(  4-C , 14-H ) :   0.9793 B(  4-C , 15-H ) :   0.9841
B(  4-C , 16-H ) :   0.9779 B(  5-C , 17-H ) :   0.9870 B(  5-C , 18-H ) :   0.9718
B(  5-C , 19-H ) :   0.9763

Dispersion correction           -0.004877792
FINAL SINGLE POINT ENERGY      -236.988650019860

DIPOLE MOMENT
-------------

Method             : SCF
Type of density    : Electron Density
Multiplicity       :   1
Irrep              :   0
Energy             :  -236.9931812353812006 Eh
Relativity type    :
Basis              : AO
                                X                 Y                 Z
Electronic contribution:     -0.214973718       0.033366262      -0.631896412
Nuclear contribution   :      0.226501637      -0.043617124       0.590588457
                        -----------------------------------------
Total Dipole Moment    :      0.011527919      -0.010250862      -0.041307956
                        -----------------------------------------
Magnitude (a.u.)       :      0.044094448
Magnitude (Debye)      :      0.112079179

Rotational constants in cm-1:             0.222709             0.057604             0.049645
Rotational constants in MHz :          6676.661351          1726.937009          1488.308455

                             ****ORCA TERMINATED NORMALLY****
TOTAL RUN TIME: 0 days 0 hours 0 minutes 16 seconds 760 msec
