                         Program Version 6.0.0  -   RELEASE  -
|  1> ! r2scan-3c def2/J RI DEFGRID2 scfconv6 printgap
|  2> %output
|  3>     printlevel normal
|  4> end
|  5> * xyz 0 1
|  6> C -4.201054844 1.4517113648 0.1881667161
|  7> C -3.4791722193 0.1292004967 0.016805555
|  8> O -2.0669419226 0.3809735407 0.0475019529
|  9> C -1.2591198825 -0.6708306307 -0.0860130243
| 10> O -1.6853628213 -1.8064174894 -0.2296156223
| 11> C 0.1672695547 -0.3208516695 -0.0419082701
| 12> C 0.5972203399 0.9959034875 0.1228650799
| 13> C 1.943676787 1.2873890712 0.1603784573
| 14> C 2.8878980257 0.267755402 0.0339897522
| 15> C 2.4592775989 -1.0518978149 -0.1315135995
| 16> C 1.115051375 -1.3393608071 -0.1686299567
| 17> O 4.2133242364 0.5011344345 0.0648714206
| 18> H -5.2721585775 1.2806331519 0.1653798232
| 19> H -3.9296944596 1.9030330472 1.1378292192
| 20> H -3.9287503676 2.1304487475 -0.6145437635
| 21> H -3.725305078 -0.3485639287 -0.9377678614
| 22> H -3.723092118 -0.5752131484 0.8195353705
| 23> H -0.1336710549 1.7821372011 0.2203653254
| 24> H 2.2677610005 2.3092382738 0.2881229669
| 25> H 3.2014883884 -1.8276210923 -0.2277848742
| 26> H 0.7669332758 -2.3530244043 -0.2957135322
| 27> H 4.4049168036 1.4454661697 0.1838188882
| 28> *
| 29>
| 30>                          ****END OF INPUT****

CARTESIAN COORDINATES (ANGSTROEM)
---------------------------------
  C     -4.201055    1.451711    0.188167
  C     -3.479172    0.129200    0.016806
  O     -2.066942    0.380974    0.047502
  C     -1.259120   -0.670831   -0.086013
  O     -1.685363   -1.806417   -0.229616
  C      0.167270   -0.320852   -0.041908
  C      0.597220    0.995903    0.122865
  C      1.943677    1.287389    0.160378
  C      2.887898    0.267755    0.033990
  C      2.459278   -1.051898   -0.131514
  C      1.115051   -1.339361   -0.168630
  O      4.213324    0.501134    0.064871
  H     -5.272159    1.280633    0.165380
  H     -3.929694    1.903033    1.137829
  H     -3.928750    2.130449   -0.614544
  H     -3.725305   -0.348564   -0.937768
  H     -3.723092   -0.575213    0.819535
  H     -0.133671    1.782137    0.220365
  H      2.267761    2.309238    0.288123
  H      3.201488   -1.827621   -0.227785
  H      0.766933   -2.353024   -0.295714
  H      4.404917    1.445466    0.183819

 Total Charge           Charge          ....    0
 Multiplicity           Mult            ....    1
 Number of Electrons    NEL             ....   88
 Basis Dimension        Dim             ....  293

ORBITAL ENERGIES
----------------

  NO   OCC          E(Eh)            E(eV)
   0   2.0000     -19.002334      -517.0798
   1   2.0000     -18.993391      -516.8364
   2   2.0000     -18.922128      -514.8973
   3   2.0000     -10.149546      -276.1832
   4   2.0000     -10.113753      -275.2092
   5   2.0000     -10.089597      -274.5519
   6   2.0000     -10.050330      -273.4834
   7   2.0000     -10.046756      -273.3861
   8   2.0000     -10.046654      -273.3833
   9   2.0000     -10.046336      -273.3747
  10   2.0000     -10.040826      -273.2248
  11   2.0000     -10.031005      -272.9575
  12   2.0000      -1.067442       -29.0466
  13   2.0000      -1.049155       -28.5489
  14   2.0000      -0.968096       -26.3432
  15   2.0000      -0.836132       -22.7523
  16   2.0000      -0.754551       -20.5324
  17   2.0000      -0.731650       -19.9092
  18   2.0000      -0.723810       -19.6959
  19   2.0000      -0.638191       -17.3661
  20   2.0000      -0.599614       -16.3163
  21   2.0000      -0.591839       -16.1048
  22   2.0000      -0.539920       -14.6920
  23   2.0000      -0.529398       -14.4056
  24   2.0000      -0.496417       -13.5082
  25   2.0000      -0.460537       -12.5319
  26   2.0000      -0.460485       -12.5304
  27   2.0000      -0.425034       -11.5658
  28   2.0000      -0.419093       -11.4041
  29   2.0000      -0.403889       -10.9904
  30   2.0000      -0.402533       -10.9535
  31   2.0000      -0.392070       -10.6688
  32   2.0000      -0.389999       -10.6124
  33   2.0000      -0.373822       -10.1722
  34   2.0000      -0.362460        -9.8630
  35   2.0000      -0.350138        -9.5277
  36   2.0000      -0.338651        -9.2152
  37   2.0000      -0.321196        -8.7402
  38   2.0000      -0.313900        -8.5417
  39   2.0000      -0.310318        -8.4442
  40   2.0000      -0.268894        -7.3170
  41   2.0000      -0.249743        -6.7959
  42   2.0000      -0.233791        -6.3618
  43   2.0000      -0.218671        -5.9503
  44   0.0000      -0.064308        -1.7499
  45   0.0000      -0.042188        -1.1480
  46   0.0000       0.035725         0.9721
  47   0.0000       0.045450         1.2368
  48   0.0000       0.068609         1.8670

MULLIKEN ATOMIC CHARGES
-----------------------
   0 C :   -0.450877
   1 C :   -0.140334
   2 O :   -0.144556
   3 C :    0.332584
   4 O :   -0.432858
   5 C :    0.071970
   6 C :   -0.187502
   7 C :   -0.325793
   8 C :    0.450423
   9 C :   -0.302198
  10 C :   -0.208716
  11 O :   -0.399448
  12 H :    0.148318
  13 H :    0.152017
  14 H :    0.152005
  15 H :    0.157210
  16 H :    0.157412
  17 H :    0.171993
  18 H :    0.138912
  19 H :    0.157586
  20 H :    0.182792
  21 H :    0.319061
Sum of atomic charges:   -0.0000000

LOEWDIN ATOMIC CHARGES
----------------------
   0 C :   -0.387755
   1 C :    0.036749
   2 O :   -0.610877
   3 C :    0.383017
   4 O :   -0.442502
   5 C :   -0.054042
   6 C :   -0.101173
   7 C :   -0.170812
   8 C :    0.197874
   9 C :   -0.137391
  10 C :   -0.092296
  11 O :   -0.480244
  12 H :    0.159772
  13 H :    0.158807
  14 H :    0.158841
  15 H :    0.179899
  16 H :    0.180005
  17 H :    0.188886
  18 H :    0.169937
  19 H :    0.182407
  20 H :    0.191893
  21 H :    0.289004

  Mayer bond orders larger than 0.100000
B(  0-C ,  1-C ) :   0.9404 B(  0-C , 12-H ) :   0.9686 B(  0-C , 13-H ) :   0.9735
B(  0-C , 14-H ) :   0.9735 B(  1-C ,  2-O ) :   0.7899 B(  1-C , 15-H ) :   0.9518
B(  1-C , 16-H ) :   0.9520 B(  2-O ,  3-C ) :   1.1999 B(  2-O ,  5-C ) :  -0.1430
B(  3-C ,  4-O ) :   1.8507 B(  3-C ,  5-C ) :   1.0428 B(  5-C ,  6-C ) :   1.3912
B(  5-C , 10-C ) :   1.4535 B(  6-C ,  7-C ) :   1.3893 B(  6-C , 17-H ) :   0.9427
B(  7-C ,  8-C ) :   1.3076 B(  7-C , 18-H ) :   0.9259 B(  8-C ,  9-C ) :   1.3741
B(  8-C , 11-O ) :   0.9427 B(  9-C , 10-C ) :   1.3520 B(  9-C , 11-O ) :   0.1003
B(  9-C , 19-H ) :   0.9592 B( 10-C , 20-H ) :   0.9423 B( 11-O , 21-H ) :   0.8772

Dispersion correction           -0.007317438
FINAL SINGLE POINT ENERGY      -574.553913657759

DIPOLE MOMENT
-------------

Method             : SCF
Type of density    : Electron Density
Multiplicity       :   1
Irrep              :   0
Energy             :  -574.5572846696896931 Eh
Relativity type    :
Basis              : AO
                                X                 Y                 Z
Electronic contribution:      9.710019280      -3.988118785      -0.515397429
Nuclear contribution   :     -9.442025757       5.377539233       0.691798215
                        -----------------------------------------
Total Dipole Moment    :      0.267993523       1.389420448       0.176400787
                        -----------------------------------------
Magnitude (a.u.)       :      1.425982800
Magnitude (Debye)      :      3.624560230

Rotational constants in cm-1:             0.086903             0.014810             0.012714
Rotational constants in MHz :          2605.287219           444.001666           381.157677

                             ****ORCA TERMINATED NORMALLY****
TOTAL RUN TIME: 0 days 0 hours 0 minutes 41 seconds 563 msec
