                         Program Version 6.0.0  -   RELEASE  -
|  1> ! r2scan-3c def2/J RI DEFGRID2 scfconv6 printgap
|  2> %output
|  3>     printlevel normal
|  4> end
|  5> %cpcm
|  6>     smd true
|  7>     smdsolvent "water"
|  8> end
|  9> * xyz 0 1
| 10> C -4.201054844 1.4517113648 0.1881667161
| 11> C -3.4791722193 0.1292004967 0.016805555
| 12> O -2.0669419226 0.3809735407 0.0475019529
| 13> C -1.2591198825 -0.6708306307 -0.0860130243
| 14> O -1.6853628213 -1.8064174894 -0.2296156223
| 15> C 0.1672695547 -0.3208516695 -0.0419082701
| 16> C 0.5972203399 0.9959034875 0.1228650799
| 17> C 1.943676787 1.2873890712 0.1603784573
| 18> C 2.8878980257 0.267755402 0.0339897522
| 19> C 2.4592775989 -1.0518978149 -0.1315135995
| 20> C 1.115051375 -1.3393608071 -0.1686299567
| 21> O 4.2133242364 0.5011344345 0.0648714206
| 22> H -5.2721585775 1.2806331519 0.1653798232
| 23> H -3.9296944596 1.9030330472 1.1378292192
| 24> H -3.9287503676 2.1304487475 -0.6145437635
| 25> H -3.725305078 -0.3485639287 -0.9377678614
| 26> H -3.723092118 -0.5752131484 0.8195353705
| 27> H -0.1336710549 1.7821372011 0.2203653254
| 28> H 2.2677610005 2.3092382738 0.2881229669
| 29> H 3.2014883884 -1.8276210923 -0.2277848742
| 30> H 0.7669332758 -2.3530244043 -0.2957135322
| 31> H 4.4049168036 1.4454661697 0.1838188882
| 32> *
| 33>
| 34>                          ****END OF INPUT****

CARTESIAN COORDINATES (ANGSTROEM)
---------------------------------
  C     -4.201055    1.451711    0.188167
  C     -3.479172    0.129200    0.016806
  O     -2.066942    0.380974    0.047502
  C     -1.259120   -0.670831   -0.086013
  O     -1.685363   -1.806417   -0.229616
  C      0.167270   -0.320852   -0.041908
  C      0.597220    0.995903    0.122865
  C      1.943677    1.287389    0.160378
  C      2.887898    0.267755    0.033990
  C      2.459278   -1.051898   -0.131514
  C      1.115051   -1.339361   -0.168630
  O      4.213324    0.501134    0.064871
  H     -5.272159    1.280633    0.165380
  H     -3.929694    1.903033    1.137829
  H     -3.928750    2.130449   -0.614544
  H     -3.725305   -0.348564   -0.937768
  H     -3.723092   -0.575213    0.819535
  H     -0.133671    1.782137    0.220365
  H      2.267761    2.309238    0.288123
  H      3.201488   -1.827621   -0.227785
  H      0.766933   -2.353024   -0.295714
  H      4.404917    1.445466    0.183819

 Total Charge           Charge          ....    0
 Multiplicity           Mult            ....    1
 Number of Electrons    NEL             ....   88
 Basis Dimension        Dim             ....  293

ORBITAL ENERGIES
----------------

  NO   OCC          E(Eh)            E(eV)
   0   2.0000     -19.000465      -517.0289
   1   2.0000     -18.993350      -516.8353
   2   2.0000     -18.940559      -515.3988
   3   2.0000     -10.164117      -276.5797
   4   2.0000     -10.112041      -275.1626
   5   2.0000     -10.084605      -274.4160
   6   2.0000     -10.048671      -273.4382
   7   2.0000     -10.048240      -273.4265
   8   2.0000     -10.047574      -273.4084
   9   2.0000     -10.040819      -273.2246
  10   2.0000     -10.039038      -273.1761
  11   2.0000     -10.018692      -272.6225
  12   2.0000      -1.077431       -29.3184
  13   2.0000      -1.039966       -28.2989
  14   2.0000      -0.984874       -26.7998
  15   2.0000      -0.836349       -22.7582
  16   2.0000      -0.752834       -20.4857
  17   2.0000      -0.729439       -19.8490
  18   2.0000      -0.720229       -19.5984
  19   2.0000      -0.634915       -17.2769
  20   2.0000      -0.595122       -16.1941
  21   2.0000      -0.588413       -16.0115
  22   2.0000      -0.538554       -14.6548
  23   2.0000      -0.523949       -14.2574
  24   2.0000      -0.498006       -13.5514
  25   2.0000      -0.464113       -12.6292
  26   2.0000      -0.461121       -12.5477
  27   2.0000      -0.435001       -11.8370
  28   2.0000      -0.418098       -11.3770
  29   2.0000      -0.402327       -10.9479
  30   2.0000      -0.399536       -10.8719
  31   2.0000      -0.390990       -10.6394
  32   2.0000      -0.389685       -10.6039
  33   2.0000      -0.366874        -9.9832
  34   2.0000      -0.356238        -9.6937
  35   2.0000      -0.350260        -9.5311
  36   2.0000      -0.334276        -9.0961
  37   2.0000      -0.320309        -8.7161
  38   2.0000      -0.316397        -8.6096
  39   2.0000      -0.309363        -8.4182
  40   2.0000      -0.277484        -7.5507
  41   2.0000      -0.254282        -6.9194
  42   2.0000      -0.250461        -6.8154
  43   2.0000      -0.219679        -5.9778
  44   0.0000      -0.070799        -1.9265
  45   0.0000      -0.041906        -1.1403
  46   0.0000       0.029918         0.8141
  47   0.0000       0.070698         1.9238
  48   0.0000       0.079754         2.1702

MULLIKEN ATOMIC CHARGES
-----------------------
   0 C :   -0.495897
   1 C :   -0.144650
   2 O :   -0.154789
   3 C :    0.378880
   4 O :   -0.514746
   5 C :    0.071426
   6 C :   -0.190769
   7 C :   -0.334050
   8 C :    0.412484
   9 C :   -0.345462
  10 C :   -0.241060
  11 O :   -0.431056
  12 H :    0.169933
  13 H :    0.164998
  14 H :    0.165015
  15 H :    0.171358
  16 H :    0.171027
  17 H :    0.195565
  18 H :    0.188895
  19 H :    0.188080
  20 H :    0.195809
  21 H :    0.379010
Sum of atomic charges:   -0.0000000

LOEWDIN ATOMIC CHARGES
----------------------
   0 C :   -0.389695
   1 C :    0.038691
   2 O :   -0.609834
   3 C :    0.387448
   4 O :   -0.506862
   5 C :   -0.069612
   6 C :   -0.104484
   7 C :   -0.156258
   8 C :    0.196095
   9 C :   -0.144710
  10 C :   -0.106367
  11 O :   -0.483614
  12 H :    0.168423
  13 H :    0.162628
  14 H :    0.162689
  15 H :    0.184514
  16 H :    0.184452
  17 H :    0.197090
  18 H :    0.190683
  19 H :    0.192114
  20 H :    0.194158
  21 H :    0.312450

  Mayer bond orders larger than 0.100000
B(  0-C ,  1-C ) :   0.9433 B(  0-C , 12-H ) :   0.9621 B(  0-C , 13-H ) :   0.9708
B(  0-C , 14-H ) :   0.9708 B(  1-C ,  2-O ) :   0.7766 B(  1-C , 15-H ) :   0.9448
B(  1-C , 16-H ) :   0.9450 B(  2-O ,  3-C ) :   1.2146 B(  2-O ,  5-C ) :  -0.1270
B(  3-C ,  4-O ) :   1.7880 B(  3-C ,  5-C ) :   1.0502 B(  5-C ,  6-C ) :   1.3228
B(  5-C , 10-C ) :   1.3797 B(  6-C ,  7-C ) :   1.3682 B(  6-C , 17-H ) :   0.9587
B(  7-C ,  8-C ) :   1.3029 B(  7-C , 18-H ) :   0.9497 B(  8-C ,  9-C ) :   1.3260
B(  8-C , 11-O ) :   0.9632 B(  9-C , 10-C ) :   1.3859 B(  9-C , 19-H ) :   0.9605
B( 10-C , 20-H ) :   0.9499 B( 11-O , 21-H ) :   0.8440

Dispersion correction           -0.007317438
FINAL SINGLE POINT ENERGY      -574.567879286826

DIPOLE MOMENT
-------------

Method             : SCF
Type of density    : Electron Density
Multiplicity       :   1
Irrep              :   0
Energy             :  -574.5712502987558992 Eh
Relativity type    :
Basis              : AO
                                X                 Y                 Z
Electronic contribution:      9.983883667      -3.288693836      -0.427562103
Nuclear contribution   :     -9.442025757       5.377539233       0.691798215
                        -----------------------------------------
Total Dipole Moment    :      0.541857910       2.088845397       0.264236112
                        -----------------------------------------
Magnitude (a.u.)       :      2.174098850
Magnitude (Debye)      :      5.526120110

Rotational constants in cm-1:             0.086903             0.014810             0.012714
Rotational constants in MHz :          2605.287219           444.001666           381.157677

                             ****ORCA TERMINATED NORMALLY****
TOTAL RUN TIME: 0 days 0 hours 0 minutes 53 seconds 389 msec
