                         Program Version 6.0.0  -   RELEASE  -
|  1> ! r2scan-3c def2/J RI DEFGRID2 scfconv6 printgap
|  2> %output
|  3>     printlevel normal
|  4> end
|  5> * xyz 0 1
|  6> C 2.1380416298 1.3219769421 -1.0414096026
|  7> C 2.173362533 0.8364366719 0.4027466421
|  8> C 1.3848400727 -0.464835294 0.655198405
|  9> H 1.4383721011 -0.6574022064 1.7341722446
| 10> C 2.0189340301 -1.6612568617 -0.0519484298
| 11> C -0.0712943602 -0.2583887525 0.3130326226
| 12> C -0.9033027466 0.3396341481 1.2544601656
| 13> C -2.2359044827 0.5844678078 0.978933829
| 14> C -2.7650478059 0.232443906 -0.2514009018
| 15> C -1.9493199077 -0.3640003063 -1.1964081505
| 16> C -0.6147087826 -0.6059530395 -0.9172620379
| 17> H 2.6652756014 2.2694955259 -1.1245321135
| 18> H 2.6177656476 0.6106364771 -1.7080204893
| 19> H 1.1118772211 1.4703100745 -1.3703030555
| 20> H 3.2107628538 0.6758144048 0.7042144808
| 21> H 1.7570090337 1.6172765584 1.0436783129
| 22> H 1.4237955929 -2.5556153921 0.1180672284
| 23> H 2.1016004179 -1.5002203428 -1.1222791256
| 24> H 3.018346448 -1.8313860108 0.3421589208
| 25> H -0.4991054978 0.6148416796 2.2188448734
| 26> H -2.8635868462 1.0489706057 1.7254404115
| 27> H -3.8055546783 0.4208475356 -0.4704933331
| 28> H -2.3529709443 -0.6422306715 -2.1590941843
| 29> H 0.0006676765 -1.0709229587 -1.6710305477
| 30> *
| 31>
| 32>                          ****END OF INPUT****

CARTESIAN COORDINATES (ANGSTROEM)
---------------------------------
  C      2.138042    1.321977   -1.041410
  C      2.173363    0.836437    0.402747
  C      1.384840   -0.464835    0.655198
  H      1.438372   -0.657402    1.734172
  C      2.018934   -1.661257   -0.051948
  C     -0.071294   -0.258389    0.313033
  C     -0.903303    0.339634    1.254460
  C     -2.235904    0.584468    0.978934
  C     -2.765048    0.232444   -0.251401
  C     -1.949320   -0.364000   -1.196408
  C     -0.614709   -0.605953   -0.917262
  H      2.665276    2.269496   -1.124532
  H      2.617766    0.610636   -1.708020
  H      1.111877    1.470310   -1.370303
  H      3.210763    0.675814    0.704214
  H      1.757009    1.617277    1.043678
  H      1.423796   -2.555615    0.118067
  H      2.101600   -1.500220   -1.122279
  H      3.018346   -1.831386    0.342159
  H     -0.499105    0.614842    2.218845
  H     -2.863587    1.048971    1.725440
  H     -3.805555    0.420848   -0.470493
  H     -2.352971   -0.642231   -2.159094
  H      0.000668   -1.070923   -1.671031

 Total Charge           Charge          ....    0
 Multiplicity           Mult            ....    1
 Number of Electrons    NEL             ....   74
 Basis Dimension        Dim             ....  260

ORBITAL ENERGIES
----------------

  NO   OCC          E(Eh)            E(eV)
   0   2.0000     -10.039616      -273.1919
   1   2.0000     -10.038370      -273.1579
   2   2.0000     -10.031217      -272.9633
   3   2.0000     -10.031164      -272.9619
   4   2.0000     -10.029154      -272.9071
   5   2.0000     -10.029018      -272.9035
   6   2.0000     -10.028961      -272.9019
   7   2.0000     -10.027133      -272.8522
   8   2.0000     -10.018778      -272.6248
   9   2.0000     -10.013023      -272.4682
  10   2.0000      -0.829005       -22.5584
  11   2.0000      -0.776672       -21.1343
  12   2.0000      -0.713249       -19.4085
  13   2.0000      -0.710694       -19.3390
  14   2.0000      -0.684413       -18.6238
  15   2.0000      -0.616607       -16.7787
  16   2.0000      -0.572953       -15.5908
  17   2.0000      -0.568632       -15.4733
  18   2.0000      -0.522396       -14.2151
  19   2.0000      -0.477339       -12.9891
  20   2.0000      -0.439524       -11.9601
  21   2.0000      -0.427391       -11.6299
  22   2.0000      -0.416084       -11.3222
  23   2.0000      -0.410730       -11.1765
  24   2.0000      -0.393061       -10.6957
  25   2.0000      -0.383733       -10.4419
  26   2.0000      -0.357478        -9.7275
  27   2.0000      -0.352474        -9.5913
  28   2.0000      -0.342948        -9.3321
  29   2.0000      -0.338086        -9.1998
  30   2.0000      -0.322713        -8.7815
  31   2.0000      -0.310403        -8.4465
  32   2.0000      -0.298652        -8.1267
  33   2.0000      -0.288538        -7.8515
  34   2.0000      -0.286627        -7.7995
  35   2.0000      -0.233799        -6.3620
  36   2.0000      -0.224084        -6.0976
  37   0.0000      -0.029357        -0.7989
  38   0.0000      -0.026697        -0.7265
  39   0.0000       0.077494         2.1087
  40   0.0000       0.095309         2.5935
  41   0.0000       0.096402         2.6232

MULLIKEN ATOMIC CHARGES
-----------------------
   0 C :   -0.528105
   1 C :   -0.201773
   2 C :   -0.067150
   3 H :    0.159343
   4 C :   -0.530847
   5 C :    0.119805
   6 C :   -0.244120
   7 C :   -0.154756
   8 C :   -0.151102
   9 C :   -0.175736
  10 C :   -0.180258
  11 H :    0.146899
  12 H :    0.149273
  13 H :    0.170064
  14 H :    0.141371
  15 H :    0.149477
  16 H :    0.164727
  17 H :    0.151137
  18 H :    0.154157
  19 H :    0.148011
  20 H :    0.144234
  21 H :    0.145541
  22 H :    0.144175
  23 H :    0.145632
Sum of atomic charges:   -0.0000000

LOEWDIN ATOMIC CHARGES
----------------------
   0 C :   -0.420904
   1 C :   -0.293083
   2 C :   -0.216164
   3 H :    0.166916
   4 C :   -0.407206
   5 C :   -0.086634
   6 C :   -0.160315
   7 C :   -0.162662
   8 C :   -0.173414
   9 C :   -0.163201
  10 C :   -0.165107
  11 H :    0.151996
  12 H :    0.148822
  13 H :    0.161989
  14 H :    0.154107
  15 H :    0.157812
  16 H :    0.160433
  17 H :    0.152019
  18 H :    0.156145
  19 H :    0.168901
  20 H :    0.166329
  21 H :    0.166037
  22 H :    0.166070
  23 H :    0.171113

  Mayer bond orders larger than 0.100000
B(  0-C ,  1-C ) :   0.8732 B(  0-C , 11-H ) :   0.9666 B(  0-C , 12-H ) :   0.9862
B(  0-C , 13-H ) :   0.9738 B(  1-C ,  2-C ) :   0.9081 B(  1-C , 14-H ) :   0.9695
B(  1-C , 15-H ) :   0.9708 B(  2-C ,  3-H ) :   1.0026 B(  2-C ,  4-C ) :   0.9067
B(  2-C ,  5-C ) :   0.8099 B(  4-C , 16-H ) :   0.9799 B(  4-C , 17-H ) :   0.9715
B(  4-C , 18-H ) :   0.9756 B(  5-C ,  6-C ) :   1.4081 B(  5-C , 10-C ) :   1.4112
B(  6-C ,  7-C ) :   1.4418 B(  6-C , 19-H ) :   0.9465 B(  7-C ,  8-C ) :   1.4196
B(  7-C , 20-H ) :   0.9471 B(  8-C ,  9-C ) :   1.4256 B(  8-C , 21-H ) :   0.9490
B(  9-C , 10-C ) :   1.4456 B(  9-C , 22-H ) :   0.9516 B( 10-C , 23-H ) :   0.9430

Dispersion correction           -0.008590887
FINAL SINGLE POINT ENERGY      -389.378416748885

DIPOLE MOMENT
-------------

Method             : SCF
Type of density    : Electron Density
Multiplicity       :   1
Irrep              :   0
Energy             :  -389.3782330197371948 Eh
Relativity type    :
Basis              : AO
                                X                 Y                 Z
Electronic contribution:     -9.053184907      -0.423340945       1.680630413
Nuclear contribution   :      9.216787863       0.441327918      -1.631637241
                        -----------------------------------------
Total Dipole Moment    :      0.163602956       0.017986972       0.048993171
                        -----------------------------------------
Magnitude (a.u.)       :      0.171725913
Magnitude (Debye)      :      0.436492582

Rotational constants in cm-1:             0.079457             0.029689             0.028736
Rotational constants in MHz :          2382.055117           890.047206           861.489141

                             ****ORCA TERMINATED NORMALLY****
TOTAL RUN TIME: 0 days 0 hours 0 minutes 31 seconds 835 msec
