                         Program Version 6.0.0  -   RELEASE  -
|  1> ! pbe def2-sv(p) def2/J RI DEFGRID1 loosescf d4 GCP(DFT/SV(P)) printgap
|  2> %output
|  3>     printlevel normal
|  4> end
|  5> * xyz 0 1
|  6> C -3.1034493599 0.7125647928 0.0093047186
|  7> C -1.6707433831 0.4791111648 -0.452290659
|  8> C -0.8603806662 -0.2729753336 0.614536346
|  9> C 0.5350568915 -0.5053465628 0.1034121166
| 10> O 0.8976366759 -1.4950964079 -0.49887127
| 11> O 1.3220021577 0.5311488195 0.3625165164
| 12> C 2.676693693 0.5119263813 -0.0984443994
| 13> H -3.6601911985 1.2470090228 -0.7554821372
| 14> H -3.601408071 -0.2344684994 0.200377102
| 15> H -3.1175332579 1.3011609701 0.9228184284
| 16> H -1.1875984861 1.4366578687 -0.6550373314
| 17> H -1.6690866778 -0.1039426326 -1.3756496748
| 18> H -1.3240292746 -1.2380870949 0.8163959541
| 19> H -0.8132700283 0.321962565 1.5256131373
| 20> H 2.9234702549 -0.4792122274 -0.4804975926
| 21> H 3.3080629492 0.7681187703 0.7492490683
| 22> H 2.779479806 1.2560663145 -0.8868334156
| 23> *
| 24>
| 25>                          ****END OF INPUT****

CARTESIAN COORDINATES (ANGSTROEM)
---------------------------------
  C     -3.103449    0.712565    0.009305
  C     -1.670743    0.479111   -0.452291
  C     -0.860381   -0.272975    0.614536
  C      0.535057   -0.505347    0.103412
  O      0.897637   -1.495096   -0.498871
  O      1.322002    0.531149    0.362517
  C      2.676694    0.511926   -0.098444
  H     -3.660191    1.247009   -0.755482
  H     -3.601408   -0.234468    0.200377
  H     -3.117533    1.301161    0.922818
  H     -1.187598    1.436658   -0.655037
  H     -1.669087   -0.103943   -1.375650
  H     -1.324029   -1.238087    0.816396
  H     -0.813270    0.321963    1.525613
  H      2.923470   -0.479212   -0.480498
  H      3.308063    0.768119    0.749249
  H      2.779480    1.256066   -0.886833

 Total Charge           Charge          ....    0
 Multiplicity           Mult            ....    1
 Number of Electrons    NEL             ....   56
 Basis Dimension        Dim             ....  118

ORBITAL ENERGIES
----------------

  NO   OCC          E(Eh)            E(eV)
   0   2.0000     -18.798439      -511.5315
   1   2.0000     -18.729314      -509.6505
   2   2.0000     -10.003757      -272.2161
   3   2.0000      -9.939270      -270.4613
   4   2.0000      -9.896405      -269.2949
   5   2.0000      -9.896188      -269.2890
   6   2.0000      -9.880974      -268.8750
   7   2.0000      -1.003353       -27.3026
   8   2.0000      -0.906721       -24.6731
   9   2.0000      -0.727963       -19.8089
  10   2.0000      -0.672799       -18.3078
  11   2.0000      -0.621201       -16.9037
  12   2.0000      -0.537754       -14.6330
  13   2.0000      -0.506178       -13.7738
  14   2.0000      -0.448603       -12.2071
  15   2.0000      -0.432127       -11.7588
  16   2.0000      -0.430317       -11.7095
  17   2.0000      -0.401025       -10.9124
  18   2.0000      -0.383425       -10.4335
  19   2.0000      -0.372761       -10.1433
  20   2.0000      -0.348313        -9.4781
  21   2.0000      -0.343745        -9.3538
  22   2.0000      -0.319914        -8.7053
  23   2.0000      -0.302310        -8.2263
  24   2.0000      -0.299138        -8.1400
  25   2.0000      -0.292734        -7.9657
  26   2.0000      -0.253502        -6.8981
  27   2.0000      -0.215764        -5.8712
  28   0.0000      -0.016855        -0.4586
  29   0.0000       0.040219         1.0944
  30   0.0000       0.057626         1.5681
  31   0.0000       0.078599         2.1388
  32   0.0000       0.080892         2.2012

MULLIKEN ATOMIC CHARGES
-----------------------
   0 C :   -0.243822
   1 C :   -0.239891
   2 C :   -0.120503
   3 C :    0.105993
   4 O :   -0.206217
   5 O :   -0.246579
   6 C :   -0.128772
   7 H :    0.107401
   8 H :    0.101559
   9 H :    0.099365
  10 H :    0.097882
  11 H :    0.104125
  12 H :    0.099272
  13 H :    0.094769
  14 H :    0.133253
  15 H :    0.121789
  16 H :    0.120377
Sum of atomic charges:    0.0000000

LOEWDIN ATOMIC CHARGES
----------------------
   0 C :   -0.338934
   1 C :   -0.225049
   2 C :   -0.241234
   3 C :    0.035876
   4 O :   -0.173170
   5 O :   -0.076339
   6 C :   -0.209013
   7 H :    0.121989
   8 H :    0.119407
   9 H :    0.118384
  10 H :    0.118700
  11 H :    0.122314
  12 H :    0.133679
  13 H :    0.129664
  14 H :    0.124183
  15 H :    0.120282
  16 H :    0.119261

  Mayer bond orders larger than 0.100000
B(  0-C ,  1-C ) :   1.1575 B(  0-C ,  7-H ) :   0.9517 B(  0-C ,  8-H ) :   0.9533
B(  0-C ,  9-H ) :   0.9534 B(  1-C ,  2-C ) :   1.1279 B(  1-C , 10-H ) :   0.9270
B(  1-C , 11-H ) :   0.9270 B(  2-C ,  3-C ) :   1.0179 B(  2-C , 12-H ) :   0.9048
B(  2-C , 13-H ) :   0.9005 B(  3-C ,  4-O ) :   2.0723 B(  3-C ,  5-O ) :   1.2026
B(  5-O ,  6-C ) :   0.9367 B(  6-C , 14-H ) :   0.9285 B(  6-C , 15-H ) :   0.9615
B(  6-C , 16-H ) :   0.9603

Dispersion correction           -0.011815586
FINAL SINGLE POINT ENERGY      -346.238637264551

DIPOLE MOMENT
-------------

Method             : SCF
Type of density    : Electron Density
Multiplicity       :   1
Irrep              :   0
Energy             :  -346.3033938339406745 Eh
Relativity type    :
Basis              : AO
                                X                 Y                 Z
Electronic contribution:      5.961888904      -3.273559955       0.157607342
Nuclear contribution   :     -5.935808577       3.996621816       0.055162994
                        -----------------------------------------
Total Dipole Moment    :      0.026080327       0.723061861       0.212770336
                        -----------------------------------------
Magnitude (a.u.)       :      0.754168319
Magnitude (Debye)      :      1.916943526

Rotational constants in cm-1:             0.201553             0.044005             0.039566
Rotational constants in MHz :          6042.399804          1319.231552          1186.156871

                             ****ORCA TERMINATED NORMALLY****
TOTAL RUN TIME: 0 days 0 hours 0 minutes 9 seconds 688 msec
