                         Program Version 6.0.0  -   RELEASE  -
|  1> ! r2scan-3c def2/J RI DEFGRID2 scfconv6 printgap
|  2> %output
|  3>     printlevel normal
|  4> end
|  5> * xyz 0 1
|  6> C -3.2190032662 0.9622316574 -0.0463040584
|  7> C -2.6835842622 0.5672123794 1.1679654621
|  8> C -1.5546763928 -0.2327270311 1.2007358505
|  9> C -0.9523194455 -0.6468930598 0.0203250965
| 10> C -1.4926087599 -0.2441844627 -1.1939348932
| 11> C -2.6220584624 0.5545570454 -1.2275099077
| 12> C 0.309480196 -1.4767892004 0.0537987164
| 13> N 1.4713678095 -0.6168150695 0.0415151165
| 14> C 2.0403634277 -0.0080869367 1.1219828999
| 15> C 3.0517538649 0.7659594563 0.6320138082
| 16> N 3.1104057948 0.651624973 -0.7231350154
| 17> C 2.1479798181 -0.1767697569 -1.0395225638
| 18> H -4.0992664691 1.5861936333 -0.0723261365
| 19> H -3.1451697965 0.8829348759 2.0912042029
| 20> H -1.1419719372 -0.539615958 2.1505956335
| 21> H -1.0283708945 -0.5584268975 -2.1172123746
| 22> H -3.0361213072 0.8594620896 -2.1765553224
| 23> H 0.3404508762 -2.0858434759 0.9599951776
| 24> H 0.3592848491 -2.1277677892 -0.8216153868
| 25> H 1.6964095794 -0.175685164 2.1208136231
| 26> H 3.7416278782 1.3929148299 1.1603097957
| 27> H 1.9230810395 -0.4866739101 -2.0400693601
| 28> *
| 29>
| 30>                          ****END OF INPUT****

CARTESIAN COORDINATES (ANGSTROEM)
---------------------------------
  C     -3.219003    0.962232   -0.046304
  C     -2.683584    0.567212    1.167965
  C     -1.554676   -0.232727    1.200736
  C     -0.952319   -0.646893    0.020325
  C     -1.492609   -0.244184   -1.193935
  C     -2.622058    0.554557   -1.227510
  C      0.309480   -1.476789    0.053799
  N      1.471368   -0.616815    0.041515
  C      2.040363   -0.008087    1.121983
  C      3.051754    0.765959    0.632014
  N      3.110406    0.651625   -0.723135
  C      2.147980   -0.176770   -1.039523
  H     -4.099266    1.586194   -0.072326
  H     -3.145170    0.882935    2.091204
  H     -1.141972   -0.539616    2.150596
  H     -1.028371   -0.558427   -2.117212
  H     -3.036121    0.859462   -2.176555
  H      0.340451   -2.085843    0.959995
  H      0.359285   -2.127768   -0.821615
  H      1.696410   -0.175685    2.120814
  H      3.741628    1.392915    1.160310
  H      1.923081   -0.486674   -2.040069

 Total Charge           Charge          ....    0
 Multiplicity           Mult            ....    1
 Number of Electrons    NEL             ....   84
 Basis Dimension        Dim             ....  288

ORBITAL ENERGIES
----------------

  NO   OCC          E(Eh)            E(eV)
   0   2.0000     -14.221940      -386.9986
   1   2.0000     -14.130755      -384.5174
   2   2.0000     -10.096599      -274.7424
   3   2.0000     -10.072826      -274.0955
   4   2.0000     -10.058144      -273.6960
   5   2.0000     -10.051510      -273.5155
   6   2.0000     -10.048164      -273.4244
   7   2.0000     -10.047786      -273.4142
   8   2.0000     -10.046832      -273.3882
   9   2.0000     -10.046643      -273.3831
  10   2.0000     -10.045490      -273.3517
  11   2.0000     -10.035797      -273.0879
  12   2.0000      -0.992055       -26.9952
  13   2.0000      -0.864523       -23.5249
  14   2.0000      -0.836378       -22.7590
  15   2.0000      -0.753420       -20.5016
  16   2.0000      -0.730051       -19.8657
  17   2.0000      -0.711721       -19.3669
  18   2.0000      -0.676347       -18.4043
  19   2.0000      -0.592656       -16.1270
  20   2.0000      -0.578723       -15.7478
  21   2.0000      -0.564327       -15.3561
  22   2.0000      -0.544524       -14.8172
  23   2.0000      -0.512979       -13.9589
  24   2.0000      -0.494681       -13.4609
  25   2.0000      -0.452114       -12.3027
  26   2.0000      -0.448854       -12.2139
  27   2.0000      -0.420836       -11.4515
  28   2.0000      -0.412234       -11.2175
  29   2.0000      -0.404255       -11.0003
  30   2.0000      -0.401200       -10.9172
  31   2.0000      -0.378364       -10.2958
  32   2.0000      -0.376738       -10.2516
  33   2.0000      -0.367921       -10.0116
  34   2.0000      -0.354306        -9.6412
  35   2.0000      -0.329233        -8.9589
  36   2.0000      -0.323370        -8.7993
  37   2.0000      -0.255574        -6.9545
  38   2.0000      -0.250392        -6.8135
  39   2.0000      -0.240954        -6.5567
  40   2.0000      -0.231352        -6.2954
  41   2.0000      -0.206408        -5.6166
  42   0.0000      -0.048647        -1.3238
  43   0.0000      -0.045274        -1.2320
  44   0.0000       0.001713         0.0466
  45   0.0000       0.038097         1.0367
  46   0.0000       0.061321         1.6686

MULLIKEN ATOMIC CHARGES
-----------------------
   0 C :   -0.133270
   1 C :   -0.156791
   2 C :   -0.199484
   3 C :    0.251249
   4 C :   -0.195991
   5 C :   -0.157130
   6 C :   -0.508023
   7 N :    0.280367
   8 C :   -0.177429
   9 C :   -0.135517
  10 N :   -0.191992
  11 C :   -0.152331
  12 H :    0.148564
  13 H :    0.147159
  14 H :    0.145261
  15 H :    0.146180
  16 H :    0.147482
  17 H :    0.175032
  18 H :    0.176251
  19 H :    0.130209
  20 H :    0.132526
  21 H :    0.127678
Sum of atomic charges:   -0.0000000

LOEWDIN ATOMIC CHARGES
----------------------
   0 C :   -0.159731
   1 C :   -0.155171
   2 C :   -0.151941
   3 C :   -0.064630
   4 C :   -0.149283
   5 C :   -0.154125
   6 C :    0.016108
   7 N :   -0.765960
   8 C :    0.064799
   9 C :    0.054786
  10 N :   -0.564976
  11 C :    0.221524
  12 H :    0.168825
  13 H :    0.168841
  14 H :    0.169382
  15 H :    0.170355
  16 H :    0.169184
  17 H :    0.196895
  18 H :    0.198509
  19 H :    0.186466
  20 H :    0.181486
  21 H :    0.198658

  Mayer bond orders larger than 0.100000
B(  0-C ,  1-C ) :   1.4287 B(  0-C ,  5-C ) :   1.4260 B(  0-C , 12-H ) :   0.9478
B(  1-C ,  2-C ) :   1.4359 B(  1-C , 13-H ) :   0.9471 B(  2-C ,  3-C ) :   1.4006
B(  2-C , 14-H ) :   0.9384 B(  3-C ,  4-C ) :   1.3992 B(  3-C ,  6-C ) :   0.8300
B(  4-C ,  5-C ) :   1.4400 B(  4-C , 15-H ) :   0.9387 B(  5-C , 16-H ) :   0.9480
B(  6-C ,  7-N ) :   0.8947 B(  6-C , 17-H ) :   0.9854 B(  6-C , 18-H ) :   0.9844
B(  7-N ,  8-C ) :   1.2195 B(  7-N , 11-C ) :   1.2348 B(  8-C ,  9-C ) :   1.4793
B(  8-C , 11-C ) :   0.1016 B(  8-C , 19-H ) :   0.9469 B(  9-C , 10-N ) :   1.3100
B(  9-C , 20-H ) :   0.9764 B( 10-N , 11-C ) :   1.6167 B( 11-C , 21-H ) :   0.9554

Dispersion correction           -0.008571403
FINAL SINGLE POINT ENERGY      -496.440148236866

DIPOLE MOMENT
-------------

Method             : SCF
Type of density    : Electron Density
Multiplicity       :   1
Irrep              :   0
Energy             :  -496.4444527588234450 Eh
Relativity type    :
Basis              : AO
                                X                 Y                 Z
Electronic contribution:      2.757756202       0.437902519      -0.717307504
Nuclear contribution   :     -4.093463099      -1.174874745       1.173793853
                        -----------------------------------------
Total Dipole Moment    :     -1.335706897      -0.736972226       0.456486349
                        -----------------------------------------
Magnitude (a.u.)       :      1.592363264
Magnitude (Debye)      :      4.047465759

Rotational constants in cm-1:             0.075350             0.018944             0.017843
Rotational constants in MHz :          2258.932871           567.938020           534.930253

                             ****ORCA TERMINATED NORMALLY****
TOTAL RUN TIME: 0 days 0 hours 0 minutes 39 seconds 647 msec
