                         Program Version 6.0.0  -   RELEASE  -
|  1> ! r2scan-3c def2/J RI DEFGRID2 scfconv6 printgap
|  2> %output
|  3>     printlevel normal
|  4> end
|  5> %cpcm
|  6>     smd true
|  7>     smdsolvent "water"
|  8> end
|  9> * xyz 0 1
| 10> C -3.2190032662 0.9622316574 -0.0463040584
| 11> C -2.6835842622 0.5672123794 1.1679654621
| 12> C -1.5546763928 -0.2327270311 1.2007358505
| 13> C -0.9523194455 -0.6468930598 0.0203250965
| 14> C -1.4926087599 -0.2441844627 -1.1939348932
| 15> C -2.6220584624 0.5545570454 -1.2275099077
| 16> C 0.309480196 -1.4767892004 0.0537987164
| 17> N 1.4713678095 -0.6168150695 0.0415151165
| 18> C 2.0403634277 -0.0080869367 1.1219828999
| 19> C 3.0517538649 0.7659594563 0.6320138082
| 20> N 3.1104057948 0.651624973 -0.7231350154
| 21> C 2.1479798181 -0.1767697569 -1.0395225638
| 22> H -4.0992664691 1.5861936333 -0.0723261365
| 23> H -3.1451697965 0.8829348759 2.0912042029
| 24> H -1.1419719372 -0.539615958 2.1505956335
| 25> H -1.0283708945 -0.5584268975 -2.1172123746
| 26> H -3.0361213072 0.8594620896 -2.1765553224
| 27> H 0.3404508762 -2.0858434759 0.9599951776
| 28> H 0.3592848491 -2.1277677892 -0.8216153868
| 29> H 1.6964095794 -0.175685164 2.1208136231
| 30> H 3.7416278782 1.3929148299 1.1603097957
| 31> H 1.9230810395 -0.4866739101 -2.0400693601
| 32> *
| 33>
| 34>                          ****END OF INPUT****

CARTESIAN COORDINATES (ANGSTROEM)
---------------------------------
  C     -3.219003    0.962232   -0.046304
  C     -2.683584    0.567212    1.167965
  C     -1.554676   -0.232727    1.200736
  C     -0.952319   -0.646893    0.020325
  C     -1.492609   -0.244184   -1.193935
  C     -2.622058    0.554557   -1.227510
  C      0.309480   -1.476789    0.053799
  N      1.471368   -0.616815    0.041515
  C      2.040363   -0.008087    1.121983
  C      3.051754    0.765959    0.632014
  N      3.110406    0.651625   -0.723135
  C      2.147980   -0.176770   -1.039523
  H     -4.099266    1.586194   -0.072326
  H     -3.145170    0.882935    2.091204
  H     -1.141972   -0.539616    2.150596
  H     -1.028371   -0.558427   -2.117212
  H     -3.036121    0.859462   -2.176555
  H      0.340451   -2.085843    0.959995
  H      0.359285   -2.127768   -0.821615
  H      1.696410   -0.175685    2.120814
  H      3.741628    1.392915    1.160310
  H      1.923081   -0.486674   -2.040069

 Total Charge           Charge          ....    0
 Multiplicity           Mult            ....    1
 Number of Electrons    NEL             ....   84
 Basis Dimension        Dim             ....  288

ORBITAL ENERGIES
----------------

  NO   OCC          E(Eh)            E(eV)
   0   2.0000     -14.220412      -386.9571
   1   2.0000     -14.142015      -384.8238
   2   2.0000     -10.076814      -274.2040
   3   2.0000     -10.075116      -274.1578
   4   2.0000     -10.051339      -273.5109
   5   2.0000     -10.046811      -273.3876
   6   2.0000     -10.039845      -273.1981
   7   2.0000     -10.035198      -273.0716
   8   2.0000     -10.035179      -273.0711
   9   2.0000     -10.034762      -273.0598
  10   2.0000     -10.034665      -273.0571
  11   2.0000     -10.033945      -273.0375
  12   2.0000      -0.993777       -27.0421
  13   2.0000      -0.864533       -23.5251
  14   2.0000      -0.828690       -22.5498
  15   2.0000      -0.744028       -20.2460
  16   2.0000      -0.718676       -19.5562
  17   2.0000      -0.711317       -19.3559
  18   2.0000      -0.667097       -18.1526
  19   2.0000      -0.580735       -15.8026
  20   2.0000      -0.568810       -15.4781
  21   2.0000      -0.563001       -15.3200
  22   2.0000      -0.540831       -14.7168
  23   2.0000      -0.504553       -13.7296
  24   2.0000      -0.481296       -13.0967
  25   2.0000      -0.440368       -11.9830
  26   2.0000      -0.435737       -11.8570
  27   2.0000      -0.412420       -11.2225
  28   2.0000      -0.404967       -11.0197
  29   2.0000      -0.398572       -10.8457
  30   2.0000      -0.389473       -10.5981
  31   2.0000      -0.374067       -10.1789
  32   2.0000      -0.373044       -10.1510
  33   2.0000      -0.355927        -9.6853
  34   2.0000      -0.347079        -9.4445
  35   2.0000      -0.317540        -8.6407
  36   2.0000      -0.308073        -8.3831
  37   2.0000      -0.256719        -6.9857
  38   2.0000      -0.250141        -6.8067
  39   2.0000      -0.242527        -6.5995
  40   2.0000      -0.235998        -6.4218
  41   2.0000      -0.211686        -5.7603
  42   0.0000      -0.040371        -1.0985
  43   0.0000      -0.036318        -0.9883
  44   0.0000       0.000057         0.0015
  45   0.0000       0.030850         0.8395
  46   0.0000       0.085070         2.3149

MULLIKEN ATOMIC CHARGES
-----------------------
   0 C :   -0.164793
   1 C :   -0.198400
   2 C :   -0.215241
   3 C :    0.152006
   4 C :   -0.215924
   5 C :   -0.200111
   6 C :   -0.415618
   7 N :    0.263829
   8 C :   -0.202101
   9 C :   -0.190668
  10 N :   -0.277702
  11 C :   -0.153601
  12 H :    0.180854
  13 H :    0.179138
  14 H :    0.183329
  15 H :    0.183542
  16 H :    0.179100
  17 H :    0.199813
  18 H :    0.201524
  19 H :    0.177220
  20 H :    0.161817
  21 H :    0.171985
Sum of atomic charges:   -0.0000000

LOEWDIN ATOMIC CHARGES
----------------------
   0 C :   -0.173041
   1 C :   -0.168671
   2 C :   -0.157184
   3 C :   -0.071302
   4 C :   -0.156378
   5 C :   -0.168505
   6 C :    0.025593
   7 N :   -0.748659
   8 C :    0.071126
   9 C :    0.026994
  10 N :   -0.636033
  11 C :    0.221926
  12 H :    0.178172
  13 H :    0.178672
  14 H :    0.183267
  15 H :    0.183429
  16 H :    0.178675
  17 H :    0.210580
  18 H :    0.212184
  19 H :    0.204737
  20 H :    0.189655
  21 H :    0.214763

  Mayer bond orders larger than 0.100000
B(  0-C ,  1-C ) :   1.3888 B(  0-C ,  5-C ) :   1.3866 B(  0-C , 12-H ) :   0.9527
B(  1-C ,  2-C ) :   1.3921 B(  1-C , 13-H ) :   0.9574 B(  2-C ,  3-C ) :   1.3922
B(  2-C , 14-H ) :   0.9453 B(  3-C ,  4-C ) :   1.3889 B(  3-C ,  6-C ) :   0.8437
B(  4-C ,  5-C ) :   1.3960 B(  4-C , 15-H ) :   0.9453 B(  5-C , 16-H ) :   0.9582
B(  6-C ,  7-N ) :   0.9207 B(  6-C , 17-H ) :   0.9651 B(  6-C , 18-H ) :   0.9633
B(  7-N ,  8-C ) :   1.2017 B(  7-N , 11-C ) :   1.2567 B(  8-C ,  9-C ) :   1.4751
B(  8-C , 19-H ) :   0.9573 B(  9-C , 10-N ) :   1.2950 B(  9-C , 20-H ) :   0.9739
B( 10-N , 11-C ) :   1.6051 B( 11-C , 21-H ) :   0.9479

Dispersion correction           -0.008571403
FINAL SINGLE POINT ENERGY      -496.456142166217

DIPOLE MOMENT
-------------

Method             : SCF
Type of density    : Electron Density
Multiplicity       :   1
Irrep              :   0
Energy             :  -496.4604466881743292 Eh
Relativity type    :
Basis              : AO
                                X                 Y                 Z
Electronic contribution:      2.378472940      -0.046029874      -0.524139908
Nuclear contribution   :     -4.093463099      -1.174874745       1.173793853
                        -----------------------------------------
Total Dipole Moment    :     -1.714990159      -1.220904619       0.649653945
                        -----------------------------------------
Magnitude (a.u.)       :      2.203145383
Magnitude (Debye)      :      5.599950529

Rotational constants in cm-1:             0.075350             0.018944             0.017843
Rotational constants in MHz :          2258.932871           567.938020           534.930253

                             ****ORCA TERMINATED NORMALLY****
TOTAL RUN TIME: 0 days 0 hours 1 minutes 1 seconds 922 msec
