                         Program Version 6.0.0  -   RELEASE  -
|  1> ! r2scan-3c def2/J RI DEFGRID2 scfconv6 printgap
|  2> %output
|  3>     printlevel normal
|  4> end
|  5> * xyz 0 1
|  6> C -4.3506362227 -0.6834731811 -0.0095254275
|  7> O -3.4488840441 0.4112251256 0.0108633713
|  8> C -2.1202607642 0.1710569013 0.0047745324
|  9> C -1.5379380806 -1.0966783274 -0.0205135544
| 10> C -0.1639189707 -1.2176859539 -0.025029847
| 11> C 0.6561967618 -0.0911629173 -0.0038881793
| 12> C 0.0704155504 1.1780721549 0.0215136943
| 13> C -1.2973945283 1.3049957601 0.0256450643
| 14> C 2.1139889018 -0.2759023757 -0.0103259398
| 15> O 2.6683475267 -1.3628627954 -0.0365674731
| 16> O 2.7855480792 0.8775012533 0.0228974672
| 17> C 4.2126183662 0.8272796932 0.0199235264
| 18> H -5.3414468246 -0.235419151 -0.000423891
| 19> H -4.2228873179 -1.3139678692 0.8731435676
| 20> H -4.2239239341 -1.2798584466 -0.9157295808
| 21> H -2.1447617409 -1.9866814657 -0.0368223846
| 22> H 0.3017368534 -2.191498638 -0.0446598204
| 23> H 0.7004934302 2.0523716813 0.0374362943
| 24> H -1.7692479622 2.2739991303 0.0448325032
| 25> H 4.5714040479 0.9045517466 -1.0067990575
| 26> H 4.5541966693 -0.1124884927 0.4559623079
| 27> H 4.5490891005 1.6774979155 0.6069401304
| 28> *
| 29>
| 30>                          ****END OF INPUT****

CARTESIAN COORDINATES (ANGSTROEM)
---------------------------------
  C     -4.350636   -0.683473   -0.009525
  O     -3.448884    0.411225    0.010863
  C     -2.120261    0.171057    0.004775
  C     -1.537938   -1.096678   -0.020514
  C     -0.163919   -1.217686   -0.025030
  C      0.656197   -0.091163   -0.003888
  C      0.070416    1.178072    0.021514
  C     -1.297395    1.304996    0.025645
  C      2.113989   -0.275902   -0.010326
  O      2.668348   -1.362863   -0.036567
  O      2.785548    0.877501    0.022897
  C      4.212618    0.827280    0.019924
  H     -5.341447   -0.235419   -0.000424
  H     -4.222887   -1.313968    0.873144
  H     -4.223924   -1.279858   -0.915730
  H     -2.144762   -1.986681   -0.036822
  H      0.301737   -2.191499   -0.044660
  H      0.700493    2.052372    0.037436
  H     -1.769248    2.273999    0.044833
  H      4.571404    0.904552   -1.006799
  H      4.554197   -0.112488    0.455962
  H      4.549089    1.677498    0.606940

 Total Charge           Charge          ....    0
 Multiplicity           Mult            ....    1
 Number of Electrons    NEL             ....   88
 Basis Dimension        Dim             ....  293

ORBITAL ENERGIES
----------------

  NO   OCC          E(Eh)            E(eV)
   0   2.0000     -18.999716      -517.0086
   1   2.0000     -18.994659      -516.8710
   2   2.0000     -18.922167      -514.8983
   3   2.0000     -10.149870      -276.1920
   4   2.0000     -10.109302      -275.0881
   5   2.0000     -10.097077      -274.7554
   6   2.0000     -10.082485      -274.3584
   7   2.0000     -10.046154      -273.3697
   8   2.0000     -10.045801      -273.3602
   9   2.0000     -10.044793      -273.3327
  10   2.0000     -10.043002      -273.2840
  11   2.0000     -10.038804      -273.1697
  12   2.0000      -1.066799       -29.0291
  13   2.0000      -1.049427       -28.5564
  14   2.0000      -0.969080       -26.3700
  15   2.0000      -0.835059       -22.7231
  16   2.0000      -0.749385       -20.3918
  17   2.0000      -0.731486       -19.9048
  18   2.0000      -0.701564       -19.0905
  19   2.0000      -0.673097       -18.3159
  20   2.0000      -0.591448       -16.0941
  21   2.0000      -0.586072       -15.9478
  22   2.0000      -0.536013       -14.5856
  23   2.0000      -0.517346       -14.0777
  24   2.0000      -0.491789       -13.3823
  25   2.0000      -0.463789       -12.6203
  26   2.0000      -0.450473       -12.2580
  27   2.0000      -0.447413       -12.1747
  28   2.0000      -0.432673       -11.7736
  29   2.0000      -0.421483       -11.4691
  30   2.0000      -0.405000       -11.0206
  31   2.0000      -0.400106       -10.8874
  32   2.0000      -0.390660       -10.6304
  33   2.0000      -0.378765       -10.3067
  34   2.0000      -0.358902        -9.7662
  35   2.0000      -0.355400        -9.6709
  36   2.0000      -0.338404        -9.2084
  37   2.0000      -0.316635        -8.6161
  38   2.0000      -0.302835        -8.2406
  39   2.0000      -0.302111        -8.2208
  40   2.0000      -0.268864        -7.3162
  41   2.0000      -0.247593        -6.7374
  42   2.0000      -0.235602        -6.4111
  43   2.0000      -0.214057        -5.8248
  44   0.0000      -0.063596        -1.7305
  45   0.0000      -0.038986        -1.0609
  46   0.0000       0.037318         1.0155
  47   0.0000       0.056317         1.5325
  48   0.0000       0.068783         1.8717

MULLIKEN ATOMIC CHARGES
-----------------------
   0 C :   -0.329081
   1 O :   -0.177055
   2 C :    0.368450
   3 C :   -0.269833
   4 C :   -0.251561
   5 C :    0.108900
   6 C :   -0.185073
   7 C :   -0.306927
   8 C :    0.350033
   9 O :   -0.444760
  10 O :   -0.174633
  11 C :   -0.297652
  12 H :    0.158017
  13 H :    0.156662
  14 H :    0.156626
  15 H :    0.148709
  16 H :    0.179480
  17 H :    0.172533
  18 H :    0.157355
  19 H :    0.150682
  20 H :    0.181460
  21 H :    0.147667
Sum of atomic charges:   -0.0000000

LOEWDIN ATOMIC CHARGES
----------------------
   0 C :   -0.051374
   1 O :   -0.671398
   2 C :    0.205032
   3 C :   -0.169193
   4 C :   -0.091982
   5 C :   -0.053517
   6 C :   -0.103720
   7 C :   -0.129899
   8 C :    0.383278
   9 O :   -0.451517
  10 O :   -0.614203
  11 C :   -0.043135
  12 H :    0.182074
  13 H :    0.167350
  14 H :    0.167353
  15 H :    0.176713
  16 H :    0.190978
  17 H :    0.188946
  18 H :    0.182170
  19 H :    0.172074
  20 H :    0.189622
  21 H :    0.174350

  Mayer bond orders larger than 0.100000
B(  0-C ,  1-O ) :   0.8501 B(  0-C , 12-H ) :   0.9674 B(  0-C , 13-H ) :   0.9624
B(  0-C , 14-H ) :   0.9624 B(  1-O ,  2-C ) :   1.0701 B(  2-C ,  3-C ) :   1.3243
B(  2-C ,  7-C ) :   1.3692 B(  3-C ,  4-C ) :   1.3335 B(  3-C , 15-H ) :   0.9258
B(  4-C ,  5-C ) :   1.4836 B(  4-C , 16-H ) :   0.9538 B(  5-C ,  6-C ) :   1.3310
B(  5-C ,  8-C ) :   1.0508 B(  5-C , 10-O ) :  -0.1235 B(  6-C ,  7-C ) :   1.3411
B(  6-C , 17-H ) :   0.9524 B(  7-C , 18-H ) :   0.9551 B(  8-C ,  9-O ) :   1.8532
B(  8-C , 10-O ) :   1.1527 B( 10-O , 11-C ) :   0.8319 B( 11-C , 19-H ) :   0.9595
B( 11-C , 20-H ) :   0.9689 B( 11-C , 21-H ) :   0.9713

Dispersion correction           -0.007433002
FINAL SINGLE POINT ENERGY      -574.530343931424

DIPOLE MOMENT
-------------

Method             : SCF
Type of density    : Electron Density
Multiplicity       :   1
Irrep              :   0
Energy             :  -574.5358156291085834 Eh
Relativity type    :
Basis              : AO
                                X                 Y                 Z
Electronic contribution:      1.965242400       0.520149738       0.004659555
Nuclear contribution   :     -2.808594476      -0.199515206       0.012980303
                        -----------------------------------------
Total Dipole Moment    :     -0.843352077       0.320634533       0.017639858
                        -----------------------------------------
Magnitude (a.u.)       :      0.902419189
Magnitude (Debye)      :      2.293767291

Rotational constants in cm-1:             0.108501             0.014378             0.012757
Rotational constants in MHz :          3252.782390           431.031596           382.450814

                             ****ORCA TERMINATED NORMALLY****
TOTAL RUN TIME: 0 days 0 hours 0 minutes 41 seconds 868 msec
