                         Program Version 6.0.0  -   RELEASE  -
|  1> ! r2scan-3c def2/J RI DEFGRID2 scfconv6 printgap
|  2> %output
|  3>     printlevel normal
|  4> end
|  5> * xyz 0 1
|  6> C -2.2561533943 1.6441388968 0.0250953285
|  7> C -2.1131387058 0.1591758572 0.346356721
|  8> C -3.4739433369 -0.5308975777 0.2699905256
|  9> C -1.1290407296 -0.5250616816 -0.6153213694
| 10> C 0.3149441995 -0.3074841578 -0.2833080191
| 11> C 1.2671510297 -1.3011460827 -0.5369182551
| 12> N 2.5514103126 -1.1407599383 -0.2687627374
| 13> C 2.9157899699 0.0188554685 0.266846172
| 14> C 1.9829285314 1.0098304928 0.5288876049
| 15> N 0.6971262901 0.8474422517 0.2541360247
| 16> H -2.6773125605 1.7761133861 -0.9694579886
| 17> H -1.2861422937 2.1290176706 0.0643330243
| 18> H -2.9163674926 2.1236582879 0.743690563
| 19> H -1.7237853647 0.0583980006 1.3649460807
| 20> H -3.3966498794 -1.5774723913 0.5557672298
| 21> H -4.1796718047 -0.0455127922 0.9393450314
| 22> H -3.868514821 -0.4766232132 -0.7422083735
| 23> H -1.3068593918 -0.150232699 -1.627368444
| 24> H -1.3129595451 -1.6012674729 -0.6287091918
| 25> H 0.9886479441 -2.2530147252 -0.9679575772
| 26> H 3.9665794963 0.1398038677 0.483998796
| 27> H 2.2588018459 1.9583273686 0.9674779388
| 28> *
| 29>
| 30>                          ****END OF INPUT****

CARTESIAN COORDINATES (ANGSTROEM)
---------------------------------
  C     -2.256153    1.644139    0.025095
  C     -2.113139    0.159176    0.346357
  C     -3.473943   -0.530898    0.269991
  C     -1.129041   -0.525062   -0.615321
  C      0.314944   -0.307484   -0.283308
  C      1.267151   -1.301146   -0.536918
  N      2.551410   -1.140760   -0.268763
  C      2.915790    0.018855    0.266846
  C      1.982929    1.009830    0.528888
  N      0.697126    0.847442    0.254136
  H     -2.677313    1.776113   -0.969458
  H     -1.286142    2.129018    0.064333
  H     -2.916367    2.123658    0.743691
  H     -1.723785    0.058398    1.364946
  H     -3.396650   -1.577472    0.555767
  H     -4.179672   -0.045513    0.939345
  H     -3.868515   -0.476623   -0.742208
  H     -1.306859   -0.150233   -1.627368
  H     -1.312960   -1.601267   -0.628709
  H      0.988648   -2.253015   -0.967958
  H      3.966579    0.139804    0.483999
  H      2.258802    1.958327    0.967478

 Total Charge           Charge          ....    0
 Multiplicity           Mult            ....    1
 Number of Electrons    NEL             ....   74
 Basis Dimension        Dim             ....  260

ORBITAL ENERGIES
----------------

  NO   OCC          E(Eh)            E(eV)
   0   2.0000     -14.174112      -385.6972
   1   2.0000     -14.171794      -385.6341
   2   2.0000     -10.086038      -274.4550
   3   2.0000     -10.078416      -274.2476
   4   2.0000     -10.075053      -274.1561
   5   2.0000     -10.075034      -274.1556
   6   2.0000     -10.039144      -273.1790
   7   2.0000     -10.037585      -273.1366
   8   2.0000     -10.017697      -272.5954
   9   2.0000     -10.006053      -272.2785
  10   2.0000      -0.955400       -25.9978
  11   2.0000      -0.881166       -23.9778
  12   2.0000      -0.788719       -21.4621
  13   2.0000      -0.748007       -20.3543
  14   2.0000      -0.676710       -18.4142
  15   2.0000      -0.648588       -17.6490
  16   2.0000      -0.629956       -17.1420
  17   2.0000      -0.599535       -16.3142
  18   2.0000      -0.532899       -14.5009
  19   2.0000      -0.494443       -13.4545
  20   2.0000      -0.488594       -13.2953
  21   2.0000      -0.453524       -12.3410
  22   2.0000      -0.431418       -11.7395
  23   2.0000      -0.415129       -11.2962
  24   2.0000      -0.400351       -10.8941
  25   2.0000      -0.396979       -10.8023
  26   2.0000      -0.378667       -10.3041
  27   2.0000      -0.360431        -9.8078
  28   2.0000      -0.352245        -9.5851
  29   2.0000      -0.337528        -9.1846
  30   2.0000      -0.315075        -8.5736
  31   2.0000      -0.303873        -8.2688
  32   2.0000      -0.298331        -8.1180
  33   2.0000      -0.296659        -8.0725
  34   2.0000      -0.273704        -7.4479
  35   2.0000      -0.250091        -6.8053
  36   2.0000      -0.213576        -5.8117
  37   0.0000      -0.078910        -2.1473
  38   0.0000      -0.050387        -1.3711
  39   0.0000       0.071588         1.9480
  40   0.0000       0.087051         2.3688
  41   0.0000       0.098060         2.6683

MULLIKEN ATOMIC CHARGES
-----------------------
   0 C :   -0.557139
   1 C :    0.009395
   2 C :   -0.464770
   3 C :   -0.367265
   4 C :    0.296245
   5 C :   -0.242904
   6 N :   -0.154777
   7 C :   -0.068523
   8 C :   -0.065964
   9 N :   -0.180654
  10 H :    0.142108
  11 H :    0.188596
  12 H :    0.142401
  13 H :    0.151046
  14 H :    0.145098
  15 H :    0.149139
  16 H :    0.145258
  17 H :    0.172236
  18 H :    0.146354
  19 H :    0.140055
  20 H :    0.136589
  21 H :    0.137475
Sum of atomic charges:    0.0000000

LOEWDIN ATOMIC CHARGES
----------------------
   0 C :   -0.414835
   1 C :   -0.229520
   2 C :   -0.415829
   3 C :   -0.245615
   4 C :    0.155949
   5 C :    0.101999
   6 N :   -0.568024
   7 C :    0.086101
   8 C :    0.101913
   9 N :   -0.585230
  10 H :    0.149724
  11 H :    0.176741
  12 H :    0.151599
  13 H :    0.162773
  14 H :    0.151209
  15 H :    0.155278
  16 H :    0.154322
  17 H :    0.180816
  18 H :    0.169562
  19 H :    0.188102
  20 H :    0.186652
  21 H :    0.186315

  Mayer bond orders larger than 0.100000
B(  0-C ,  1-C ) :   0.9082 B(  0-C , 10-H ) :   0.9858 B(  0-C , 11-H ) :   0.9659
B(  0-C , 12-H ) :   0.9731 B(  1-C ,  2-C ) :   0.8795 B(  1-C ,  3-C ) :   0.8650
B(  1-C , 13-H ) :   0.9770 B(  2-C , 14-H ) :   0.9806 B(  2-C , 15-H ) :   0.9779
B(  2-C , 16-H ) :   0.9812 B(  3-C ,  4-C ) :   0.9019 B(  3-C , 17-H ) :   0.9378
B(  3-C , 18-H ) :   0.9849 B(  4-C ,  5-C ) :   1.2947 B(  4-C ,  9-N ) :   1.2918
B(  5-C ,  6-N ) :   1.4872 B(  5-C ,  8-C ) :   0.1199 B(  5-C , 19-H ) :   0.9750
B(  6-N ,  7-C ) :   1.4242 B(  7-C ,  8-C ) :   1.3073 B(  7-C , 20-H ) :   0.9710
B(  8-C ,  9-N ) :   1.4274 B(  8-C , 21-H ) :   0.9650

Dispersion correction           -0.007300836
FINAL SINGLE POINT ENERGY      -421.449292600287

DIPOLE MOMENT
-------------

Method             : SCF
Type of density    : Electron Density
Multiplicity       :   1
Irrep              :   0
Energy             :  -421.4548416439350831 Eh
Relativity type    :
Basis              : AO
                                X                 Y                 Z
Electronic contribution:     14.265476310      -1.893108321      -0.154091903
Nuclear contribution   :    -14.480861948       1.950903199       0.172408682
                        -----------------------------------------
Total Dipole Moment    :     -0.215385638       0.057794878       0.018316779
                        -----------------------------------------
Magnitude (a.u.)       :      0.223755950
Magnitude (Debye)      :      0.568742427

Rotational constants in cm-1:             0.111659             0.025675             0.021882
Rotational constants in MHz :          3347.454858           769.709788           656.018673

                             ****ORCA TERMINATED NORMALLY****
TOTAL RUN TIME: 0 days 0 hours 0 minutes 35 seconds 957 msec
