                         Program Version 6.0.0  -   RELEASE  -
|  1> ! r2scan-3c def2/J RI DEFGRID2 scfconv6 printgap
|  2> %output
|  3>     printlevel normal
|  4> end
|  5> %cpcm
|  6>     smd true
|  7>     smdsolvent "water"
|  8> end
|  9> * xyz 0 1
| 10> C -2.2561533943 1.6441388968 0.0250953285
| 11> C -2.1131387058 0.1591758572 0.346356721
| 12> C -3.4739433369 -0.5308975777 0.2699905256
| 13> C -1.1290407296 -0.5250616816 -0.6153213694
| 14> C 0.3149441995 -0.3074841578 -0.2833080191
| 15> C 1.2671510297 -1.3011460827 -0.5369182551
| 16> N 2.5514103126 -1.1407599383 -0.2687627374
| 17> C 2.9157899699 0.0188554685 0.266846172
| 18> C 1.9829285314 1.0098304928 0.5288876049
| 19> N 0.6971262901 0.8474422517 0.2541360247
| 20> H -2.6773125605 1.7761133861 -0.9694579886
| 21> H -1.2861422937 2.1290176706 0.0643330243
| 22> H -2.9163674926 2.1236582879 0.743690563
| 23> H -1.7237853647 0.0583980006 1.3649460807
| 24> H -3.3966498794 -1.5774723913 0.5557672298
| 25> H -4.1796718047 -0.0455127922 0.9393450314
| 26> H -3.868514821 -0.4766232132 -0.7422083735
| 27> H -1.3068593918 -0.150232699 -1.627368444
| 28> H -1.3129595451 -1.6012674729 -0.6287091918
| 29> H 0.9886479441 -2.2530147252 -0.9679575772
| 30> H 3.9665794963 0.1398038677 0.483998796
| 31> H 2.2588018459 1.9583273686 0.9674779388
| 32> *
| 33>
| 34>                          ****END OF INPUT****

CARTESIAN COORDINATES (ANGSTROEM)
---------------------------------
  C     -2.256153    1.644139    0.025095
  C     -2.113139    0.159176    0.346357
  C     -3.473943   -0.530898    0.269991
  C     -1.129041   -0.525062   -0.615321
  C      0.314944   -0.307484   -0.283308
  C      1.267151   -1.301146   -0.536918
  N      2.551410   -1.140760   -0.268763
  C      2.915790    0.018855    0.266846
  C      1.982929    1.009830    0.528888
  N      0.697126    0.847442    0.254136
  H     -2.677313    1.776113   -0.969458
  H     -1.286142    2.129018    0.064333
  H     -2.916367    2.123658    0.743691
  H     -1.723785    0.058398    1.364946
  H     -3.396650   -1.577472    0.555767
  H     -4.179672   -0.045513    0.939345
  H     -3.868515   -0.476623   -0.742208
  H     -1.306859   -0.150233   -1.627368
  H     -1.312960   -1.601267   -0.628709
  H      0.988648   -2.253015   -0.967958
  H      3.966579    0.139804    0.483999
  H      2.258802    1.958327    0.967478

 Total Charge           Charge          ....    0
 Multiplicity           Mult            ....    1
 Number of Electrons    NEL             ....   74
 Basis Dimension        Dim             ....  260

ORBITAL ENERGIES
----------------

  NO   OCC          E(Eh)            E(eV)
   0   2.0000     -14.173793      -385.6885
   1   2.0000     -14.168451      -385.5431
   2   2.0000     -10.080955      -274.3167
   3   2.0000     -10.071736      -274.0659
   4   2.0000     -10.069234      -273.9978
   5   2.0000     -10.068894      -273.9885
   6   2.0000     -10.029771      -272.9239
   7   2.0000     -10.026791      -272.8429
   8   2.0000     -10.007329      -272.3133
   9   2.0000     -10.001530      -272.1555
  10   2.0000      -0.952510       -25.9191
  11   2.0000      -0.879061       -23.9205
  12   2.0000      -0.780413       -21.2361
  13   2.0000      -0.741489       -20.1769
  14   2.0000      -0.668782       -18.1985
  15   2.0000      -0.642041       -17.4708
  16   2.0000      -0.624371       -16.9900
  17   2.0000      -0.593365       -16.1463
  18   2.0000      -0.525093       -14.2885
  19   2.0000      -0.489159       -13.3107
  20   2.0000      -0.482719       -13.1355
  21   2.0000      -0.443982       -12.0814
  22   2.0000      -0.422949       -11.5090
  23   2.0000      -0.408274       -11.1097
  24   2.0000      -0.393618       -10.7109
  25   2.0000      -0.389758       -10.6059
  26   2.0000      -0.370784       -10.0896
  27   2.0000      -0.351308        -9.5596
  28   2.0000      -0.345183        -9.3929
  29   2.0000      -0.328893        -8.9496
  30   2.0000      -0.312515        -8.5040
  31   2.0000      -0.297679        -8.1002
  32   2.0000      -0.291234        -7.9249
  33   2.0000      -0.288672        -7.8552
  34   2.0000      -0.276058        -7.5119
  35   2.0000      -0.244096        -6.6422
  36   2.0000      -0.212723        -5.7885
  37   0.0000      -0.076626        -2.0851
  38   0.0000      -0.045330        -1.2335
  39   0.0000       0.076687         2.0868
  40   0.0000       0.093490         2.5440
  41   0.0000       0.106953         2.9103

MULLIKEN ATOMIC CHARGES
-----------------------
   0 C :   -0.599461
   1 C :    0.022478
   2 C :   -0.514008
   3 C :   -0.378955
   4 C :    0.287690
   5 C :   -0.239078
   6 N :   -0.208197
   7 C :   -0.084417
   8 C :   -0.073890
   9 N :   -0.209938
  10 H :    0.159675
  11 H :    0.177549
  12 H :    0.155779
  13 H :    0.158661
  14 H :    0.159250
  15 H :    0.158945
  16 H :    0.158691
  17 H :    0.192653
  18 H :    0.169515
  19 H :    0.170414
  20 H :    0.167682
  21 H :    0.168962
Sum of atomic charges:    0.0000000

LOEWDIN ATOMIC CHARGES
----------------------
   0 C :   -0.425058
   1 C :   -0.228185
   2 C :   -0.422433
   3 C :   -0.244165
   4 C :    0.160116
   5 C :    0.105304
   6 N :   -0.605951
   7 C :    0.085971
   8 C :    0.104833
   9 N :   -0.604765
  10 H :    0.154720
  11 H :    0.170129
  12 H :    0.153841
  13 H :    0.162803
  14 H :    0.155685
  15 H :    0.156822
  16 H :    0.157665
  17 H :    0.187995
  18 H :    0.178796
  19 H :    0.199899
  20 H :    0.197887
  21 H :    0.198092

  Mayer bond orders larger than 0.100000
B(  0-C ,  1-C ) :   0.8924 B(  0-C , 10-H ) :   0.9828 B(  0-C , 11-H ) :   0.9711
B(  0-C , 12-H ) :   0.9723 B(  1-C ,  2-C ) :   0.8765 B(  1-C ,  3-C ) :   0.8486
B(  1-C , 13-H ) :   0.9812 B(  2-C , 14-H ) :   0.9762 B(  2-C , 15-H ) :   0.9765
B(  2-C , 16-H ) :   0.9811 B(  3-C ,  4-C ) :   0.9083 B(  3-C , 17-H ) :   0.9356
B(  3-C , 18-H ) :   0.9742 B(  4-C ,  5-C ) :   1.3144 B(  4-C ,  9-N ) :   1.2894
B(  5-C ,  6-N ) :   1.4841 B(  5-C ,  8-C ) :   0.1187 B(  5-C , 19-H ) :   0.9581
B(  6-N ,  7-C ) :   1.4200 B(  7-C ,  8-C ) :   1.3215 B(  7-C , 20-H ) :   0.9603
B(  8-C ,  9-N ) :   1.4175 B(  8-C , 21-H ) :   0.9555

Dispersion correction           -0.007300836
FINAL SINGLE POINT ENERGY      -421.455349436002

DIPOLE MOMENT
-------------

Method             : SCF
Type of density    : Electron Density
Multiplicity       :   1
Irrep              :   0
Energy             :  -421.4608984796494724 Eh
Relativity type    :
Basis              : AO
                                X                 Y                 Z
Electronic contribution:     14.146988391      -1.951177554      -0.203003247
Nuclear contribution   :    -14.480861948       1.950903199       0.172408682
                        -----------------------------------------
Total Dipole Moment    :     -0.333873556      -0.000274355      -0.030594565
                        -----------------------------------------
Magnitude (a.u.)       :      0.335272507
Magnitude (Debye)      :      0.852194989

Rotational constants in cm-1:             0.111659             0.025675             0.021882
Rotational constants in MHz :          3347.454858           769.709788           656.018673

                             ****ORCA TERMINATED NORMALLY****
TOTAL RUN TIME: 0 days 0 hours 0 minutes 49 seconds 297 msec
