                         Program Version 6.0.0  -   RELEASE  -
|  1> ! r2scan-3c def2/J RI DEFGRID2 scfconv6 printgap
|  2> %output
|  3>     printlevel normal
|  4> end
|  5> * xyz 0 1
|  6> C 2.7020407374 -1.4311973052 9.05245e-05
|  7> O 1.2898840116 -1.3572966529 -0.0002375993
|  8> C 0.7060708523 -0.1206655569 -3.89966e-05
|  9> C 1.3867141229 1.08390247 0.0004814169
| 10> C 0.6887270219 2.2849834722 0.000174065
| 11> C -0.6886610294 2.2849832479 -0.0003504894
| 12> C -1.3866798164 1.08390959 -0.0002020993
| 13> C -0.7060958672 -0.1206961584 -0.0001816568
| 14> O -1.2899488045 -1.3572760024 -0.0006934831
| 15> C -2.702022652 -1.4311227641 0.0008279612
| 16> H 3.1228881002 -0.962988009 -0.8938433634
| 17> H 2.9303409006 -2.4945684463 -0.001492642
| 18> H 3.1223239586 -0.9657477138 0.8957382999
| 19> H 2.4641019965 1.1009308225 0.0013482696
| 20> H 1.2361302186 3.2142330436 0.000756224
| 21> H -1.2360911635 3.2142246364 -0.0003873876
| 22> H -2.4640742456 1.1010805272 -0.0004680693
| 23> H -2.9304113645 -2.4944763561 -0.0006935243
| 24> H -3.1237719756 -0.9627845197 -0.8926214769
| 25> H -3.1215205749 -0.9658036488 0.8969015365
| 26> *
| 27>
| 28>                          ****END OF INPUT****

CARTESIAN COORDINATES (ANGSTROEM)
---------------------------------
  C      2.702041   -1.431197    0.000091
  O      1.289884   -1.357297   -0.000238
  C      0.706071   -0.120666   -0.000039
  C      1.386714    1.083902    0.000481
  C      0.688727    2.284983    0.000174
  C     -0.688661    2.284983   -0.000350
  C     -1.386680    1.083910   -0.000202
  C     -0.706096   -0.120696   -0.000182
  O     -1.289949   -1.357276   -0.000693
  C     -2.702023   -1.431123    0.000828
  H      3.122888   -0.962988   -0.893843
  H      2.930341   -2.494568   -0.001493
  H      3.122324   -0.965748    0.895738
  H      2.464102    1.100931    0.001348
  H      1.236130    3.214233    0.000756
  H     -1.236091    3.214225   -0.000387
  H     -2.464074    1.101081   -0.000468
  H     -2.930411   -2.494476   -0.000694
  H     -3.123772   -0.962785   -0.892621
  H     -3.121521   -0.965804    0.896902

 Total Charge           Charge          ....    0
 Multiplicity           Mult            ....    1
 Number of Electrons    NEL             ....   74
 Basis Dimension        Dim             ....  250

ORBITAL ENERGIES
----------------

  NO   OCC          E(Eh)            E(eV)
   0   2.0000     -18.980229      -516.4783
   1   2.0000     -18.980215      -516.4779
   2   2.0000     -10.089759      -274.5563
   3   2.0000     -10.089399      -274.5465
   4   2.0000     -10.082956      -274.3712
   5   2.0000     -10.082949      -274.3710
   6   2.0000     -10.029436      -272.9148
   7   2.0000     -10.029427      -272.9146
   8   2.0000     -10.025174      -272.7988
   9   2.0000     -10.024679      -272.7854
  10   2.0000      -1.036536       -28.2056
  11   2.0000      -1.017216       -27.6799
  12   2.0000      -0.817504       -22.2454
  13   2.0000      -0.729693       -19.8560
  14   2.0000      -0.714916       -19.4539
  15   2.0000      -0.671315       -18.2674
  16   2.0000      -0.654422       -17.8077
  17   2.0000      -0.567537       -15.4435
  18   2.0000      -0.560001       -15.2384
  19   2.0000      -0.510117       -13.8810
  20   2.0000      -0.475616       -12.9422
  21   2.0000      -0.460902       -12.5418
  22   2.0000      -0.439805       -11.9677
  23   2.0000      -0.427596       -11.6355
  24   2.0000      -0.424872       -11.5613
  25   2.0000      -0.417619       -11.3640
  26   2.0000      -0.398965       -10.8564
  27   2.0000      -0.377338       -10.2679
  28   2.0000      -0.357030        -9.7153
  29   2.0000      -0.346292        -9.4231
  30   2.0000      -0.332692        -9.0530
  31   2.0000      -0.300069        -8.1653
  32   2.0000      -0.290956        -7.9173
  33   2.0000      -0.290559        -7.9065
  34   2.0000      -0.288952        -7.8628
  35   2.0000      -0.219560        -5.9745
  36   2.0000      -0.184104        -5.0097
  37   0.0000      -0.017739        -0.4827
  38   0.0000      -0.010350        -0.2816
  39   0.0000       0.049497         1.3469
  40   0.0000       0.090565         2.4644
  41   0.0000       0.091231         2.4825

MULLIKEN ATOMIC CHARGES
-----------------------
   0 C :   -0.315080
   1 O :   -0.185688
   2 C :    0.193538
   3 C :   -0.260097
   4 C :   -0.182906
   5 C :   -0.182898
   6 C :   -0.260098
   7 C :    0.193527
   8 O :   -0.185624
   9 C :   -0.315113
  10 H :    0.151496
  11 H :    0.154511
  12 H :    0.151553
  13 H :    0.148118
  14 H :    0.144553
  15 H :    0.144552
  16 H :    0.148121
  17 H :    0.154504
  18 H :    0.151424
  19 H :    0.151608
Sum of atomic charges:    0.0000000

LOEWDIN ATOMIC CHARGES
----------------------
   0 C :   -0.050456
   1 O :   -0.662213
   2 C :    0.210956
   3 C :   -0.169673
   4 C :   -0.179025
   5 C :   -0.179031
   6 C :   -0.169671
   7 C :    0.210955
   8 O :   -0.662193
   9 C :   -0.050456
  10 H :    0.164080
  11 H :    0.180425
  12 H :    0.164071
  13 H :    0.175481
  14 H :    0.166354
  15 H :    0.166354
  16 H :    0.175480
  17 H :    0.180424
  18 H :    0.164046
  19 H :    0.164093

  Mayer bond orders larger than 0.100000
B(  0-C ,  1-O ) :   0.8546 B(  0-C , 10-H ) :   0.9633 B(  0-C , 11-H ) :   0.9685
B(  0-C , 12-H ) :   0.9632 B(  1-O ,  2-C ) :   1.0726 B(  2-C ,  3-C ) :   1.3332
B(  2-C ,  7-C ) :   1.4714 B(  3-C ,  4-C ) :   1.3482 B(  3-C , 13-H ) :   0.9320
B(  4-C ,  5-C ) :   1.4748 B(  4-C , 14-H ) :   0.9493 B(  5-C ,  6-C ) :   1.3482
B(  5-C , 15-H ) :   0.9493 B(  6-C ,  7-C ) :   1.3332 B(  6-C , 16-H ) :   0.9320
B(  7-C ,  8-O ) :   1.0726 B(  8-O ,  9-C ) :   0.8546 B(  9-C , 17-H ) :   0.9685
B(  9-C , 18-H ) :   0.9633 B(  9-C , 19-H ) :   0.9633

Dispersion correction           -0.006459582
FINAL SINGLE POINT ENERGY      -461.178726884851

DIPOLE MOMENT
-------------

Method             : SCF
Type of density    : Electron Density
Multiplicity       :   1
Irrep              :   0
Energy             :  -461.1836951559156432 Eh
Relativity type    :
Basis              : AO
                                X                 Y                 Z
Electronic contribution:      0.000155814       0.237482223      -0.003945992
Nuclear contribution   :     -0.000079907      -0.242771089       0.004900212
                        -----------------------------------------
Total Dipole Moment    :      0.000075908      -0.005288866       0.000954220
                        -----------------------------------------
Magnitude (a.u.)       :      0.005374793
Magnitude (Debye)      :      0.013661638

Rotational constants in cm-1:             0.055282             0.045151             0.025092
Rotational constants in MHz :          1657.315380          1353.585934           752.225473

                             ****ORCA TERMINATED NORMALLY****
TOTAL RUN TIME: 0 days 0 hours 0 minutes 33 seconds 324 msec
