                         Program Version 6.0.0  -   RELEASE  -
|  1> ! r2scan-3c def2/J RI DEFGRID2 scfconv6 printgap
|  2> %output
|  3>     printlevel normal
|  4> end
|  5> %cpcm
|  6>     smd true
|  7>     smdsolvent "water"
|  8> end
|  9> * xyz 0 1
| 10> C 2.7020407374 -1.4311973052 9.05245e-05
| 11> O 1.2898840116 -1.3572966529 -0.0002375993
| 12> C 0.7060708523 -0.1206655569 -3.89966e-05
| 13> C 1.3867141229 1.08390247 0.0004814169
| 14> C 0.6887270219 2.2849834722 0.000174065
| 15> C -0.6886610294 2.2849832479 -0.0003504894
| 16> C -1.3866798164 1.08390959 -0.0002020993
| 17> C -0.7060958672 -0.1206961584 -0.0001816568
| 18> O -1.2899488045 -1.3572760024 -0.0006934831
| 19> C -2.702022652 -1.4311227641 0.0008279612
| 20> H 3.1228881002 -0.962988009 -0.8938433634
| 21> H 2.9303409006 -2.4945684463 -0.001492642
| 22> H 3.1223239586 -0.9657477138 0.8957382999
| 23> H 2.4641019965 1.1009308225 0.0013482696
| 24> H 1.2361302186 3.2142330436 0.000756224
| 25> H -1.2360911635 3.2142246364 -0.0003873876
| 26> H -2.4640742456 1.1010805272 -0.0004680693
| 27> H -2.9304113645 -2.4944763561 -0.0006935243
| 28> H -3.1237719756 -0.9627845197 -0.8926214769
| 29> H -3.1215205749 -0.9658036488 0.8969015365
| 30> *
| 31>
| 32>                          ****END OF INPUT****

CARTESIAN COORDINATES (ANGSTROEM)
---------------------------------
  C      2.702041   -1.431197    0.000091
  O      1.289884   -1.357297   -0.000238
  C      0.706071   -0.120666   -0.000039
  C      1.386714    1.083902    0.000481
  C      0.688727    2.284983    0.000174
  C     -0.688661    2.284983   -0.000350
  C     -1.386680    1.083910   -0.000202
  C     -0.706096   -0.120696   -0.000182
  O     -1.289949   -1.357276   -0.000693
  C     -2.702023   -1.431123    0.000828
  H      3.122888   -0.962988   -0.893843
  H      2.930341   -2.494568   -0.001493
  H      3.122324   -0.965748    0.895738
  H      2.464102    1.100931    0.001348
  H      1.236130    3.214233    0.000756
  H     -1.236091    3.214225   -0.000387
  H     -2.464074    1.101081   -0.000468
  H     -2.930411   -2.494476   -0.000694
  H     -3.123772   -0.962785   -0.892621
  H     -3.121521   -0.965804    0.896902

 Total Charge           Charge          ....    0
 Multiplicity           Mult            ....    1
 Number of Electrons    NEL             ....   74
 Basis Dimension        Dim             ....  250

ORBITAL ENERGIES
----------------

  NO   OCC          E(Eh)            E(eV)
   0   2.0000     -18.988891      -516.7140
   1   2.0000     -18.988876      -516.7136
   2   2.0000     -10.096526      -274.7404
   3   2.0000     -10.096166      -274.7307
   4   2.0000     -10.073069      -274.1021
   5   2.0000     -10.073064      -274.1020
   6   2.0000     -10.032406      -272.9956
   7   2.0000     -10.032397      -272.9954
   8   2.0000     -10.028583      -272.8916
   9   2.0000     -10.028089      -272.8782
  10   2.0000      -1.044625       -28.4257
  11   2.0000      -1.024482       -27.8776
  12   2.0000      -0.823419       -22.4064
  13   2.0000      -0.732904       -19.9433
  14   2.0000      -0.718551       -19.5528
  15   2.0000      -0.667563       -18.1653
  16   2.0000      -0.654820       -17.8186
  17   2.0000      -0.567247       -15.4356
  18   2.0000      -0.562292       -15.3007
  19   2.0000      -0.510543       -13.8926
  20   2.0000      -0.476153       -12.9568
  21   2.0000      -0.465393       -12.6640
  22   2.0000      -0.441017       -12.0007
  23   2.0000      -0.426278       -11.5996
  24   2.0000      -0.424062       -11.5393
  25   2.0000      -0.413528       -11.2527
  26   2.0000      -0.398787       -10.8515
  27   2.0000      -0.375777       -10.2254
  28   2.0000      -0.358636        -9.7590
  29   2.0000      -0.345535        -9.4025
  30   2.0000      -0.333826        -9.0839
  31   2.0000      -0.304587        -8.2882
  32   2.0000      -0.297123        -8.0851
  33   2.0000      -0.294482        -8.0133
  34   2.0000      -0.293920        -7.9980
  35   2.0000      -0.226561        -6.1650
  36   2.0000      -0.192761        -5.2453
  37   0.0000      -0.024236        -0.6595
  38   0.0000      -0.017779        -0.4838
  39   0.0000       0.047194         1.2842
  40   0.0000       0.096863         2.6358
  41   0.0000       0.097511         2.6534

MULLIKEN ATOMIC CHARGES
-----------------------
   0 C :   -0.321129
   1 O :   -0.237437
   2 C :    0.167183
   3 C :   -0.261392
   4 C :   -0.226861
   5 C :   -0.226860
   6 C :   -0.261396
   7 C :    0.167173
   8 O :   -0.237361
   9 C :   -0.321166
  10 H :    0.171317
  11 H :    0.173260
  12 H :    0.171364
  13 H :    0.186361
  14 H :    0.177331
  15 H :    0.177331
  16 H :    0.186365
  17 H :    0.173254
  18 H :    0.171278
  19 H :    0.171384
Sum of atomic charges:    0.0000000

LOEWDIN ATOMIC CHARGES
----------------------
   0 C :   -0.045152
   1 O :   -0.696872
   2 C :    0.197768
   3 C :   -0.170078
   4 C :   -0.190394
   5 C :   -0.190400
   6 C :   -0.170078
   7 C :    0.197768
   8 O :   -0.696846
   9 C :   -0.045155
  10 H :    0.174565
  11 H :    0.187612
  12 H :    0.174552
  13 H :    0.190503
  14 H :    0.177494
  15 H :    0.177495
  16 H :    0.190503
  17 H :    0.187611
  18 H :    0.174544
  19 H :    0.174561

  Mayer bond orders larger than 0.100000
B(  0-C ,  1-O ) :   0.8467 B(  0-C , 10-H ) :   0.9546 B(  0-C , 11-H ) :   0.9608
B(  0-C , 12-H ) :   0.9545 B(  1-O ,  2-C ) :   1.0453 B(  2-C ,  3-C ) :   1.3209
B(  2-C ,  7-C ) :   1.4290 B(  3-C ,  4-C ) :   1.3096 B(  3-C , 13-H ) :   0.9398
B(  4-C ,  5-C ) :   1.4195 B(  4-C , 14-H ) :   0.9650 B(  5-C ,  6-C ) :   1.3096
B(  5-C , 15-H ) :   0.9650 B(  6-C ,  7-C ) :   1.3209 B(  6-C , 16-H ) :   0.9398
B(  7-C ,  8-O ) :   1.0454 B(  8-O ,  9-C ) :   0.8467 B(  9-C , 17-H ) :   0.9608
B(  9-C , 18-H ) :   0.9545 B(  9-C , 19-H ) :   0.9545

Dispersion correction           -0.006459582
FINAL SINGLE POINT ENERGY      -461.185538764979

DIPOLE MOMENT
-------------

Method             : SCF
Type of density    : Electron Density
Multiplicity       :   1
Irrep              :   0
Energy             :  -461.1905070360439822 Eh
Relativity type    :
Basis              : AO
                                X                 Y                 Z
Electronic contribution:      0.000183351       0.469914491      -0.003541416
Nuclear contribution   :     -0.000079907      -0.242771089       0.004900212
                        -----------------------------------------
Total Dipole Moment    :      0.000103445       0.227143402       0.001358796
                        -----------------------------------------
Magnitude (a.u.)       :      0.227147490
Magnitude (Debye)      :      0.577363036

Rotational constants in cm-1:             0.055282             0.045151             0.025092
Rotational constants in MHz :          1657.315380          1353.585934           752.225473

                             ****ORCA TERMINATED NORMALLY****
TOTAL RUN TIME: 0 days 0 hours 0 minutes 40 seconds 117 msec
