                         Program Version 6.0.0  -   RELEASE  -
|  1> ! pbe def2-sv(p) def2/J RI DEFGRID1 loosescf d4 GCP(DFT/SV(P)) printgap
|  2> %output
|  3>     printlevel normal
|  4> end
|  5> * xyz 0 1
|  6> C -1.3595523894 0.3218892473 -0.1195782701
|  7> C 0.1088496472 0.5911879887 0.2428783872
|  8> C 1.0705933864 -0.3194844716 -0.5336670156
|  9> O 1.4355840278 -1.4024910949 0.2893004484
| 10> O 0.4522532898 1.9277976867 -0.0516101911
| 11> O -1.6658006506 -1.0223372289 0.1616251516
| 12> H -1.4959264695 0.5478135096 -1.1863193778
| 13> H -1.9998625285 0.9948608194 0.4681752951
| 14> H 0.2586465306 0.3682598802 1.3088712599
| 15> H 1.9499336245 0.2841706511 -0.7966462426
| 16> H 0.5909067389 -0.6700893943 -1.4540985078
| 17> H 1.9478956478 -2.0375115955 -0.2296332676
| 18> H -0.0443487882 2.527411964 0.5226756082
| 19> H -2.5855089406 -1.198688794 -0.0815230819
| 20> *
| 21>
| 22>                          ****END OF INPUT****

CARTESIAN COORDINATES (ANGSTROEM)
---------------------------------
  C     -1.359552    0.321889   -0.119578
  C      0.108850    0.591188    0.242878
  C      1.070593   -0.319484   -0.533667
  O      1.435584   -1.402491    0.289300
  O      0.452253    1.927798   -0.051610
  O     -1.665801   -1.022337    0.161625
  H     -1.495926    0.547814   -1.186319
  H     -1.999863    0.994861    0.468175
  H      0.258647    0.368260    1.308871
  H      1.949934    0.284171   -0.796646
  H      0.590907   -0.670089   -1.454099
  H      1.947896   -2.037512   -0.229633
  H     -0.044349    2.527412    0.522676
  H     -2.585509   -1.198689   -0.081523

 Total Charge           Charge          ....    0
 Multiplicity           Mult            ....    1
 Number of Electrons    NEL             ....   50
 Basis Dimension        Dim             ....  100

ORBITAL ENERGIES
----------------

  NO   OCC          E(Eh)            E(eV)
   0   2.0000     -18.746963      -510.1308
   1   2.0000     -18.744490      -510.0635
   2   2.0000     -18.733170      -509.7555
   3   2.0000      -9.931849      -270.2594
   4   2.0000      -9.928410      -270.1658
   5   2.0000      -9.919539      -269.9244
   6   2.0000      -0.929616       -25.2961
   7   2.0000      -0.916297       -24.9337
   8   2.0000      -0.907397       -24.6915
   9   2.0000      -0.674550       -18.3555
  10   2.0000      -0.599924       -16.3248
  11   2.0000      -0.519357       -14.1324
  12   2.0000      -0.486543       -13.2395
  13   2.0000      -0.457872       -12.4593
  14   2.0000      -0.428560       -11.6617
  15   2.0000      -0.416487       -11.3332
  16   2.0000      -0.379008       -10.3133
  17   2.0000      -0.348794        -9.4912
  18   2.0000      -0.346872        -9.4389
  19   2.0000      -0.292065        -7.9475
  20   2.0000      -0.287054        -7.8111
  21   2.0000      -0.259563        -7.0631
  22   2.0000      -0.216746        -5.8980
  23   2.0000      -0.215615        -5.8672
  24   2.0000      -0.200843        -5.4652
  25   0.0000       0.019734         0.5370
  26   0.0000       0.027009         0.7350
  27   0.0000       0.044539         1.2120
  28   0.0000       0.082754         2.2518
  29   0.0000       0.104143         2.8339

MULLIKEN ATOMIC CHARGES
-----------------------
   0 C :   -0.006123
   1 C :    0.005111
   2 C :    0.038060
   3 O :   -0.432626
   4 O :   -0.425940
   5 O :   -0.424197
   6 H :    0.069108
   7 H :    0.056605
   8 H :    0.082588
   9 H :    0.076853
  10 H :    0.065515
  11 H :    0.296011
  12 H :    0.298666
  13 H :    0.300369
Sum of atomic charges:   -0.0000000

LOEWDIN ATOMIC CHARGES
----------------------
   0 C :   -0.140016
   1 C :   -0.074834
   2 C :   -0.120895
   3 O :   -0.340166
   4 O :   -0.322822
   5 O :   -0.339020
   6 H :    0.093059
   7 H :    0.086011
   8 H :    0.107945
   9 H :    0.099198
  10 H :    0.096357
  11 H :    0.283936
  12 H :    0.284864
  13 H :    0.286382

  Mayer bond orders larger than 0.100000
B(  0-C ,  1-C ) :   1.0670 B(  0-C ,  5-O ) :   1.0943 B(  0-C ,  6-H ) :   0.9047
B(  0-C ,  7-H ) :   0.9183 B(  1-C ,  2-C ) :   1.0333 B(  1-C ,  4-O ) :   1.0629
B(  1-C ,  8-H ) :   0.9078 B(  2-C ,  3-O ) :   1.0943 B(  2-C ,  9-H ) :   0.9188
B(  2-C , 10-H ) :   0.9174 B(  3-O , 11-H ) :   0.8525 B(  4-O , 12-H ) :   0.8503
B(  5-O , 13-H ) :   0.8511

Dispersion correction           -0.009050366
FINAL SINGLE POINT ENERGY      -343.998198284228

DIPOLE MOMENT
-------------

Method             : SCF
Type of density    : Electron Density
Multiplicity       :   1
Irrep              :   0
Energy             :  -344.0706392443022423 Eh
Relativity type    :
Basis              : AO
                                X                 Y                 Z
Electronic contribution:      0.622078147      -0.607237095       1.010663474
Nuclear contribution   :     -1.289753223       0.758380910      -1.353012188
                        -----------------------------------------
Total Dipole Moment    :     -0.667675076       0.151143815      -0.342348714
                        -----------------------------------------
Magnitude (a.u.)       :      0.765399962
Magnitude (Debye)      :      1.945492093

Rotational constants in cm-1:             0.120486             0.111542             0.063248
Rotational constants in MHz :          3612.080591          3343.947019          1896.134722

                             ****ORCA TERMINATED NORMALLY****
TOTAL RUN TIME: 0 days 0 hours 0 minutes 6 seconds 750 msec
