                         Program Version 6.0.0  -   RELEASE  -
|  1> ! r2scan-3c def2/J RI DEFGRID2 scfconv6 printgap
|  2> %output
|  3>     printlevel normal
|  4> end
|  5> * xyz 0 1
|  6> C 2.3104773396 0.4703816298 0.5125210348
|  7> C 1.5757834332 -0.2255273022 -0.6306626931
|  8> C 0.2723429908 -0.8950328243 -0.1747131334
|  9> C -0.9738641064 -0.0107856999 -0.3378338847
| 10> H -1.095231199 0.2304207042 -1.40686452
| 11> C -2.2223346774 -0.7432208652 0.146214178
| 12> O -0.8902187355 1.1997051682 0.3992285472
| 13> H 3.1648701233 1.0271095052 0.1342760307
| 14> H 2.6725640645 -0.2667158946 1.2260444532
| 15> H 1.6553326113 1.1553548808 1.0440279213
| 16> H 1.3583289604 0.4910187966 -1.4269753827
| 17> H 2.2374561502 -0.9830046751 -1.0551356232
| 18> H 0.0982380466 -1.7989964897 -0.7596367839
| 19> H 0.3609271268 -1.1843213205 0.8737032067
| 20> H -2.3643295214 -1.6595886842 -0.4177359325
| 21> H -2.1192024999 -0.9800574263 1.2017373087
| 22> H -3.0924640071 -0.1046525403 0.0209811449
| 23> H -0.2140040697 1.7627911242 0.0016392763
| 24> *
| 25>
| 26>                          ****END OF INPUT****

CARTESIAN COORDINATES (ANGSTROEM)
---------------------------------
  C      2.310477    0.470382    0.512521
  C      1.575783   -0.225527   -0.630663
  C      0.272343   -0.895033   -0.174713
  C     -0.973864   -0.010786   -0.337834
  H     -1.095231    0.230421   -1.406865
  C     -2.222335   -0.743221    0.146214
  O     -0.890219    1.199705    0.399229
  H      3.164870    1.027110    0.134276
  H      2.672564   -0.266716    1.226044
  H      1.655333    1.155355    1.044028
  H      1.358329    0.491019   -1.426975
  H      2.237456   -0.983005   -1.055136
  H      0.098238   -1.798996   -0.759637
  H      0.360927   -1.184321    0.873703
  H     -2.364330   -1.659589   -0.417736
  H     -2.119202   -0.980057    1.201737
  H     -3.092464   -0.104653    0.020981
  H     -0.214004    1.762791    0.001639

 Total Charge           Charge          ....    0
 Multiplicity           Mult            ....    1
 Number of Electrons    NEL             ....   50
 Basis Dimension        Dim             ....  179

ORBITAL ENERGIES
----------------

  NO   OCC          E(Eh)            E(eV)
   0   2.0000     -18.944754      -515.5130
   1   2.0000     -10.080055      -274.2922
   2   2.0000     -10.030092      -272.9327
   3   2.0000     -10.022669      -272.7307
   4   2.0000     -10.017685      -272.5951
   5   2.0000     -10.014335      -272.5039
   6   2.0000      -0.982747       -26.7419
   7   2.0000      -0.762469       -20.7478
   8   2.0000      -0.717118       -19.5138
   9   2.0000      -0.647053       -17.6072
  10   2.0000      -0.570318       -15.5191
  11   2.0000      -0.542100       -14.7513
  12   2.0000      -0.486978       -13.2513
  13   2.0000      -0.434369       -11.8198
  14   2.0000      -0.413638       -11.2557
  15   2.0000      -0.390855       -10.6357
  16   2.0000      -0.370538       -10.0828
  17   2.0000      -0.359798        -9.7906
  18   2.0000      -0.352667        -9.5966
  19   2.0000      -0.332914        -9.0591
  20   2.0000      -0.317999        -8.6532
  21   2.0000      -0.309299        -8.4165
  22   2.0000      -0.299776        -8.1573
  23   2.0000      -0.280155        -7.6234
  24   2.0000      -0.230954        -6.2846
  25   0.0000       0.051640         1.4052
  26   0.0000       0.102495         2.7890
  27   0.0000       0.111151         3.0246
  28   0.0000       0.121141         3.2964
  29   0.0000       0.131850         3.5878

MULLIKEN ATOMIC CHARGES
-----------------------
   0 C :   -0.502898
   1 C :   -0.252324
   2 C :   -0.205211
   3 C :   -0.032067
   4 H :    0.136043
   5 C :   -0.483665
   6 O :   -0.423180
   7 H :    0.146098
   8 H :    0.147155
   9 H :    0.152455
  10 H :    0.138284
  11 H :    0.143621
  12 H :    0.141123
  13 H :    0.148945
  14 H :    0.138754
  15 H :    0.153132
  16 H :    0.156351
  17 H :    0.297382
Sum of atomic charges:   -0.0000000

LOEWDIN ATOMIC CHARGES
----------------------
   0 C :   -0.427961
   1 C :   -0.319099
   2 C :   -0.291687
   3 C :    0.045991
   4 H :    0.159612
   5 C :   -0.384802
   6 O :   -0.614106
   7 H :    0.149080
   8 H :    0.151543
   9 H :    0.153369
  10 H :    0.150187
  11 H :    0.154371
  12 H :    0.160929
  13 H :    0.165436
  14 H :    0.156397
  15 H :    0.161219
  16 H :    0.161533
  17 H :    0.267985

  Mayer bond orders larger than 0.100000
B(  0-C ,  1-C ) :   0.9188 B(  0-C ,  7-H ) :   0.9754 B(  0-C ,  8-H ) :   0.9796
B(  0-C ,  9-H ) :   0.9799 B(  1-C ,  2-C ) :   0.8303 B(  1-C , 10-H ) :   0.9862
B(  1-C , 11-H ) :   0.9617 B(  2-C ,  3-C ) :   0.9078 B(  2-C , 12-H ) :   0.9622
B(  2-C , 13-H ) :   0.9798 B(  3-C ,  4-H ) :   0.9674 B(  3-C ,  5-C ) :   0.9427
B(  3-C ,  6-O ) :   0.8990 B(  5-C , 14-H ) :   0.9737 B(  5-C , 15-H ) :   0.9844
B(  5-C , 16-H ) :   0.9697 B(  6-O , 17-H ) :   0.8920

Dispersion correction           -0.004270282
FINAL SINGLE POINT ENERGY      -272.900271253260

DIPOLE MOMENT
-------------

Method             : SCF
Type of density    : Electron Density
Multiplicity       :   1
Irrep              :   0
Energy             :  -272.9056102235621779 Eh
Relativity type    :
Basis              : AO
                                X                 Y                 Z
Electronic contribution:     -2.132701272       1.957764494       0.061806843
Nuclear contribution   :      2.484636077      -2.149956134      -0.523142233
                        -----------------------------------------
Total Dipole Moment    :      0.351934805      -0.192191640      -0.461335390
                        -----------------------------------------
Magnitude (a.u.)       :      0.611249602
Magnitude (Debye)      :      1.553673016

Rotational constants in cm-1:             0.212146             0.068474             0.058254
Rotational constants in MHz :          6359.976989          2052.805493          1746.419908

                             ****ORCA TERMINATED NORMALLY****
TOTAL RUN TIME: 0 days 0 hours 0 minutes 22 seconds 653 msec
