                         Program Version 6.0.0  -   RELEASE  -
|  1> ! r2scan-3c def2/J RI DEFGRID2 scfconv6 printgap
|  2> %output
|  3>     printlevel normal
|  4> end
|  5> %cpcm
|  6>     smd true
|  7>     smdsolvent "water"
|  8> end
|  9> * xyz 0 1
| 10> C 2.3104773396 0.4703816298 0.5125210348
| 11> C 1.5757834332 -0.2255273022 -0.6306626931
| 12> C 0.2723429908 -0.8950328243 -0.1747131334
| 13> C -0.9738641064 -0.0107856999 -0.3378338847
| 14> H -1.095231199 0.2304207042 -1.40686452
| 15> C -2.2223346774 -0.7432208652 0.146214178
| 16> O -0.8902187355 1.1997051682 0.3992285472
| 17> H 3.1648701233 1.0271095052 0.1342760307
| 18> H 2.6725640645 -0.2667158946 1.2260444532
| 19> H 1.6553326113 1.1553548808 1.0440279213
| 20> H 1.3583289604 0.4910187966 -1.4269753827
| 21> H 2.2374561502 -0.9830046751 -1.0551356232
| 22> H 0.0982380466 -1.7989964897 -0.7596367839
| 23> H 0.3609271268 -1.1843213205 0.8737032067
| 24> H -2.3643295214 -1.6595886842 -0.4177359325
| 25> H -2.1192024999 -0.9800574263 1.2017373087
| 26> H -3.0924640071 -0.1046525403 0.0209811449
| 27> H -0.2140040697 1.7627911242 0.0016392763
| 28> *
| 29>
| 30>                          ****END OF INPUT****

CARTESIAN COORDINATES (ANGSTROEM)
---------------------------------
  C      2.310477    0.470382    0.512521
  C      1.575783   -0.225527   -0.630663
  C      0.272343   -0.895033   -0.174713
  C     -0.973864   -0.010786   -0.337834
  H     -1.095231    0.230421   -1.406865
  C     -2.222335   -0.743221    0.146214
  O     -0.890219    1.199705    0.399229
  H      3.164870    1.027110    0.134276
  H      2.672564   -0.266716    1.226044
  H      1.655333    1.155355    1.044028
  H      1.358329    0.491019   -1.426975
  H      2.237456   -0.983005   -1.055136
  H      0.098238   -1.798996   -0.759637
  H      0.360927   -1.184321    0.873703
  H     -2.364330   -1.659589   -0.417736
  H     -2.119202   -0.980057    1.201737
  H     -3.092464   -0.104653    0.020981
  H     -0.214004    1.762791    0.001639

 Total Charge           Charge          ....    0
 Multiplicity           Mult            ....    1
 Number of Electrons    NEL             ....   50
 Basis Dimension        Dim             ....  179

ORBITAL ENERGIES
----------------

  NO   OCC          E(Eh)            E(eV)
   0   2.0000     -18.948521      -515.6155
   1   2.0000     -10.074858      -274.1508
   2   2.0000     -10.017759      -272.5971
   3   2.0000     -10.013832      -272.4902
   4   2.0000     -10.009622      -272.3757
   5   2.0000     -10.007525      -272.3186
   6   2.0000      -0.985343       -26.8125
   7   2.0000      -0.753739       -20.5103
   8   2.0000      -0.710613       -19.3368
   9   2.0000      -0.639515       -17.4021
  10   2.0000      -0.563259       -15.3271
  11   2.0000      -0.535215       -14.5640
  12   2.0000      -0.483140       -13.1469
  13   2.0000      -0.426073       -11.5940
  14   2.0000      -0.406416       -11.0591
  15   2.0000      -0.383107       -10.4249
  16   2.0000      -0.367027        -9.9873
  17   2.0000      -0.353551        -9.6206
  18   2.0000      -0.347818        -9.4646
  19   2.0000      -0.329182        -8.9575
  20   2.0000      -0.313771        -8.5381
  21   2.0000      -0.299168        -8.1408
  22   2.0000      -0.290680        -7.9098
  23   2.0000      -0.276414        -7.5216
  24   2.0000      -0.233640        -6.3577
  25   0.0000       0.069434         1.8894
  26   0.0000       0.111596         3.0367
  27   0.0000       0.120074         3.2674
  28   0.0000       0.130507         3.5513
  29   0.0000       0.138632         3.7724

MULLIKEN ATOMIC CHARGES
-----------------------
   0 C :   -0.541226
   1 C :   -0.239361
   2 C :   -0.261503
   3 C :    0.001483
   4 H :    0.150158
   5 C :   -0.530026
   6 O :   -0.509916
   7 H :    0.155149
   8 H :    0.157107
   9 H :    0.156579
  10 H :    0.154112
  11 H :    0.151891
  12 H :    0.158294
  13 H :    0.157575
  14 H :    0.162261
  15 H :    0.162937
  16 H :    0.162225
  17 H :    0.352262
Sum of atomic charges:   -0.0000000

LOEWDIN ATOMIC CHARGES
----------------------
   0 C :   -0.434579
   1 C :   -0.319075
   2 C :   -0.293096
   3 C :    0.047303
   4 H :    0.168232
   5 C :   -0.395225
   6 O :   -0.650545
   7 H :    0.152109
   8 H :    0.152213
   9 H :    0.153153
  10 H :    0.157387
  11 H :    0.156157
  12 H :    0.167295
  13 H :    0.165363
  14 H :    0.164944
  15 H :    0.161657
  16 H :    0.160841
  17 H :    0.285865

  Mayer bond orders larger than 0.100000
B(  0-C ,  1-C ) :   0.9003 B(  0-C ,  7-H ) :   0.9720 B(  0-C ,  8-H ) :   0.9785
B(  0-C ,  9-H ) :   0.9808 B(  1-C ,  2-C ) :   0.8323 B(  1-C , 10-H ) :   0.9799
B(  1-C , 11-H ) :   0.9632 B(  2-C ,  3-C ) :   0.9242 B(  2-C , 12-H ) :   0.9590
B(  2-C , 13-H ) :   0.9846 B(  3-C ,  4-H ) :   0.9601 B(  3-C ,  5-C ) :   0.9279
B(  3-C ,  6-O ) :   0.8806 B(  5-C , 14-H ) :   0.9688 B(  5-C , 15-H ) :   0.9801
B(  5-C , 16-H ) :   0.9693 B(  6-O , 17-H ) :   0.8659

Dispersion correction           -0.004270282
FINAL SINGLE POINT ENERGY      -272.906474051591

DIPOLE MOMENT
-------------

Method             : SCF
Type of density    : Electron Density
Multiplicity       :   1
Irrep              :   0
Energy             :  -272.9118130218933516 Eh
Relativity type    :
Basis              : AO
                                X                 Y                 Z
Electronic contribution:     -1.988402033       1.895271301      -0.206750802
Nuclear contribution   :      2.484636077      -2.149956134      -0.523142233
                        -----------------------------------------
Total Dipole Moment    :      0.496234044      -0.254684833      -0.729893035
                        -----------------------------------------
Magnitude (a.u.)       :      0.918616587
Magnitude (Debye)      :      2.334937803

Rotational constants in cm-1:             0.212146             0.068474             0.058254
Rotational constants in MHz :          6359.976989          2052.805493          1746.419908

                             ****ORCA TERMINATED NORMALLY****
TOTAL RUN TIME: 0 days 0 hours 0 minutes 27 seconds 96 msec
