                         Program Version 6.0.0  -   RELEASE  -
|  1> ! r2scan-3c def2/J RI DEFGRID2 scfconv6 printgap
|  2> %output
|  3>     printlevel normal
|  4> end
|  5> * xyz 0 1
|  6> C -1.6526572663 -0.623690832 1.3049291961
|  7> C -1.2179833813 -0.474380292 -0.1517285391
|  8> C -2.3925878596 0.0297322812 -0.9936033292
|  9> C 0.0319137545 0.4169362583 -0.3285208844
| 10> C -0.1817530984 1.8136268458 0.2613678752
| 11> C 1.3159745029 -0.2209378871 0.2467923388
| 12> C 1.5724815389 -1.6234665031 -0.3088699354
| 13> C 2.5383730423 0.6505715837 -0.0529858694
| 14> H -2.4910697487 -1.3140206444 1.3705885269
| 15> H -0.8445747733 -1.0150325632 1.9170631068
| 16> H -1.9690242447 0.3315478715 1.7149400759
| 17> H -0.9679395676 -1.4676139754 -0.5349759567
| 18> H -2.7896415872 0.9646896291 -0.6067871583
| 19> H -3.1967760343 -0.7027241307 -0.9813659862
| 20> H -2.0876342414 0.184678021 -2.0261127712
| 21> H 0.184113919 0.5264657565 -1.4098562791
| 22> H -1.1635627611 2.1968190236 0.0004898498
| 23> H 0.553685956 2.5118154793 -0.1275850198
| 24> H -0.0950523438 1.7913168106 1.3449955971
| 25> H 1.2137444598 -0.2935458823 1.3348417156
| 26> H 2.5585416654 -1.9672358577 -0.0040481716
| 27> H 0.8459729269 -2.3424732465 0.0586726712
| 28> H 1.5365183275 -1.6136779327 -1.3962854658
| 29> H 2.4786541133 1.6099273489 0.4514507342
| 30> H 2.6265422928 0.8236272854 -1.1236462351
| 31> H 3.4435109995 0.1521115126 0.2871699067
| 32> *
| 33>
| 34>                          ****END OF INPUT****

CARTESIAN COORDINATES (ANGSTROEM)
---------------------------------
  C     -1.652657   -0.623691    1.304929
  C     -1.217983   -0.474380   -0.151729
  C     -2.392588    0.029732   -0.993603
  C      0.031914    0.416936   -0.328521
  C     -0.181753    1.813627    0.261368
  C      1.315975   -0.220938    0.246792
  C      1.572482   -1.623467   -0.308870
  C      2.538373    0.650572   -0.052986
  H     -2.491070   -1.314021    1.370589
  H     -0.844575   -1.015033    1.917063
  H     -1.969024    0.331548    1.714940
  H     -0.967940   -1.467614   -0.534976
  H     -2.789642    0.964690   -0.606787
  H     -3.196776   -0.702724   -0.981366
  H     -2.087634    0.184678   -2.026113
  H      0.184114    0.526466   -1.409856
  H     -1.163563    2.196819    0.000490
  H      0.553686    2.511815   -0.127585
  H     -0.095052    1.791317    1.344996
  H      1.213744   -0.293546    1.334842
  H      2.558542   -1.967236   -0.004048
  H      0.845973   -2.342473    0.058673
  H      1.536518   -1.613678   -1.396285
  H      2.478654    1.609927    0.451451
  H      2.626542    0.823627   -1.123646
  H      3.443511    0.152112    0.287170

 Total Charge           Charge          ....    0
 Multiplicity           Mult            ....    1
 Number of Electrons    NEL             ....   66
 Basis Dimension        Dim             ....  242

ORBITAL ENERGIES
----------------

  NO   OCC          E(Eh)            E(eV)
   0   2.0000     -10.029366      -272.9129
   1   2.0000     -10.027605      -272.8650
   2   2.0000     -10.027092      -272.8510
   3   2.0000     -10.012319      -272.4490
   4   2.0000     -10.012054      -272.4418
   5   2.0000     -10.011857      -272.4365
   6   2.0000     -10.011769      -272.4341
   7   2.0000     -10.011007      -272.4133
   8   2.0000      -0.794058       -21.6074
   9   2.0000      -0.742503       -20.2045
  10   2.0000      -0.688137       -18.7252
  11   2.0000      -0.647470       -17.6185
  12   2.0000      -0.645263       -17.5585
  13   2.0000      -0.599526       -16.3139
  14   2.0000      -0.542390       -14.7592
  15   2.0000      -0.498784       -13.5726
  16   2.0000      -0.445300       -12.1172
  17   2.0000      -0.422292       -11.4911
  18   2.0000      -0.408954       -11.1282
  19   2.0000      -0.400497       -10.8981
  20   2.0000      -0.378515       -10.2999
  21   2.0000      -0.369849       -10.0641
  22   2.0000      -0.360757        -9.8167
  23   2.0000      -0.351980        -9.5779
  24   2.0000      -0.344830        -9.3833
  25   2.0000      -0.336965        -9.1693
  26   2.0000      -0.324366        -8.8264
  27   2.0000      -0.312922        -8.5150
  28   2.0000      -0.307198        -8.3593
  29   2.0000      -0.297877        -8.1056
  30   2.0000      -0.279594        -7.6081
  31   2.0000      -0.269311        -7.3283
  32   2.0000      -0.265668        -7.2292
  33   0.0000       0.077806         2.1172
  34   0.0000       0.104670         2.8482
  35   0.0000       0.110430         3.0049
  36   0.0000       0.111898         3.0449
  37   0.0000       0.121606         3.3091

MULLIKEN ATOMIC CHARGES
-----------------------
   0 C :   -0.516956
   1 C :   -0.032984
   2 C :   -0.510982
   3 C :   -0.075489
   4 C :   -0.568027
   5 C :   -0.029489
   6 C :   -0.528968
   7 C :   -0.515294
   8 H :    0.146932
   9 H :    0.155262
  10 H :    0.159360
  11 H :    0.156535
  12 H :    0.149881
  13 H :    0.149457
  14 H :    0.147201
  15 H :    0.165738
  16 H :    0.151719
  17 H :    0.158528
  18 H :    0.165805
  19 H :    0.160706
  20 H :    0.144105
  21 H :    0.153654
  22 H :    0.160116
  23 H :    0.155168
  24 H :    0.154656
  25 H :    0.143368
Sum of atomic charges:    0.0000000

LOEWDIN ATOMIC CHARGES
----------------------
   0 C :   -0.413912
   1 C :   -0.241051
   2 C :   -0.415854
   3 C :   -0.227402
   4 C :   -0.413622
   5 C :   -0.239737
   6 C :   -0.418819
   7 C :   -0.414991
   8 H :    0.153837
   9 H :    0.153662
  10 H :    0.155872
  11 H :    0.159982
  12 H :    0.150431
  13 H :    0.153104
  14 H :    0.153598
  15 H :    0.161570
  16 H :    0.154820
  17 H :    0.155084
  18 H :    0.155961
  19 H :    0.156775
  20 H :    0.152824
  21 H :    0.151507
  22 H :    0.155781
  23 H :    0.153756
  24 H :    0.155030
  25 H :    0.151796

  Mayer bond orders larger than 0.100000
B(  0-C ,  1-C ) :   0.8766 B(  0-C ,  8-H ) :   0.9714 B(  0-C ,  9-H ) :   0.9797
B(  0-C , 10-H ) :   0.9768 B(  1-C ,  2-C ) :   0.9176 B(  1-C ,  3-C ) :   0.8596
B(  1-C , 11-H ) :   0.9758 B(  2-C , 12-H ) :   0.9876 B(  2-C , 13-H ) :   0.9747
B(  2-C , 14-H ) :   0.9797 B(  3-C ,  4-C ) :   0.8377 B(  3-C ,  5-C ) :   0.8790
B(  3-C , 15-H ) :   1.0055 B(  4-C , 16-H ) :   0.9779 B(  4-C , 17-H ) :   0.9726
B(  4-C , 18-H ) :   0.9841 B(  5-C ,  6-C ) :   0.8688 B(  5-C ,  7-C ) :   0.8864
B(  5-C , 19-H ) :   0.9705 B(  6-C , 20-H ) :   0.9737 B(  6-C , 21-H ) :   0.9739
B(  6-C , 22-H ) :   0.9910 B(  7-C , 23-H ) :   0.9744 B(  7-C , 24-H ) :   0.9908
B(  7-C , 25-H ) :   0.9754

Dispersion correction           -0.008077548
FINAL SINGLE POINT ENERGY      -315.585438002696

DIPOLE MOMENT
-------------

Method             : SCF
Type of density    : Electron Density
Multiplicity       :   1
Irrep              :   0
Energy             :  -315.5903024013916820 Eh
Relativity type    :
Basis              : AO
                                X                 Y                 Z
Electronic contribution:      0.166733662      -0.392323828      -0.257596957
Nuclear contribution   :     -0.153849729       0.353381570       0.252880662
                        -----------------------------------------
Total Dipole Moment    :      0.012883933      -0.038942259      -0.004716295
                        -----------------------------------------
Magnitude (a.u.)       :      0.041288481
Magnitude (Debye)      :      0.104946979

Rotational constants in cm-1:             0.092040             0.044343             0.038046
Rotational constants in MHz :          2759.289732          1329.379353          1140.588885

                             ****ORCA TERMINATED NORMALLY****
TOTAL RUN TIME: 0 days 0 hours 0 minutes 27 seconds 967 msec
