                         Program Version 6.0.0  -   RELEASE  -
|  1> ! r2scan-3c def2/J RI DEFGRID2 scfconv6 printgap
|  2> %output
|  3>     printlevel normal
|  4> end
|  5> %cpcm
|  6>     smd true
|  7>     smdsolvent "water"
|  8> end
|  9> * xyz 0 1
| 10> C -1.6526572663 -0.623690832 1.3049291961
| 11> C -1.2179833813 -0.474380292 -0.1517285391
| 12> C -2.3925878596 0.0297322812 -0.9936033292
| 13> C 0.0319137545 0.4169362583 -0.3285208844
| 14> C -0.1817530984 1.8136268458 0.2613678752
| 15> C 1.3159745029 -0.2209378871 0.2467923388
| 16> C 1.5724815389 -1.6234665031 -0.3088699354
| 17> C 2.5383730423 0.6505715837 -0.0529858694
| 18> H -2.4910697487 -1.3140206444 1.3705885269
| 19> H -0.8445747733 -1.0150325632 1.9170631068
| 20> H -1.9690242447 0.3315478715 1.7149400759
| 21> H -0.9679395676 -1.4676139754 -0.5349759567
| 22> H -2.7896415872 0.9646896291 -0.6067871583
| 23> H -3.1967760343 -0.7027241307 -0.9813659862
| 24> H -2.0876342414 0.184678021 -2.0261127712
| 25> H 0.184113919 0.5264657565 -1.4098562791
| 26> H -1.1635627611 2.1968190236 0.0004898498
| 27> H 0.553685956 2.5118154793 -0.1275850198
| 28> H -0.0950523438 1.7913168106 1.3449955971
| 29> H 1.2137444598 -0.2935458823 1.3348417156
| 30> H 2.5585416654 -1.9672358577 -0.0040481716
| 31> H 0.8459729269 -2.3424732465 0.0586726712
| 32> H 1.5365183275 -1.6136779327 -1.3962854658
| 33> H 2.4786541133 1.6099273489 0.4514507342
| 34> H 2.6265422928 0.8236272854 -1.1236462351
| 35> H 3.4435109995 0.1521115126 0.2871699067
| 36> *
| 37>
| 38>                          ****END OF INPUT****

CARTESIAN COORDINATES (ANGSTROEM)
---------------------------------
  C     -1.652657   -0.623691    1.304929
  C     -1.217983   -0.474380   -0.151729
  C     -2.392588    0.029732   -0.993603
  C      0.031914    0.416936   -0.328521
  C     -0.181753    1.813627    0.261368
  C      1.315975   -0.220938    0.246792
  C      1.572482   -1.623467   -0.308870
  C      2.538373    0.650572   -0.052986
  H     -2.491070   -1.314021    1.370589
  H     -0.844575   -1.015033    1.917063
  H     -1.969024    0.331548    1.714940
  H     -0.967940   -1.467614   -0.534976
  H     -2.789642    0.964690   -0.606787
  H     -3.196776   -0.702724   -0.981366
  H     -2.087634    0.184678   -2.026113
  H      0.184114    0.526466   -1.409856
  H     -1.163563    2.196819    0.000490
  H      0.553686    2.511815   -0.127585
  H     -0.095052    1.791317    1.344996
  H      1.213744   -0.293546    1.334842
  H      2.558542   -1.967236   -0.004048
  H      0.845973   -2.342473    0.058673
  H      1.536518   -1.613678   -1.396285
  H      2.478654    1.609927    0.451451
  H      2.626542    0.823627   -1.123646
  H      3.443511    0.152112    0.287170

 Total Charge           Charge          ....    0
 Multiplicity           Mult            ....    1
 Number of Electrons    NEL             ....   66
 Basis Dimension        Dim             ....  242

ORBITAL ENERGIES
----------------

  NO   OCC          E(Eh)            E(eV)
   0   2.0000     -10.021100      -272.6880
   1   2.0000     -10.019646      -272.6484
   2   2.0000     -10.018666      -272.6218
   3   2.0000     -10.004024      -272.2233
   4   2.0000     -10.003989      -272.2224
   5   2.0000     -10.003929      -272.2208
   6   2.0000     -10.003820      -272.2178
   7   2.0000     -10.002744      -272.1885
   8   2.0000      -0.785888       -21.3851
   9   2.0000      -0.734654       -19.9909
  10   2.0000      -0.680350       -18.5133
  11   2.0000      -0.640141       -17.4191
  12   2.0000      -0.637822       -17.3560
  13   2.0000      -0.591800       -16.1037
  14   2.0000      -0.534657       -14.5488
  15   2.0000      -0.490705       -13.3528
  16   2.0000      -0.437161       -11.8958
  17   2.0000      -0.414428       -11.2772
  18   2.0000      -0.401133       -10.9154
  19   2.0000      -0.392608       -10.6834
  20   2.0000      -0.370511       -10.0821
  21   2.0000      -0.362195        -9.8558
  22   2.0000      -0.352954        -9.6044
  23   2.0000      -0.344202        -9.3662
  24   2.0000      -0.337011        -9.1705
  25   2.0000      -0.329119        -8.9558
  26   2.0000      -0.316406        -8.6098
  27   2.0000      -0.304924        -8.2974
  28   2.0000      -0.299218        -8.1421
  29   2.0000      -0.289838        -7.8869
  30   2.0000      -0.271268        -7.3816
  31   2.0000      -0.261187        -7.1072
  32   2.0000      -0.257695        -7.0122
  33   0.0000       0.086755         2.3607
  34   0.0000       0.112587         3.0636
  35   0.0000       0.118402         3.2219
  36   0.0000       0.120520         3.2795
  37   0.0000       0.128270         3.4904

MULLIKEN ATOMIC CHARGES
-----------------------
   0 C :   -0.558464
   1 C :   -0.015645
   2 C :   -0.557630
   3 C :   -0.076997
   4 C :   -0.599913
   5 C :   -0.015890
   6 C :   -0.573005
   7 C :   -0.555696
   8 H :    0.157428
   9 H :    0.165840
  10 H :    0.167787
  11 H :    0.162859
  12 H :    0.163628
  13 H :    0.159936
  14 H :    0.157353
  15 H :    0.173336
  16 H :    0.162525
  17 H :    0.167041
  18 H :    0.173264
  19 H :    0.169239
  20 H :    0.155658
  21 H :    0.164216
  22 H :    0.169722
  23 H :    0.163772
  24 H :    0.164522
  25 H :    0.155115
Sum of atomic charges:    0.0000000

LOEWDIN ATOMIC CHARGES
----------------------
   0 C :   -0.422052
   1 C :   -0.239256
   2 C :   -0.425239
   3 C :   -0.226887
   4 C :   -0.421106
   5 C :   -0.238062
   6 C :   -0.427204
   7 C :   -0.423607
   8 H :    0.155632
   9 H :    0.156417
  10 H :    0.157507
  11 H :    0.161786
  12 H :    0.153635
  13 H :    0.154966
  14 H :    0.155577
  15 H :    0.163668
  16 H :    0.157127
  17 H :    0.156599
  18 H :    0.157915
  19 H :    0.159302
  20 H :    0.154876
  21 H :    0.154125
  22 H :    0.157694
  23 H :    0.155571
  24 H :    0.157039
  25 H :    0.153979

  Mayer bond orders larger than 0.100000
B(  0-C ,  1-C ) :   0.8703 B(  0-C ,  8-H ) :   0.9706 B(  0-C ,  9-H ) :   0.9763
B(  0-C , 10-H ) :   0.9754 B(  1-C ,  2-C ) :   0.9056 B(  1-C ,  3-C ) :   0.8611
B(  1-C , 11-H ) :   0.9770 B(  2-C , 12-H ) :   0.9849 B(  2-C , 13-H ) :   0.9731
B(  2-C , 14-H ) :   0.9778 B(  3-C ,  4-C ) :   0.8383 B(  3-C ,  5-C ) :   0.8814
B(  3-C , 15-H ) :   1.0041 B(  4-C , 16-H ) :   0.9751 B(  4-C , 17-H ) :   0.9703
B(  4-C , 18-H ) :   0.9811 B(  5-C ,  6-C ) :   0.8619 B(  5-C ,  7-C ) :   0.8782
B(  5-C , 19-H ) :   0.9706 B(  6-C , 20-H ) :   0.9726 B(  6-C , 21-H ) :   0.9711
B(  6-C , 22-H ) :   0.9885 B(  7-C , 23-H ) :   0.9716 B(  7-C , 24-H ) :   0.9889
B(  7-C , 25-H ) :   0.9740

Dispersion correction           -0.008077548
FINAL SINGLE POINT ENERGY      -315.581211427069

DIPOLE MOMENT
-------------

Method             : SCF
Type of density    : Electron Density
Multiplicity       :   1
Irrep              :   0
Energy             :  -315.5860758257643397 Eh
Relativity type    :
Basis              : AO
                                X                 Y                 Z
Electronic contribution:      0.169061355      -0.404862095      -0.252231019
Nuclear contribution   :     -0.153849729       0.353381570       0.252880662
                        -----------------------------------------
Total Dipole Moment    :      0.015211627      -0.051480525       0.000649643
                        -----------------------------------------
Magnitude (a.u.)       :      0.053684822
Magnitude (Debye)      :      0.136455973

Rotational constants in cm-1:             0.092040             0.044343             0.038046
Rotational constants in MHz :          2759.289732          1329.379353          1140.588885

                             ****ORCA TERMINATED NORMALLY****
TOTAL RUN TIME: 0 days 0 hours 0 minutes 33 seconds 411 msec
