                         Program Version 6.0.0  -   RELEASE  -
|  1> ! pbe def2-sv(p) def2/J RI DEFGRID1 loosescf d4 GCP(DFT/SV(P)) printgap
|  2> %output
|  3>     printlevel normal
|  4> end
|  5> * xyz 0 1
|  6> C 3.3928173569 -0.4959312396 -0.9508969285
|  7> C 2.5449375461 -0.038555514 0.1986770669
|  8> C 3.0421615906 0.1041553986 1.416544752
|  9> C 1.098382853 0.2055140053 -0.1638377921
| 10> H 1.0803406442 0.6638824021 -1.1586659228
| 11> C 0.3382468891 -1.1381730461 -0.2389833124
| 12> C -1.1082185576 -1.0505419717 0.2797850627
| 13> C -1.72366214 0.2846997908 -0.007149531
| 14> C -0.9982677434 1.3814096227 0.2744418079
| 15> C 0.3806587379 1.1889276822 0.7828200464
| 16> C -3.0574886879 0.3711305322 -0.5585043054
| 17> O -3.7693406465 -0.5727168656 -0.8548265466
| 18> H 4.4026715298 -0.7262380894 -0.6238199728
| 19> H 2.960315627 -1.3832622877 -1.4096885237
| 20> H 3.4413931425 0.2809583816 -1.7127943293
| 21> H 2.4568360709 0.4314605521 2.2567247092
| 22> H 4.0779260629 -0.1060195597 1.6232974029
| 23> H 0.3214234716 -1.4793531978 -1.2743027898
| 24> H 0.8675056958 -1.8898253446 0.348612859
| 25> H -1.7203913409 -1.8393175653 -0.1590579915
| 26> H -1.1052274528 -1.1949136195 1.3635541064
| 27> H -1.3791171707 2.3755892105 0.0974843252
| 28> H 0.9308583246 2.1261246011 0.8404364301
| 29> H 0.3340381446 0.743885277 1.7794559277
| 30> H -3.4238368075 1.4042760972 -0.7106076102
| 31> *
| 32>
| 33>                          ****END OF INPUT****

CARTESIAN COORDINATES (ANGSTROEM)
---------------------------------
  C      3.392817   -0.495931   -0.950897
  C      2.544938   -0.038556    0.198677
  C      3.042162    0.104155    1.416545
  C      1.098383    0.205514   -0.163838
  H      1.080341    0.663882   -1.158666
  C      0.338247   -1.138173   -0.238983
  C     -1.108219   -1.050542    0.279785
  C     -1.723662    0.284700   -0.007150
  C     -0.998268    1.381410    0.274442
  C      0.380659    1.188928    0.782820
  C     -3.057489    0.371131   -0.558504
  O     -3.769341   -0.572717   -0.854827
  H      4.402672   -0.726238   -0.623820
  H      2.960316   -1.383262   -1.409689
  H      3.441393    0.280958   -1.712794
  H      2.456836    0.431461    2.256725
  H      4.077926   -0.106020    1.623297
  H      0.321423   -1.479353   -1.274303
  H      0.867506   -1.889825    0.348613
  H     -1.720391   -1.839318   -0.159058
  H     -1.105227   -1.194914    1.363554
  H     -1.379117    2.375589    0.097484
  H      0.930858    2.126125    0.840436
  H      0.334038    0.743885    1.779456
  H     -3.423837    1.404276   -0.710608

 Total Charge           Charge          ....    0
 Multiplicity           Mult            ....    1
 Number of Electrons    NEL             ....   82
 Basis Dimension        Dim             ....  182

ORBITAL ENERGIES
----------------

  NO   OCC          E(Eh)            E(eV)
   0   2.0000     -18.741557      -509.9837
   1   2.0000      -9.961703      -271.0717
   2   2.0000      -9.917156      -269.8595
   3   2.0000      -9.910955      -269.6908
   4   2.0000      -9.906451      -269.5682
   5   2.0000      -9.904622      -269.5185
   6   2.0000      -9.903214      -269.4802
   7   2.0000      -9.896286      -269.2916
   8   2.0000      -9.893918      -269.2272
   9   2.0000      -9.887208      -269.0446
  10   2.0000      -9.877716      -268.7863
  11   2.0000      -0.930987       -25.3334
  12   2.0000      -0.785767       -21.3818
  13   2.0000      -0.735509       -20.0142
  14   2.0000      -0.681387       -18.5415
  15   2.0000      -0.676058       -18.3965
  16   2.0000      -0.619822       -16.8662
  17   2.0000      -0.595027       -16.1915
  18   2.0000      -0.557240       -15.1633
  19   2.0000      -0.524555       -14.2739
  20   2.0000      -0.484531       -13.1848
  21   2.0000      -0.465962       -12.6795
  22   2.0000      -0.452385       -12.3100
  23   2.0000      -0.435281       -11.8446
  24   2.0000      -0.404666       -11.0115
  25   2.0000      -0.403077       -10.9683
  26   2.0000      -0.387430       -10.5425
  27   2.0000      -0.376250       -10.2383
  28   2.0000      -0.370613       -10.0849
  29   2.0000      -0.362568        -9.8660
  30   2.0000      -0.354821        -9.6552
  31   2.0000      -0.348400        -9.4804
  32   2.0000      -0.339015        -9.2251
  33   2.0000      -0.333418        -9.0728
  34   2.0000      -0.324683        -8.8351
  35   2.0000      -0.294073        -8.0021
  36   2.0000      -0.291660        -7.9365
  37   2.0000      -0.282331        -7.6826
  38   2.0000      -0.237646        -6.4667
  39   2.0000      -0.223547        -6.0830
  40   2.0000      -0.200221        -5.4483
  41   0.0000      -0.089795        -2.4434
  42   0.0000      -0.017029        -0.4634
  43   0.0000       0.019512         0.5309
  44   0.0000       0.029227         0.7953
  45   0.0000       0.046142         1.2556

MULLIKEN ATOMIC CHARGES
-----------------------
   0 C :   -0.209934
   1 C :   -0.041201
   2 C :   -0.237968
   3 C :   -0.183948
   4 H :    0.069176
   5 C :   -0.121355
   6 C :   -0.054761
   7 C :   -0.053799
   8 C :   -0.173173
   9 C :   -0.014611
  10 C :    0.037104
  11 O :   -0.174425
  12 H :    0.098416
  13 H :    0.112017
  14 H :    0.109331
  15 H :    0.088849
  16 H :    0.082903
  17 H :    0.094131
  18 H :    0.089445
  19 H :    0.096954
  20 H :    0.092263
  21 H :    0.064532
  22 H :    0.095596
  23 H :    0.103245
  24 H :    0.031212
Sum of atomic charges:    0.0000000

LOEWDIN ATOMIC CHARGES
----------------------
   0 C :   -0.320239
   1 C :   -0.048423
   2 C :   -0.272385
   3 C :   -0.125510
   4 H :    0.123822
   5 C :   -0.207097
   6 C :   -0.211802
   7 C :   -0.103495
   8 C :   -0.083364
   9 C :   -0.212527
  10 C :   -0.006782
  11 O :   -0.136077
  12 H :    0.124495
  13 H :    0.128520
  14 H :    0.129586
  15 H :    0.116482
  16 H :    0.119797
  17 H :    0.124035
  18 H :    0.125390
  19 H :    0.132225
  20 H :    0.133911
  21 H :    0.125580
  22 H :    0.128306
  23 H :    0.137818
  24 H :    0.077735

  Mayer bond orders larger than 0.100000
B(  0-C ,  1-C ) :   1.1210 B(  0-C , 12-H ) :   0.9391 B(  0-C , 13-H ) :   0.9322
B(  0-C , 14-H ) :   0.9288 B(  1-C ,  2-C ) :   2.0405 B(  1-C ,  3-C ) :   0.9982
B(  2-C , 15-H ) :   0.9041 B(  2-C , 16-H ) :   0.8988 B(  3-C ,  4-H ) :   0.8793
B(  3-C ,  5-C ) :   1.0700 B(  3-C ,  9-C ) :   1.1221 B(  5-C ,  6-C ) :   1.1493
B(  5-C , 17-H ) :   0.9137 B(  5-C , 18-H ) :   0.9058 B(  6-C ,  7-C ) :   1.1208
B(  6-C , 19-H ) :   0.8908 B(  6-C , 20-H ) :   0.8709 B(  7-C ,  8-C ) :   1.7004
B(  7-C , 10-C ) :   1.0407 B(  8-C ,  9-C ) :   1.0857 B(  8-C , 11-O ) :   0.1052
B(  8-C , 21-H ) :   0.9490 B(  9-C , 22-H ) :   0.9145 B(  9-C , 23-H ) :   0.8431
B( 10-C , 11-O ) :   2.0982 B( 10-C , 24-H ) :   0.9172

Dispersion correction           -0.026390220
FINAL SINGLE POINT ENERGY      -463.621424591454

DIPOLE MOMENT
-------------

Method             : SCF
Type of density    : Electron Density
Multiplicity       :   1
Irrep              :   0
Energy             :  -463.6975448952068746 Eh
Relativity type    :
Basis              : AO
                                X                 Y                 Z
Electronic contribution:    -11.263356087       1.096393111      -0.939981031
Nuclear contribution   :     12.369905089      -0.564591963       1.170008792
                        -----------------------------------------
Total Dipole Moment    :      1.106549002       0.531801148       0.230027762
                        -----------------------------------------
Magnitude (a.u.)       :      1.249070024
Magnitude (Debye)      :      3.174883690

Rotational constants in cm-1:             0.093212             0.018850             0.017420
Rotational constants in MHz :          2794.425742           565.116591           522.229387

                             ****ORCA TERMINATED NORMALLY****
TOTAL RUN TIME: 0 days 0 hours 0 minutes 18 seconds 408 msec
