                         Program Version 6.0.0  -   RELEASE  -
|  1> ! pbe def2-sv(p) def2/J RI DEFGRID1 loosescf d4 GCP(DFT/SV(P)) printgap
|  2> %output
|  3>     printlevel normal
|  4> end
|  5> * xyz 0 1
|  6> C -1.0267708813 -0.4603657513 -0.2994780263
|  7> C 0.1364526007 0.3752336025 0.2535830604
|  8> C 1.4679425095 -0.1154066081 -0.3536341753
|  9> O 1.7898756191 -1.4300267744 0.0295535809
| 10> O -0.0347934398 1.7581270326 0.0449802624
| 11> O -2.2779554634 -0.1235729978 0.250073144
| 12> H -0.7964983618 -1.5218850997 -0.1419081149
| 13> H -1.1249218059 -0.2845992056 -1.374308066
| 14> H 0.1786536059 0.2649920667 1.3445097096
| 15> H 2.2601859062 0.5887505579 -0.0721264381
| 16> H 1.3897421577 -0.1344983589 -1.4438888114
| 17> H 2.0233072543 -1.445597578 0.9684090911
| 18> H -0.259930616 1.9219568321 -0.8814265763
| 19> H -2.2538186248 -0.2460112575 1.208970512
| 20> *
| 21>
| 22>                          ****END OF INPUT****

CARTESIAN COORDINATES (ANGSTROEM)
---------------------------------
  C     -1.026771   -0.460366   -0.299478
  C      0.136453    0.375234    0.253583
  C      1.467943   -0.115407   -0.353634
  O      1.789876   -1.430027    0.029554
  O     -0.034793    1.758127    0.044980
  O     -2.277955   -0.123573    0.250073
  H     -0.796498   -1.521885   -0.141908
  H     -1.124922   -0.284599   -1.374308
  H      0.178654    0.264992    1.344510
  H      2.260186    0.588751   -0.072126
  H      1.389742   -0.134498   -1.443889
  H      2.023307   -1.445598    0.968409
  H     -0.259931    1.921957   -0.881427
  H     -2.253819   -0.246011    1.208971

 Total Charge           Charge          ....    0
 Multiplicity           Mult            ....    1
 Number of Electrons    NEL             ....   50
 Basis Dimension        Dim             ....  100

ORBITAL ENERGIES
----------------

  NO   OCC          E(Eh)            E(eV)
   0   2.0000     -18.755746      -510.3698
   1   2.0000     -18.749270      -510.1936
   2   2.0000     -18.742601      -510.0121
   3   2.0000      -9.940049      -270.4825
   4   2.0000      -9.933780      -270.3119
   5   2.0000      -9.930082      -270.2113
   6   2.0000      -0.937983       -25.5238
   7   2.0000      -0.926649       -25.2154
   8   2.0000      -0.912386       -24.8273
   9   2.0000      -0.679412       -18.4877
  10   2.0000      -0.605463       -16.4755
  11   2.0000      -0.561891       -15.2898
  12   2.0000      -0.478239       -13.0135
  13   2.0000      -0.464123       -12.6294
  14   2.0000      -0.431951       -11.7540
  15   2.0000      -0.413363       -11.2482
  16   2.0000      -0.392772       -10.6879
  17   2.0000      -0.374875       -10.2009
  18   2.0000      -0.344098        -9.3634
  19   2.0000      -0.305267        -8.3067
  20   2.0000      -0.286389        -7.7931
  21   2.0000      -0.274993        -7.4829
  22   2.0000      -0.245663        -6.6848
  23   2.0000      -0.223576        -6.0838
  24   2.0000      -0.197457        -5.3731
  25   0.0000       0.016392         0.4461
  26   0.0000       0.026912         0.7323
  27   0.0000       0.033255         0.9049
  28   0.0000       0.073914         2.0113
  29   0.0000       0.090133         2.4526

MULLIKEN ATOMIC CHARGES
-----------------------
   0 C :    0.028904
   1 C :   -0.025728
   2 C :    0.018965
   3 O :   -0.429847
   4 O :   -0.417982
   5 O :   -0.426135
   6 H :    0.081514
   7 H :    0.070557
   8 H :    0.046853
   9 H :    0.087640
  10 H :    0.073989
  11 H :    0.298867
  12 H :    0.297489
  13 H :    0.294916
Sum of atomic charges:    0.0000000

LOEWDIN ATOMIC CHARGES
----------------------
   0 C :   -0.141281
   1 C :   -0.104126
   2 C :   -0.141164
   3 O :   -0.333981
   4 O :   -0.317977
   5 O :   -0.337329
   6 H :    0.101877
   7 H :    0.108776
   8 H :    0.100993
   9 H :    0.100978
  10 H :    0.109750
  11 H :    0.285246
  12 H :    0.285259
  13 H :    0.282979

  Mayer bond orders larger than 0.100000
B(  0-C ,  1-C ) :   1.0368 B(  0-C ,  5-O ) :   1.0848 B(  0-C ,  6-H ) :   0.9110
B(  0-C ,  7-H ) :   0.9113 B(  1-C ,  2-C ) :   1.0044 B(  1-C ,  4-O ) :   1.0441
B(  1-C ,  8-H ) :   0.8923 B(  2-C ,  3-O ) :   1.0562 B(  2-C ,  9-H ) :   0.9227
B(  2-C , 10-H ) :   0.9176 B(  3-O , 11-H ) :   0.8521 B(  4-O , 12-H ) :   0.8517
B(  5-O , 13-H ) :   0.8544

Dispersion correction           -0.009017432
FINAL SINGLE POINT ENERGY      -344.004044969137

DIPOLE MOMENT
-------------

Method             : SCF
Type of density    : Electron Density
Multiplicity       :   1
Irrep              :   0
Energy             :  -344.0768218489062065 Eh
Relativity type    :
Basis              : AO
                                X                 Y                 Z
Electronic contribution:     -0.922560515       0.679306103       0.736731429
Nuclear contribution   :      1.321363165      -0.800875798      -0.362726112
                        -----------------------------------------
Total Dipole Moment    :      0.398802650      -0.121569695       0.374005317
                        -----------------------------------------
Magnitude (a.u.)       :      0.560091708
Magnitude (Debye)      :      1.423639984

Rotational constants in cm-1:             0.172150             0.078320             0.058595
Rotational constants in MHz :          5160.918330          2347.961744          1756.632332

                             ****ORCA TERMINATED NORMALLY****
TOTAL RUN TIME: 0 days 0 hours 0 minutes 6 seconds 502 msec
