                         Program Version 6.0.0  -   RELEASE  -
|  1> ! pbe def2-sv(p) def2/J RI DEFGRID1 loosescf d4 GCP(DFT/SV(P)) printgap
|  2> %output
|  3>     printlevel normal
|  4> end
|  5> * xyz 0 1
|  6> C 3.0729812215 -0.4562968405 1.2780452345
|  7> C 2.5956659542 0.013124049 -0.0632895273
|  8> C 3.4395616169 0.2389079997 -1.0588740474
|  9> C 1.1102517474 0.2045712329 -0.2517907762
| 10> H 0.9531421511 0.6892455392 -1.2210274123
| 11> C 0.365020963 -1.1369447656 -0.2810942842
| 12> C -1.0749201527 -0.9098131696 -0.7284739087
| 13> C -1.7165088818 0.2071816002 0.0450934941
| 14> C -0.9994022262 1.1008814658 0.7451408183
| 15> C 0.4824189202 1.0891110567 0.8303257769
| 16> C -3.1631838961 0.2987284064 0.0225244365
| 17> O -3.9135698163 -0.4634075795 -0.5612443785
| 18> H 4.1021049532 -0.7988443362 1.2149836692
| 19> H 3.0331157192 0.357503125 2.0007678526
| 20> H 2.4555798963 -1.2714688224 1.6473780302
| 21> H 3.107337551 0.5856977891 -2.0229892973
| 22> H 4.5002305254 0.0854748064 -0.952533122
| 23> H 0.8621716254 -1.8259913571 -0.9648499722
| 24> H 0.3663028504 -1.5824413324 0.7144875794
| 25> H -1.107278988 -0.6604096001 -1.7932063809
| 26> H -1.6740479905 -1.8141902113 -0.5995461981
| 27> H -1.5107170901 1.8748708482 1.3020934689
| 28> H 0.8630866118 2.1100307855 0.7558501793
| 29> H 0.7540022804 0.7204416635 1.8237912174
| 30> H -3.581788719 1.1467959021 0.5974028563
| 31> *
| 32>
| 33>                          ****END OF INPUT****

CARTESIAN COORDINATES (ANGSTROEM)
---------------------------------
  C      3.072981   -0.456297    1.278045
  C      2.595666    0.013124   -0.063290
  C      3.439562    0.238908   -1.058874
  C      1.110252    0.204571   -0.251791
  H      0.953142    0.689246   -1.221027
  C      0.365021   -1.136945   -0.281094
  C     -1.074920   -0.909813   -0.728474
  C     -1.716509    0.207182    0.045093
  C     -0.999402    1.100881    0.745141
  C      0.482419    1.089111    0.830326
  C     -3.163184    0.298728    0.022524
  O     -3.913570   -0.463408   -0.561244
  H      4.102105   -0.798844    1.214984
  H      3.033116    0.357503    2.000768
  H      2.455580   -1.271469    1.647378
  H      3.107338    0.585698   -2.022989
  H      4.500231    0.085475   -0.952533
  H      0.862172   -1.825991   -0.964850
  H      0.366303   -1.582441    0.714488
  H     -1.107279   -0.660410   -1.793206
  H     -1.674048   -1.814190   -0.599546
  H     -1.510717    1.874871    1.302093
  H      0.863087    2.110031    0.755850
  H      0.754002    0.720442    1.823791
  H     -3.581789    1.146796    0.597403

 Total Charge           Charge          ....    0
 Multiplicity           Mult            ....    1
 Number of Electrons    NEL             ....   82
 Basis Dimension        Dim             ....  182

ORBITAL ENERGIES
----------------

  NO   OCC          E(Eh)            E(eV)
   0   2.0000     -18.742150      -509.9998
   1   2.0000      -9.961673      -271.0709
   2   2.0000      -9.919800      -269.9315
   3   2.0000      -9.907580      -269.5990
   4   2.0000      -9.906651      -269.5737
   5   2.0000      -9.905477      -269.5417
   6   2.0000      -9.905086      -269.5311
   7   2.0000      -9.893635      -269.2195
   8   2.0000      -9.893450      -269.2144
   9   2.0000      -9.888700      -269.0852
  10   2.0000      -9.877114      -268.7699
  11   2.0000      -0.931710       -25.3531
  12   2.0000      -0.784155       -21.3379
  13   2.0000      -0.734504       -19.9869
  14   2.0000      -0.685218       -18.6457
  15   2.0000      -0.678999       -18.4765
  16   2.0000      -0.622559       -16.9407
  17   2.0000      -0.587537       -15.9877
  18   2.0000      -0.562025       -15.2935
  19   2.0000      -0.523310       -14.2400
  20   2.0000      -0.484403       -13.1813
  21   2.0000      -0.473799       -12.8927
  22   2.0000      -0.443044       -12.0558
  23   2.0000      -0.423813       -11.5325
  24   2.0000      -0.407376       -11.0853
  25   2.0000      -0.400416       -10.8959
  26   2.0000      -0.396218       -10.7816
  27   2.0000      -0.383999       -10.4492
  28   2.0000      -0.374626       -10.1941
  29   2.0000      -0.360383        -9.8065
  30   2.0000      -0.355080        -9.6622
  31   2.0000      -0.348823        -9.4920
  32   2.0000      -0.339472        -9.2375
  33   2.0000      -0.330752        -9.0002
  34   2.0000      -0.325322        -8.8525
  35   2.0000      -0.300042        -8.1645
  36   2.0000      -0.289729        -7.8839
  37   2.0000      -0.281880        -7.6703
  38   2.0000      -0.238646        -6.4939
  39   2.0000      -0.222245        -6.0476
  40   2.0000      -0.200214        -5.4481
  41   0.0000      -0.088192        -2.3998
  42   0.0000      -0.018013        -0.4902
  43   0.0000       0.018431         0.5015
  44   0.0000       0.033533         0.9125
  45   0.0000       0.048785         1.3275

MULLIKEN ATOMIC CHARGES
-----------------------
   0 C :   -0.235914
   1 C :   -0.011058
   2 C :   -0.231572
   3 C :   -0.168602
   4 H :    0.064233
   5 C :   -0.143565
   6 C :   -0.053404
   7 C :   -0.056931
   8 C :   -0.165010
   9 C :   -0.053595
  10 C :    0.034864
  11 O :   -0.172880
  12 H :    0.102268
  13 H :    0.120026
  14 H :    0.112799
  15 H :    0.085192
  16 H :    0.080853
  17 H :    0.090770
  18 H :    0.090303
  19 H :    0.100183
  20 H :    0.101944
  21 H :    0.066137
  22 H :    0.104285
  23 H :    0.108156
  24 H :    0.030516
Sum of atomic charges:    0.0000000

LOEWDIN ATOMIC CHARGES
----------------------
   0 C :   -0.325445
   1 C :   -0.049205
   2 C :   -0.264600
   3 C :   -0.127367
   4 H :    0.123243
   5 C :   -0.208386
   6 C :   -0.208691
   7 C :   -0.103543
   8 C :   -0.084967
   9 C :   -0.212853
  10 C :   -0.004266
  11 O :   -0.135377
  12 H :    0.128456
  13 H :    0.131368
  14 H :    0.125748
  15 H :    0.117141
  16 H :    0.116798
  17 H :    0.123139
  18 H :    0.117533
  19 H :    0.133965
  20 H :    0.134031
  21 H :    0.124658
  22 H :    0.134511
  23 H :    0.137208
  24 H :    0.076900

  Mayer bond orders larger than 0.100000
B(  0-C ,  1-C ) :   1.1077 B(  0-C , 12-H ) :   0.9338 B(  0-C , 13-H ) :   0.9223
B(  0-C , 14-H ) :   0.9314 B(  1-C ,  2-C ) :   2.0375 B(  1-C ,  3-C ) :   1.0171
B(  2-C , 15-H ) :   0.9108 B(  2-C , 16-H ) :   0.9039 B(  3-C ,  4-H ) :   0.8885
B(  3-C ,  5-C ) :   1.0512 B(  3-C ,  9-C ) :   1.0737 B(  5-C ,  6-C ) :   1.1309
B(  5-C , 17-H ) :   0.9181 B(  5-C , 18-H ) :   0.9090 B(  6-C ,  7-C ) :   1.0626
B(  6-C , 19-H ) :   0.8859 B(  6-C , 20-H ) :   0.8923 B(  7-C ,  8-C ) :   1.7632
B(  7-C , 10-C ) :   1.0203 B(  8-C ,  9-C ) :   1.0580 B(  8-C , 11-O ) :   0.1009
B(  8-C , 21-H ) :   0.9269 B(  9-C , 22-H ) :   0.9003 B(  9-C , 23-H ) :   0.8641
B( 10-C , 11-O ) :   2.1149 B( 10-C , 24-H ) :   0.9215

Dispersion correction           -0.026281369
FINAL SINGLE POINT ENERGY      -463.629268488003

DIPOLE MOMENT
-------------

Method             : SCF
Type of density    : Electron Density
Multiplicity       :   1
Irrep              :   0
Energy             :  -463.7055371273629589 Eh
Relativity type    :
Basis              : AO
                                X                 Y                 Z
Electronic contribution:    -11.144834687       0.821646070      -1.757702691
Nuclear contribution   :     12.253784718      -0.366455479       2.339540650
                        -----------------------------------------
Total Dipole Moment    :      1.108950031       0.455190591       0.581837959
                        -----------------------------------------
Magnitude (a.u.)       :      1.332480415
Magnitude (Debye)      :      3.386896055

Rotational constants in cm-1:             0.098681             0.018245             0.017116
Rotational constants in MHz :          2958.389263           546.976668           513.125990

                             ****ORCA TERMINATED NORMALLY****
TOTAL RUN TIME: 0 days 0 hours 0 minutes 19 seconds 64 msec
