                         Program Version 6.0.0  -   RELEASE  -
|  1> ! r2scan-3c def2/J RI DEFGRID2 scfconv6 printgap
|  2> %output
|  3>     printlevel normal
|  4> end
|  5> * xyz 0 1
|  6> C 2.4294601149 -0.1306914615 -0.9086283671
|  7> C 1.253637116 -0.2694368049 0.0546387149
|  8> H 1.0800968944 -1.340079775 0.2461114757
|  9> C -0.0111556434 0.3672036065 -0.537395751
| 10> C -1.3093778587 0.0535565173 0.217801824
| 11> C -2.4158207631 0.9990604371 -0.249164794
| 12> C -1.7456887247 -1.3956891111 0.0109690728
| 13> O 1.6424590988 0.3562258983 1.2691549808
| 14> H 3.3281352096 -0.5277192331 -0.4444522189
| 15> H 2.2300041656 -0.6730809873 -1.8272858576
| 16> H 2.5948579599 0.9191480832 -1.1356601403
| 17> H 0.1456334097 1.4485519991 -0.5496441419
| 18> H -0.1149899567 0.0315288322 -1.5702589725
| 19> H -1.1524308844 0.2204662111 1.2899253507
| 20> H -3.344385327 0.7879446565 0.2757631851
| 21> H -2.5887559691 0.8773487311 -1.3160701807
| 22> H -2.1430460226 2.0348556167 -0.0612249149
| 23> H -0.9890716157 -2.0920394124 0.3629859752
| 24> H -2.666295238 -1.5926050085 0.5553255996
| 25> H -1.9234251009 -1.5873750888 -1.0448416925
| 26> H 0.9090632941 0.3190273238 1.8967379592
| 27> *
| 28>
| 29>                          ****END OF INPUT****

CARTESIAN COORDINATES (ANGSTROEM)
---------------------------------
  C      2.429460   -0.130691   -0.908628
  C      1.253637   -0.269437    0.054639
  H      1.080097   -1.340080    0.246111
  C     -0.011156    0.367204   -0.537396
  C     -1.309378    0.053557    0.217802
  C     -2.415821    0.999060   -0.249165
  C     -1.745689   -1.395689    0.010969
  O      1.642459    0.356226    1.269155
  H      3.328135   -0.527719   -0.444452
  H      2.230004   -0.673081   -1.827286
  H      2.594858    0.919148   -1.135660
  H      0.145633    1.448552   -0.549644
  H     -0.114990    0.031529   -1.570259
  H     -1.152431    0.220466    1.289925
  H     -3.344385    0.787945    0.275763
  H     -2.588756    0.877349   -1.316070
  H     -2.143046    2.034856   -0.061225
  H     -0.989072   -2.092039    0.362986
  H     -2.666295   -1.592605    0.555326
  H     -1.923425   -1.587375   -1.044842
  H      0.909063    0.319027    1.896738

 Total Charge           Charge          ....    0
 Multiplicity           Mult            ....    1
 Number of Electrons    NEL             ....   58
 Basis Dimension        Dim             ....  208

ORBITAL ENERGIES
----------------

  NO   OCC          E(Eh)            E(eV)
   0   2.0000     -18.943260      -515.4723
   1   2.0000     -10.078954      -274.2623
   2   2.0000     -10.040726      -273.2221
   3   2.0000     -10.023133      -272.7433
   4   2.0000     -10.019982      -272.6576
   5   2.0000     -10.019089      -272.6333
   6   2.0000     -10.014376      -272.5050
   7   2.0000      -0.980921       -26.6922
   8   2.0000      -0.781539       -21.2667
   9   2.0000      -0.723674       -19.6922
  10   2.0000      -0.654589       -17.8123
  11   2.0000      -0.648337       -17.6421
  12   2.0000      -0.560323       -15.2472
  13   2.0000      -0.531021       -14.4498
  14   2.0000      -0.480499       -13.0750
  15   2.0000      -0.447863       -12.1870
  16   2.0000      -0.418158       -11.3786
  17   2.0000      -0.394744       -10.7415
  18   2.0000      -0.383375       -10.4322
  19   2.0000      -0.369434       -10.0528
  20   2.0000      -0.357395        -9.7252
  21   2.0000      -0.351793        -9.5728
  22   2.0000      -0.341751        -9.2995
  23   2.0000      -0.328359        -8.9351
  24   2.0000      -0.309443        -8.4204
  25   2.0000      -0.302632        -8.2350
  26   2.0000      -0.298044        -8.1102
  27   2.0000      -0.277226        -7.5437
  28   2.0000      -0.231697        -6.3048
  29   0.0000       0.055551         1.5116
  30   0.0000       0.094893         2.5822
  31   0.0000       0.101118         2.7516
  32   0.0000       0.119567         3.2536
  33   0.0000       0.121224         3.2987

MULLIKEN ATOMIC CHARGES
-----------------------
   0 C :   -0.502762
   1 C :    0.045810
   2 H :    0.126240
   3 C :   -0.296891
   4 C :   -0.016664
   5 C :   -0.471443
   6 C :   -0.504213
   7 O :   -0.422252
   8 H :    0.157709
   9 H :    0.143838
  10 H :    0.150835
  11 H :    0.160166
  12 H :    0.137927
  13 H :    0.118050
  14 H :    0.147761
  15 H :    0.145654
  16 H :    0.149248
  17 H :    0.146670
  18 H :    0.147089
  19 H :    0.153608
  20 H :    0.283619
Sum of atomic charges:   -0.0000000

LOEWDIN ATOMIC CHARGES
----------------------
   0 C :   -0.382585
   1 C :    0.050274
   2 H :    0.160425
   3 C :   -0.285209
   4 C :   -0.246465
   5 C :   -0.413756
   6 C :   -0.416667
   7 O :   -0.615915
   8 H :    0.162400
   9 H :    0.155704
  10 H :    0.161435
  11 H :    0.170777
  12 H :    0.165066
  13 H :    0.147721
  14 H :    0.152446
  15 H :    0.155072
  16 H :    0.153973
  17 H :    0.151585
  18 H :    0.153814
  19 H :    0.154779
  20 H :    0.265127

  Mayer bond orders larger than 0.100000
B(  0-C ,  1-C ) :   0.9319 B(  0-C ,  8-H ) :   0.9716 B(  0-C ,  9-H ) :   0.9799
B(  0-C , 10-H ) :   0.9802 B(  1-C ,  2-H ) :   0.9659 B(  1-C ,  3-C ) :   0.9050
B(  1-C ,  7-O ) :   0.8705 B(  3-C ,  4-C ) :   0.8898 B(  3-C , 11-H ) :   0.9755
B(  3-C , 12-H ) :   0.9706 B(  4-C ,  5-C ) :   0.9102 B(  4-C ,  6-C ) :   0.9064
B(  4-C , 13-H ) :   0.9565 B(  5-C , 14-H ) :   0.9775 B(  5-C , 15-H ) :   0.9817
B(  5-C , 16-H ) :   0.9802 B(  6-C , 17-H ) :   0.9713 B(  6-C , 18-H ) :   0.9715
B(  6-C , 19-H ) :   0.9893 B(  7-O , 20-H ) :   0.8974

Dispersion correction           -0.005489888
FINAL SINGLE POINT ENERGY      -312.203647805333

DIPOLE MOMENT
-------------

Method             : SCF
Type of density    : Electron Density
Multiplicity       :   1
Irrep              :   0
Energy             :  -312.2092549124853349 Eh
Relativity type    :
Basis              : AO
                                X                 Y                 Z
Electronic contribution:      3.746160344       0.880445176       2.960152611
Nuclear contribution   :     -4.323646025      -1.096143653      -3.098296240
                        -----------------------------------------
Total Dipole Moment    :     -0.577485681      -0.215698477      -0.138143628
                        -----------------------------------------
Magnitude (a.u.)       :      0.631742991
Magnitude (Debye)      :      1.605763071

Rotational constants in cm-1:             0.143289             0.044706             0.044004
Rotational constants in MHz :          4295.703173          1340.264440          1319.212679

                             ****ORCA TERMINATED NORMALLY****
TOTAL RUN TIME: 0 days 0 hours 0 minutes 31 seconds 201 msec
