                         Program Version 6.0.0  -   RELEASE  -
|  1> ! r2scan-3c def2/J RI DEFGRID2 scfconv6 printgap
|  2> %output
|  3>     printlevel normal
|  4> end
|  5> %cpcm
|  6>     smd true
|  7>     smdsolvent "water"
|  8> end
|  9> * xyz 0 1
| 10> C 2.4294601149 -0.1306914615 -0.9086283671
| 11> C 1.253637116 -0.2694368049 0.0546387149
| 12> H 1.0800968944 -1.340079775 0.2461114757
| 13> C -0.0111556434 0.3672036065 -0.537395751
| 14> C -1.3093778587 0.0535565173 0.217801824
| 15> C -2.4158207631 0.9990604371 -0.249164794
| 16> C -1.7456887247 -1.3956891111 0.0109690728
| 17> O 1.6424590988 0.3562258983 1.2691549808
| 18> H 3.3281352096 -0.5277192331 -0.4444522189
| 19> H 2.2300041656 -0.6730809873 -1.8272858576
| 20> H 2.5948579599 0.9191480832 -1.1356601403
| 21> H 0.1456334097 1.4485519991 -0.5496441419
| 22> H -0.1149899567 0.0315288322 -1.5702589725
| 23> H -1.1524308844 0.2204662111 1.2899253507
| 24> H -3.344385327 0.7879446565 0.2757631851
| 25> H -2.5887559691 0.8773487311 -1.3160701807
| 26> H -2.1430460226 2.0348556167 -0.0612249149
| 27> H -0.9890716157 -2.0920394124 0.3629859752
| 28> H -2.666295238 -1.5926050085 0.5553255996
| 29> H -1.9234251009 -1.5873750888 -1.0448416925
| 30> H 0.9090632941 0.3190273238 1.8967379592
| 31> *
| 32>
| 33>                          ****END OF INPUT****

CARTESIAN COORDINATES (ANGSTROEM)
---------------------------------
  C      2.429460   -0.130691   -0.908628
  C      1.253637   -0.269437    0.054639
  H      1.080097   -1.340080    0.246111
  C     -0.011156    0.367204   -0.537396
  C     -1.309378    0.053557    0.217802
  C     -2.415821    0.999060   -0.249165
  C     -1.745689   -1.395689    0.010969
  O      1.642459    0.356226    1.269155
  H      3.328135   -0.527719   -0.444452
  H      2.230004   -0.673081   -1.827286
  H      2.594858    0.919148   -1.135660
  H      0.145633    1.448552   -0.549644
  H     -0.114990    0.031529   -1.570259
  H     -1.152431    0.220466    1.289925
  H     -3.344385    0.787945    0.275763
  H     -2.588756    0.877349   -1.316070
  H     -2.143046    2.034856   -0.061225
  H     -0.989072   -2.092039    0.362986
  H     -2.666295   -1.592605    0.555326
  H     -1.923425   -1.587375   -1.044842
  H      0.909063    0.319027    1.896738

 Total Charge           Charge          ....    0
 Multiplicity           Mult            ....    1
 Number of Electrons    NEL             ....   58
 Basis Dimension        Dim             ....  208

ORBITAL ENERGIES
----------------

  NO   OCC          E(Eh)            E(eV)
   0   2.0000     -18.948216      -515.6072
   1   2.0000     -10.074305      -274.1358
   2   2.0000     -10.026697      -272.8403
   3   2.0000     -10.013410      -272.4787
   4   2.0000     -10.009999      -272.3859
   5   2.0000     -10.006581      -272.2929
   6   2.0000     -10.006214      -272.2829
   7   2.0000      -0.984715       -26.7955
   8   2.0000      -0.769886       -20.9497
   9   2.0000      -0.717959       -19.5366
  10   2.0000      -0.642137       -17.4734
  11   2.0000      -0.640395       -17.4260
  12   2.0000      -0.555402       -15.1133
  13   2.0000      -0.519683       -14.1413
  14   2.0000      -0.477538       -12.9945
  15   2.0000      -0.438405       -11.9296
  16   2.0000      -0.407709       -11.0943
  17   2.0000      -0.387687       -10.5495
  18   2.0000      -0.376644       -10.2490
  19   2.0000      -0.361716        -9.8428
  20   2.0000      -0.347576        -9.4580
  21   2.0000      -0.345067        -9.3897
  22   2.0000      -0.336981        -9.1697
  23   2.0000      -0.318807        -8.6752
  24   2.0000      -0.307104        -8.3567
  25   2.0000      -0.290826        -7.9138
  26   2.0000      -0.286643        -7.8000
  27   2.0000      -0.271149        -7.3783
  28   2.0000      -0.235708        -6.4139
  29   0.0000       0.072749         1.9796
  30   0.0000       0.107125         2.9150
  31   0.0000       0.110903         3.0178
  32   0.0000       0.130470         3.5503
  33   0.0000       0.132796         3.6136

MULLIKEN ATOMIC CHARGES
-----------------------
   0 C :   -0.546194
   1 C :    0.059055
   2 H :    0.141402
   3 C :   -0.326795
   4 C :    0.008661
   5 C :   -0.520830
   6 C :   -0.551743
   7 O :   -0.513315
   8 H :    0.162349
   9 H :    0.167298
  10 H :    0.161315
  11 H :    0.163486
  12 H :    0.155319
  13 H :    0.144472
  14 H :    0.159025
  15 H :    0.156685
  16 H :    0.158665
  17 H :    0.158583
  18 H :    0.157399
  19 H :    0.164231
  20 H :    0.340931
Sum of atomic charges:   -0.0000000

LOEWDIN ATOMIC CHARGES
----------------------
   0 C :   -0.392873
   1 C :    0.050384
   2 H :    0.168622
   3 C :   -0.285459
   4 C :   -0.242518
   5 C :   -0.423321
   6 C :   -0.424813
   7 O :   -0.653993
   8 H :    0.161169
   9 H :    0.164632
  10 H :    0.162046
  11 H :    0.170346
  12 H :    0.170911
  13 H :    0.157121
  14 H :    0.154934
  15 H :    0.156757
  16 H :    0.155461
  17 H :    0.154799
  18 H :    0.155884
  19 H :    0.156646
  20 H :    0.283266

  Mayer bond orders larger than 0.100000
B(  0-C ,  1-C ) :   0.9187 B(  0-C ,  8-H ) :   0.9717 B(  0-C ,  9-H ) :   0.9730
B(  0-C , 10-H ) :   0.9774 B(  1-C ,  2-H ) :   0.9588 B(  1-C ,  3-C ) :   0.9238
B(  1-C ,  7-O ) :   0.8527 B(  3-C ,  4-C ) :   0.8841 B(  3-C , 11-H ) :   0.9762
B(  3-C , 12-H ) :   0.9686 B(  4-C ,  5-C ) :   0.8925 B(  4-C ,  6-C ) :   0.8952
B(  4-C , 13-H ) :   0.9568 B(  5-C , 14-H ) :   0.9758 B(  5-C , 15-H ) :   0.9809
B(  5-C , 16-H ) :   0.9783 B(  6-C , 17-H ) :   0.9694 B(  6-C , 18-H ) :   0.9702
B(  6-C , 19-H ) :   0.9876 B(  7-O , 20-H ) :   0.8722

Dispersion correction           -0.005489888
FINAL SINGLE POINT ENERGY      -312.209626792438

DIPOLE MOMENT
-------------

Method             : SCF
Type of density    : Electron Density
Multiplicity       :   1
Irrep              :   0
Energy             :  -312.2152338995907712 Eh
Relativity type    :
Basis              : AO
                                X                 Y                 Z
Electronic contribution:      3.520495860       0.747652511       2.933006156
Nuclear contribution   :     -4.323646025      -1.096143653      -3.098296240
                        -----------------------------------------
Total Dipole Moment    :     -0.803150165      -0.348491142      -0.165290083
                        -----------------------------------------
Magnitude (a.u.)       :      0.890964127
Magnitude (Debye)      :      2.264650835

Rotational constants in cm-1:             0.143289             0.044706             0.044004
Rotational constants in MHz :          4295.703173          1340.264440          1319.212679

                             ****ORCA TERMINATED NORMALLY****
TOTAL RUN TIME: 0 days 0 hours 0 minutes 34 seconds 869 msec
