                         Program Version 6.0.0  -   RELEASE  -
|  1> ! pbe def2-sv(p) def2/J RI DEFGRID1 loosescf d4 GCP(DFT/SV(P)) printgap
|  2> %output
|  3>     printlevel normal
|  4> end
|  5> * xyz 0 1
|  6> C -0.1948564433 -2.5779153637 0.0175457046
|  7> C 0.0434857991 -1.0984416331 -0.2108086001
|  8> O 1.2778993933 -0.7575417656 0.3983728324
|  9> C 1.74346033 0.4938081069 0.2529274026
| 10> O 1.1490758232 1.346338817 -0.368336136
| 11> C 3.0583316344 0.6673543221 0.9386114748
| 12> O -0.9754958582 -0.3250248935 0.4094518816
| 13> C -1.7473688714 0.4682768593 -0.3527851308
| 14> O -1.711320223 0.4583801887 -1.5607155001
| 15> C -2.6373351832 1.321194342 0.4894084147
| 16> H -1.120674401 -2.8716657274 -0.4662952964
| 17> H -0.2610770683 -2.764411657 1.085084531
| 18> H 0.6339995589 -3.1385855617 -0.4007411184
| 19> H 0.07249303 -0.8304841229 -1.278664884
| 20> H 3.2797699354 -0.2064795098 1.5407424758
| 21> H 3.8270156286 0.8036554573 0.181064965
| 22> H 3.0298990459 1.566646188 1.5476027723
| 23> H -2.1149134235 2.2577752417 0.6775149049
| 24> H -3.5542307174 1.5371451444 -0.0493496837
| 25> H -2.8340834992 0.8313029496 1.4369603079
| 26> *
| 27>
| 28>                          ****END OF INPUT****

CARTESIAN COORDINATES (ANGSTROEM)
---------------------------------
  C     -0.194856   -2.577915    0.017546
  C      0.043486   -1.098442   -0.210809
  O      1.277899   -0.757542    0.398373
  C      1.743460    0.493808    0.252927
  O      1.149076    1.346339   -0.368336
  C      3.058332    0.667354    0.938611
  O     -0.975496   -0.325025    0.409452
  C     -1.747369    0.468277   -0.352785
  O     -1.711320    0.458380   -1.560716
  C     -2.637335    1.321194    0.489408
  H     -1.120674   -2.871666   -0.466295
  H     -0.261077   -2.764412    1.085085
  H      0.634000   -3.138586   -0.400741
  H      0.072493   -0.830484   -1.278665
  H      3.279770   -0.206480    1.540742
  H      3.827016    0.803655    0.181065
  H      3.029899    1.566646    1.547603
  H     -2.114913    2.257775    0.677515
  H     -3.554231    1.537145   -0.049350
  H     -2.834083    0.831303    1.436960

 Total Charge           Charge          ....    0
 Multiplicity           Mult            ....    1
 Number of Electrons    NEL             ....   78
 Basis Dimension        Dim             ....  160

ORBITAL ENERGIES
----------------

  NO   OCC          E(Eh)            E(eV)
   0   2.0000     -18.807690      -511.7833
   1   2.0000     -18.801506      -511.6150
   2   2.0000     -18.740485      -509.9545
   3   2.0000     -18.732820      -509.7459
   4   2.0000     -10.018269      -272.6110
   5   2.0000     -10.011715      -272.4326
   6   2.0000     -10.008155      -272.3357
   7   2.0000      -9.900430      -269.4044
   8   2.0000      -9.896237      -269.2903
   9   2.0000      -9.893467      -269.2149
  10   2.0000      -1.032703       -28.1013
  11   2.0000      -0.993560       -27.0361
  12   2.0000      -0.924841       -25.1662
  13   2.0000      -0.907236       -24.6872
  14   2.0000      -0.730416       -19.8756
  15   2.0000      -0.683044       -18.5866
  16   2.0000      -0.668585       -18.1931
  17   2.0000      -0.597661       -16.2632
  18   2.0000      -0.559802       -15.2330
  19   2.0000      -0.509169       -13.8552
  20   2.0000      -0.449829       -12.2405
  21   2.0000      -0.433594       -11.7987
  22   2.0000      -0.428068       -11.6483
  23   2.0000      -0.421887       -11.4801
  24   2.0000      -0.414464       -11.2781
  25   2.0000      -0.401435       -10.9236
  26   2.0000      -0.381365       -10.3775
  27   2.0000      -0.374585       -10.1930
  28   2.0000      -0.367701       -10.0057
  29   2.0000      -0.359641        -9.7863
  30   2.0000      -0.358858        -9.7650
  31   2.0000      -0.349225        -9.5029
  32   2.0000      -0.329926        -8.9777
  33   2.0000      -0.322598        -8.7783
  34   2.0000      -0.299804        -8.1581
  35   2.0000      -0.274467        -7.4686
  36   2.0000      -0.263211        -7.1623
  37   2.0000      -0.226471        -6.1626
  38   2.0000      -0.218849        -5.9552
  39   0.0000      -0.032698        -0.8898
  40   0.0000      -0.021663        -0.5895
  41   0.0000       0.045151         1.2286
  42   0.0000       0.058084         1.5805
  43   0.0000       0.063846         1.7373

MULLIKEN ATOMIC CHARGES
-----------------------
   0 C :   -0.222539
   1 C :    0.139802
   2 O :   -0.229928
   3 C :    0.091030
   4 O :   -0.196604
   5 C :   -0.247693
   6 O :   -0.247420
   7 C :    0.102258
   8 O :   -0.191871
   9 C :   -0.246696
  10 H :    0.119451
  11 H :    0.115373
  12 H :    0.118186
  13 H :    0.109166
  14 H :    0.120894
  15 H :    0.139859
  16 H :    0.135324
  17 H :    0.144800
  18 H :    0.127246
  19 H :    0.119362
Sum of atomic charges:    0.0000000

LOEWDIN ATOMIC CHARGES
----------------------
   0 C :   -0.343524
   1 C :    0.034514
   2 O :   -0.065946
   3 C :    0.039511
   4 O :   -0.157889
   5 C :   -0.359046
   6 O :   -0.073548
   7 C :    0.043494
   8 O :   -0.153091
   9 C :   -0.357590
  10 H :    0.135749
  11 H :    0.131563
  12 H :    0.134701
  13 H :    0.117347
  14 H :    0.136672
  15 H :    0.152519
  16 H :    0.148588
  17 H :    0.156055
  18 H :    0.142696
  19 H :    0.137226

  Mayer bond orders larger than 0.100000
B(  0-C ,  1-C ) :   1.1295 B(  0-C , 10-H ) :   0.9385 B(  0-C , 11-H ) :   0.9351
B(  0-C , 12-H ) :   0.9410 B(  1-C ,  2-O ) :   0.9625 B(  1-C ,  6-O ) :   0.9556
B(  1-C , 13-H ) :   0.8885 B(  2-O ,  3-C ) :   1.1593 B(  3-C ,  4-O ) :   2.0686
B(  3-C ,  5-C ) :   1.0925 B(  5-C , 14-H ) :   0.9363 B(  5-C , 15-H ) :   0.9234
B(  5-C , 16-H ) :   0.9299 B(  6-O ,  7-C ) :   1.1259 B(  7-C ,  8-O ) :   2.0812
B(  7-C ,  9-C ) :   1.0934 B(  9-C , 17-H ) :   0.9192 B(  9-C , 18-H ) :   0.9368
B(  9-C , 19-H ) :   0.9331

Dispersion correction           -0.016851489
FINAL SINGLE POINT ENERGY      -534.472314927962

DIPOLE MOMENT
-------------

Method             : SCF
Type of density    : Electron Density
Multiplicity       :   1
Irrep              :   0
Energy             :  -534.5522256863951043 Eh
Relativity type    :
Basis              : AO
                                X                 Y                 Z
Electronic contribution:     -0.513659632       2.031953962      -3.078631431
Nuclear contribution   :      0.895103081      -2.630344956       3.993051245
                        -----------------------------------------
Total Dipole Moment    :      0.381443449      -0.598390994       0.914419815
                        -----------------------------------------
Magnitude (a.u.)       :      1.157468999
Magnitude (Debye)      :      2.942052387

Rotational constants in cm-1:             0.063498             0.032747             0.025437
Rotational constants in MHz :          1903.607846           981.727527           762.582727

                             ****ORCA TERMINATED NORMALLY****
TOTAL RUN TIME: 0 days 0 hours 0 minutes 13 seconds 52 msec
