                         Program Version 6.0.0  -   RELEASE  -
|  1> ! r2scan-3c def2/J RI DEFGRID2 scfconv6 printgap
|  2> %output
|  3>     printlevel normal
|  4> end
|  5> * xyz 0 1
|  6> C -1.8550391462 -1.2411830107 -0.2743248432
|  7> C -1.2067655757 -0.0874550989 0.4827913129
|  8> C -0.1396964506 0.6592319988 -0.3265705181
|  9> C 0.3509024903 1.873257327 0.4630309766
| 10> C 1.0323201615 -0.2308312587 -0.767518594
| 11> C 1.7908564241 -0.9124739438 0.3663901225
| 12> H -2.6773720936 -1.6542429203 0.3054200773
| 13> H -2.2477151624 -0.8969080708 -1.2288182771
| 14> H -1.1412628275 -2.0385134721 -0.4631115373
| 15> H -0.7687328003 -0.4589597146 1.4105890339
| 16> H -1.9835555761 0.630850017 0.7570238864
| 17> H -0.6162849337 1.0275204717 -1.2440750688
| 18> H -0.4696361023 2.5648497079 0.6405863812
| 19> H 1.1287592275 2.3985584869 -0.0862770201
| 20> H 0.7511564669 1.5714946671 1.4275385385
| 21> H 0.6576482131 -0.9946163858 -1.4514954999
| 22> H 1.7313278084 0.3909667607 -1.3327896879
| 23> H 1.1465020337 -1.5935287387 0.9157501286
| 24> H 2.1964358968 -0.1813770704 1.060298359
| 25> H 2.6195150488 -1.4876119168 -0.0408935677
| 26> *
| 27>
| 28>                          ****END OF INPUT****

CARTESIAN COORDINATES (ANGSTROEM)
---------------------------------
  C     -1.855039   -1.241183   -0.274325
  C     -1.206766   -0.087455    0.482791
  C     -0.139696    0.659232   -0.326571
  C      0.350902    1.873257    0.463031
  C      1.032320   -0.230831   -0.767519
  C      1.790856   -0.912474    0.366390
  H     -2.677372   -1.654243    0.305420
  H     -2.247715   -0.896908   -1.228818
  H     -1.141263   -2.038513   -0.463112
  H     -0.768733   -0.458960    1.410589
  H     -1.983556    0.630850    0.757024
  H     -0.616285    1.027520   -1.244075
  H     -0.469636    2.564850    0.640586
  H      1.128759    2.398558   -0.086277
  H      0.751156    1.571495    1.427539
  H      0.657648   -0.994616   -1.451495
  H      1.731328    0.390967   -1.332790
  H      1.146502   -1.593529    0.915750
  H      2.196436   -0.181377    1.060298
  H      2.619515   -1.487612   -0.040894

 Total Charge           Charge          ....    0
 Multiplicity           Mult            ....    1
 Number of Electrons    NEL             ....   50
 Basis Dimension        Dim             ....  184

ORBITAL ENERGIES
----------------

  NO   OCC          E(Eh)            E(eV)
   0   2.0000     -10.027493      -272.8620
   1   2.0000     -10.019877      -272.6547
   2   2.0000     -10.019741      -272.6510
   3   2.0000     -10.013620      -272.4844
   4   2.0000     -10.013452      -272.4799
   5   2.0000     -10.011288      -272.4210
   6   2.0000      -0.780485       -21.2381
   7   2.0000      -0.711204       -19.3528
   8   2.0000      -0.682656       -18.5760
   9   2.0000      -0.604873       -16.4594
  10   2.0000      -0.582107       -15.8399
  11   2.0000      -0.503426       -13.6989
  12   2.0000      -0.441646       -12.0178
  13   2.0000      -0.426050       -11.5934
  14   2.0000      -0.394027       -10.7220
  15   2.0000      -0.383773       -10.4430
  16   2.0000      -0.374018       -10.1775
  17   2.0000      -0.350098        -9.5266
  18   2.0000      -0.345885        -9.4120
  19   2.0000      -0.331898        -9.0314
  20   2.0000      -0.313788        -8.5386
  21   2.0000      -0.308200        -8.3866
  22   2.0000      -0.281864        -7.6699
  23   2.0000      -0.278130        -7.5683
  24   2.0000      -0.275236        -7.4895
  25   0.0000       0.080498         2.1905
  26   0.0000       0.108089         2.9412
  27   0.0000       0.114686         3.1208
  28   0.0000       0.123049         3.3483
  29   0.0000       0.145154         3.9498

MULLIKEN ATOMIC CHARGES
-----------------------
   0 C :   -0.498320
   1 C :   -0.263785
   2 C :   -0.034058
   3 C :   -0.510511
   4 C :   -0.255291
   5 C :   -0.506398
   6 H :    0.146778
   7 H :    0.147321
   8 H :    0.150590
   9 H :    0.149201
  10 H :    0.138890
  11 H :    0.149011
  12 H :    0.145936
  13 H :    0.147352
  14 H :    0.153354
  15 H :    0.150158
  16 H :    0.139969
  17 H :    0.150501
  18 H :    0.152473
  19 H :    0.146830
Sum of atomic charges:   -0.0000000

LOEWDIN ATOMIC CHARGES
----------------------
   0 C :   -0.423913
   1 C :   -0.312348
   2 C :   -0.244707
   3 C :   -0.417736
   4 C :   -0.313097
   5 C :   -0.425050
   6 H :    0.150790
   7 H :    0.151196
   8 H :    0.149226
   9 H :    0.153976
  10 H :    0.154683
  11 H :    0.156633
  12 H :    0.153272
  13 H :    0.153051
  14 H :    0.152650
  15 H :    0.154325
  16 H :    0.154345
  17 H :    0.149752
  18 H :    0.151179
  19 H :    0.151773

  Mayer bond orders larger than 0.100000
B(  0-C ,  1-C ) :   0.8866 B(  0-C ,  6-H ) :   0.9729 B(  0-C ,  7-H ) :   0.9851
B(  0-C ,  8-H ) :   0.9811 B(  1-C ,  2-C ) :   0.9053 B(  1-C ,  9-H ) :   0.9784
B(  1-C , 10-H ) :   0.9663 B(  2-C ,  3-C ) :   0.9117 B(  2-C ,  4-C ) :   0.8810
B(  2-C , 11-H ) :   0.9740 B(  3-C , 12-H ) :   0.9739 B(  3-C , 13-H ) :   0.9772
B(  3-C , 14-H ) :   0.9865 B(  4-C ,  5-C ) :   0.8787 B(  4-C , 15-H ) :   0.9772
B(  4-C , 16-H ) :   0.9722 B(  5-C , 17-H ) :   0.9797 B(  5-C , 18-H ) :   0.9838
B(  5-C , 19-H ) :   0.9682

Dispersion correction           -0.005213099
FINAL SINGLE POINT ENERGY      -236.987223274445

DIPOLE MOMENT
-------------

Method             : SCF
Type of density    : Electron Density
Multiplicity       :   1
Irrep              :   0
Energy             :  -236.9916111255878377 Eh
Relativity type    :
Basis              : AO
                                X                 Y                 Z
Electronic contribution:     -0.327441534       0.686728699      -0.660790451
Nuclear contribution   :      0.306577187      -0.676900342       0.628329456
                        -----------------------------------------
Total Dipole Moment    :     -0.020864347       0.009828358      -0.032460994
                        -----------------------------------------
Magnitude (a.u.)       :      0.039820017
Magnitude (Debye)      :      0.101214440

Rotational constants in cm-1:             0.128459             0.091668             0.065323
Rotational constants in MHz :          3851.097553          2748.125300          1958.342521

                             ****ORCA TERMINATED NORMALLY****
TOTAL RUN TIME: 0 days 0 hours 0 minutes 15 seconds 894 msec
