                         Program Version 6.0.0  -   RELEASE  -
|  1> ! r2scan-3c def2/J RI DEFGRID2 scfconv6 printgap
|  2> %output
|  3>     printlevel normal
|  4> end
|  5> %cpcm
|  6>     smd true
|  7>     smdsolvent "water"
|  8> end
|  9> * xyz 0 1
| 10> C -1.8550391462 -1.2411830107 -0.2743248432
| 11> C -1.2067655757 -0.0874550989 0.4827913129
| 12> C -0.1396964506 0.6592319988 -0.3265705181
| 13> C 0.3509024903 1.873257327 0.4630309766
| 14> C 1.0323201615 -0.2308312587 -0.767518594
| 15> C 1.7908564241 -0.9124739438 0.3663901225
| 16> H -2.6773720936 -1.6542429203 0.3054200773
| 17> H -2.2477151624 -0.8969080708 -1.2288182771
| 18> H -1.1412628275 -2.0385134721 -0.4631115373
| 19> H -0.7687328003 -0.4589597146 1.4105890339
| 20> H -1.9835555761 0.630850017 0.7570238864
| 21> H -0.6162849337 1.0275204717 -1.2440750688
| 22> H -0.4696361023 2.5648497079 0.6405863812
| 23> H 1.1287592275 2.3985584869 -0.0862770201
| 24> H 0.7511564669 1.5714946671 1.4275385385
| 25> H 0.6576482131 -0.9946163858 -1.4514954999
| 26> H 1.7313278084 0.3909667607 -1.3327896879
| 27> H 1.1465020337 -1.5935287387 0.9157501286
| 28> H 2.1964358968 -0.1813770704 1.060298359
| 29> H 2.6195150488 -1.4876119168 -0.0408935677
| 30> *
| 31>
| 32>                          ****END OF INPUT****

CARTESIAN COORDINATES (ANGSTROEM)
---------------------------------
  C     -1.855039   -1.241183   -0.274325
  C     -1.206766   -0.087455    0.482791
  C     -0.139696    0.659232   -0.326571
  C      0.350902    1.873257    0.463031
  C      1.032320   -0.230831   -0.767519
  C      1.790856   -0.912474    0.366390
  H     -2.677372   -1.654243    0.305420
  H     -2.247715   -0.896908   -1.228818
  H     -1.141263   -2.038513   -0.463112
  H     -0.768733   -0.458960    1.410589
  H     -1.983556    0.630850    0.757024
  H     -0.616285    1.027520   -1.244075
  H     -0.469636    2.564850    0.640586
  H      1.128759    2.398558   -0.086277
  H      0.751156    1.571495    1.427539
  H      0.657648   -0.994616   -1.451495
  H      1.731328    0.390967   -1.332790
  H      1.146502   -1.593529    0.915750
  H      2.196436   -0.181377    1.060298
  H      2.619515   -1.487612   -0.040894

 Total Charge           Charge          ....    0
 Multiplicity           Mult            ....    1
 Number of Electrons    NEL             ....   50
 Basis Dimension        Dim             ....  184

ORBITAL ENERGIES
----------------

  NO   OCC          E(Eh)            E(eV)
   0   2.0000     -10.020149      -272.6621
   1   2.0000     -10.012407      -272.4515
   2   2.0000     -10.012148      -272.4444
   3   2.0000     -10.006119      -272.2803
   4   2.0000     -10.005829      -272.2725
   5   2.0000     -10.003971      -272.2219
   6   2.0000      -0.773139       -21.0382
   7   2.0000      -0.704072       -19.1588
   8   2.0000      -0.675729       -18.3875
   9   2.0000      -0.598050       -16.2738
  10   2.0000      -0.575103       -15.6493
  11   2.0000      -0.496363       -13.5067
  12   2.0000      -0.434122       -11.8131
  13   2.0000      -0.418648       -11.3920
  14   2.0000      -0.386799       -10.5253
  15   2.0000      -0.376769       -10.2524
  16   2.0000      -0.366644        -9.9769
  17   2.0000      -0.342922        -9.3314
  18   2.0000      -0.338814        -9.2196
  19   2.0000      -0.324675        -8.8348
  20   2.0000      -0.306184        -8.3317
  21   2.0000      -0.300866        -8.1870
  22   2.0000      -0.274517        -7.4700
  23   2.0000      -0.270670        -7.3653
  24   2.0000      -0.267946        -7.2912
  25   0.0000       0.088768         2.4155
  26   0.0000       0.115085         3.1316
  27   0.0000       0.121515         3.3066
  28   0.0000       0.129609         3.5268
  29   0.0000       0.151008         4.1091

MULLIKEN ATOMIC CHARGES
-----------------------
   0 C :   -0.537250
   1 C :   -0.273874
   2 C :   -0.023778
   3 C :   -0.553777
   4 C :   -0.266244
   5 C :   -0.541440
   6 H :    0.155807
   7 H :    0.157118
   8 H :    0.161704
   9 H :    0.157042
  10 H :    0.147356
  11 H :    0.154945
  12 H :    0.156780
  13 H :    0.157632
  14 H :    0.164634
  15 H :    0.156272
  16 H :    0.148037
  17 H :    0.161313
  18 H :    0.162092
  19 H :    0.155631
Sum of atomic charges:   -0.0000000

LOEWDIN ATOMIC CHARGES
----------------------
   0 C :   -0.431986
   1 C :   -0.314839
   2 C :   -0.243655
   3 C :   -0.426548
   4 C :   -0.315702
   5 C :   -0.432854
   6 H :    0.152519
   7 H :    0.153311
   8 H :    0.152126
   9 H :    0.155928
  10 H :    0.156283
  11 H :    0.158330
  12 H :    0.155228
  13 H :    0.155317
  14 H :    0.155233
  15 H :    0.155808
  16 H :    0.155968
  17 H :    0.152726
  18 H :    0.153434
  19 H :    0.153372

  Mayer bond orders larger than 0.100000
B(  0-C ,  1-C ) :   0.8802 B(  0-C ,  6-H ) :   0.9709 B(  0-C ,  7-H ) :   0.9828
B(  0-C ,  8-H ) :   0.9784 B(  1-C ,  2-C ) :   0.9028 B(  1-C ,  9-H ) :   0.9770
B(  1-C , 10-H ) :   0.9668 B(  2-C ,  3-C ) :   0.9033 B(  2-C ,  4-C ) :   0.8791
B(  2-C , 11-H ) :   0.9740 B(  3-C , 12-H ) :   0.9724 B(  3-C , 13-H ) :   0.9749
B(  3-C , 14-H ) :   0.9836 B(  4-C ,  5-C ) :   0.8739 B(  4-C , 15-H ) :   0.9767
B(  4-C , 16-H ) :   0.9727 B(  5-C , 17-H ) :   0.9770 B(  5-C , 18-H ) :   0.9807
B(  5-C , 19-H ) :   0.9663

Dispersion correction           -0.005213099
FINAL SINGLE POINT ENERGY      -236.983835574099

DIPOLE MOMENT
-------------

Method             : SCF
Type of density    : Electron Density
Multiplicity       :   1
Irrep              :   0
Energy             :  -236.9882234252412161 Eh
Relativity type    :
Basis              : AO
                                X                 Y                 Z
Electronic contribution:     -0.329900406       0.683850966      -0.665963248
Nuclear contribution   :      0.306577187      -0.676900342       0.628329456
                        -----------------------------------------
Total Dipole Moment    :     -0.023323219       0.006950624      -0.037633792
                        -----------------------------------------
Magnitude (a.u.)       :      0.044817251
Magnitude (Debye)      :      0.113916400

Rotational constants in cm-1:             0.128459             0.091668             0.065323
Rotational constants in MHz :          3851.097553          2748.125300          1958.342521

                             ****ORCA TERMINATED NORMALLY****
TOTAL RUN TIME: 0 days 0 hours 0 minutes 20 seconds 126 msec
