                         Program Version 6.0.0  -   RELEASE  -
|  1> ! r2scan-3c def2/J RI DEFGRID2 scfconv6 printgap
|  2> %output
|  3>     printlevel normal
|  4> end
|  5> * xyz 0 1
|  6> C -2.0213112351 0.8697748979 -0.6583535267
|  7> C -1.351999563 0.5082391134 0.663386694
|  8> C -0.0312255419 -0.2630921055 0.5335532426
|  9> H 0.3568254574 -0.4040852819 1.5508731252
| 10> C -0.2160699421 -1.6442321887 -0.0911631796
| 11> C 1.0187136751 0.5380872584 -0.2484924773
| 12> O 2.3183819805 -0.0049111222 -0.1423639531
| 13> H -1.3808667836 1.5118488791 -1.2567850905
| 14> H -2.2575914616 -0.0204269136 -1.233976536
| 15> H -2.9496086469 1.4016238027 -0.4637384843
| 16> H -2.041616938 -0.0987072486 1.2539885827
| 17> H -1.1618193825 1.4277158137 1.2225619422
| 18> H -0.6145257733 -1.5621173335 -1.0986064186
| 19> H -0.8947346277 -2.2471735955 0.5068806236
| 20> H 0.7440827267 -2.1514969012 -0.1508950862
| 21> H 1.0196504234 1.5837269267 0.090314432
| 22> H 0.7930805612 0.5197406413 -1.3166522461
| 23> H 2.5915211547 0.0127163815 0.7852905958
| 24> *
| 25>
| 26>                          ****END OF INPUT****

CARTESIAN COORDINATES (ANGSTROEM)
---------------------------------
  C     -2.021311    0.869775   -0.658354
  C     -1.352000    0.508239    0.663387
  C     -0.031226   -0.263092    0.533553
  H      0.356825   -0.404085    1.550873
  C     -0.216070   -1.644232   -0.091163
  C      1.018714    0.538087   -0.248492
  O      2.318382   -0.004911   -0.142364
  H     -1.380867    1.511849   -1.256785
  H     -2.257591   -0.020427   -1.233977
  H     -2.949609    1.401624   -0.463738
  H     -2.041617   -0.098707    1.253989
  H     -1.161819    1.427716    1.222562
  H     -0.614526   -1.562117   -1.098606
  H     -0.894735   -2.247174    0.506881
  H      0.744083   -2.151497   -0.150895
  H      1.019650    1.583727    0.090314
  H      0.793081    0.519741   -1.316652
  H      2.591521    0.012716    0.785291

 Total Charge           Charge          ....    0
 Multiplicity           Mult            ....    1
 Number of Electrons    NEL             ....   50
 Basis Dimension        Dim             ....  179

ORBITAL ENERGIES
----------------

  NO   OCC          E(Eh)            E(eV)
   0   2.0000     -18.946499      -515.5604
   1   2.0000     -10.071053      -274.0473
   2   2.0000     -10.033959      -273.0379
   3   2.0000     -10.028169      -272.8804
   4   2.0000     -10.018683      -272.6222
   5   2.0000     -10.012585      -272.4563
   6   2.0000      -0.983354       -26.7584
   7   2.0000      -0.776008       -21.1162
   8   2.0000      -0.696359       -18.9489
   9   2.0000      -0.641837       -17.4653
  10   2.0000      -0.603370       -16.4185
  11   2.0000      -0.526485       -14.3264
  12   2.0000      -0.465990       -12.6802
  13   2.0000      -0.441046       -12.0015
  14   2.0000      -0.422900       -11.5077
  15   2.0000      -0.401158       -10.9161
  16   2.0000      -0.380690       -10.3591
  17   2.0000      -0.353571        -9.6211
  18   2.0000      -0.351720        -9.5708
  19   2.0000      -0.330861        -9.0032
  20   2.0000      -0.328633        -8.9426
  21   2.0000      -0.297474        -8.0947
  22   2.0000      -0.292929        -7.9710
  23   2.0000      -0.277790        -7.5590
  24   2.0000      -0.232689        -6.3318
  25   0.0000       0.062388         1.6977
  26   0.0000       0.081814         2.2263
  27   0.0000       0.110780         3.0145
  28   0.0000       0.123915         3.3719
  29   0.0000       0.127724         3.4756

MULLIKEN ATOMIC CHARGES
-----------------------
   0 C :   -0.496681
   1 C :   -0.265187
   2 C :    0.024507
   3 H :    0.133150
   4 C :   -0.530023
   5 C :   -0.235857
   6 O :   -0.416534
   7 H :    0.152095
   8 H :    0.153709
   9 H :    0.147340
  10 H :    0.142925
  11 H :    0.143365
  12 H :    0.153417
  13 H :    0.146632
  14 H :    0.168656
  15 H :    0.134650
  16 H :    0.151030
  17 H :    0.292807
Sum of atomic charges:    0.0000000

LOEWDIN ATOMIC CHARGES
----------------------
   0 C :   -0.423615
   1 C :   -0.310218
   2 C :   -0.234113
   3 H :    0.157611
   4 C :   -0.413086
   5 C :    0.005521
   6 O :   -0.619799
   7 H :    0.151347
   8 H :    0.151432
   9 H :    0.152176
  10 H :    0.155635
  11 H :    0.154271
  12 H :    0.153588
  13 H :    0.152830
  14 H :    0.164378
  15 H :    0.158043
  16 H :    0.179557
  17 H :    0.264443

  Mayer bond orders larger than 0.100000
B(  0-C ,  1-C ) :   0.8893 B(  0-C ,  7-H ) :   0.9757 B(  0-C ,  8-H ) :   0.9845
B(  0-C ,  9-H ) :   0.9682 B(  1-C ,  2-C ) :   0.8876 B(  1-C , 10-H ) :   0.9761
B(  1-C , 11-H ) :   0.9710 B(  2-C ,  3-H ) :   0.9604 B(  2-C ,  4-C ) :   0.9159
B(  2-C ,  5-C ) :   0.8838 B(  4-C , 12-H ) :   0.9856 B(  4-C , 13-H ) :   0.9734
B(  4-C , 14-H ) :   0.9645 B(  5-C ,  6-O ) :   0.9582 B(  5-C , 15-H ) :   0.9781
B(  5-C , 16-H ) :   0.9736 B(  6-O , 17-H ) :   0.8955

Dispersion correction           -0.004449985
FINAL SINGLE POINT ENERGY      -272.897374745445

DIPOLE MOMENT
-------------

Method             : SCF
Type of density    : Electron Density
Multiplicity       :   1
Irrep              :   0
Energy             :  -272.9028697607310505 Eh
Relativity type    :
Basis              : AO
                                X                 Y                 Z
Electronic contribution:      5.040933468       0.197102700       0.622640559
Nuclear contribution   :     -5.402818375      -0.025060711      -0.106009264
                        -----------------------------------------
Total Dipole Moment    :     -0.361884907       0.172041989       0.516631295
                        -----------------------------------------
Magnitude (a.u.)       :      0.653809626
Magnitude (Debye)      :      1.661852000

Rotational constants in cm-1:             0.178592             0.072417             0.061750
Rotational constants in MHz :          5354.046486          2171.007223          1851.210497

                             ****ORCA TERMINATED NORMALLY****
TOTAL RUN TIME: 0 days 0 hours 0 minutes 22 seconds 757 msec
