                         Program Version 6.0.0  -   RELEASE  -
|  1> ! r2scan-3c def2/J RI DEFGRID2 scfconv6 printgap
|  2> %output
|  3>     printlevel normal
|  4> end
|  5> %cpcm
|  6>     smd true
|  7>     smdsolvent "water"
|  8> end
|  9> * xyz 0 1
| 10> C -2.0213112351 0.8697748979 -0.6583535267
| 11> C -1.351999563 0.5082391134 0.663386694
| 12> C -0.0312255419 -0.2630921055 0.5335532426
| 13> H 0.3568254574 -0.4040852819 1.5508731252
| 14> C -0.2160699421 -1.6442321887 -0.0911631796
| 15> C 1.0187136751 0.5380872584 -0.2484924773
| 16> O 2.3183819805 -0.0049111222 -0.1423639531
| 17> H -1.3808667836 1.5118488791 -1.2567850905
| 18> H -2.2575914616 -0.0204269136 -1.233976536
| 19> H -2.9496086469 1.4016238027 -0.4637384843
| 20> H -2.041616938 -0.0987072486 1.2539885827
| 21> H -1.1618193825 1.4277158137 1.2225619422
| 22> H -0.6145257733 -1.5621173335 -1.0986064186
| 23> H -0.8947346277 -2.2471735955 0.5068806236
| 24> H 0.7440827267 -2.1514969012 -0.1508950862
| 25> H 1.0196504234 1.5837269267 0.090314432
| 26> H 0.7930805612 0.5197406413 -1.3166522461
| 27> H 2.5915211547 0.0127163815 0.7852905958
| 28> *
| 29>
| 30>                          ****END OF INPUT****

CARTESIAN COORDINATES (ANGSTROEM)
---------------------------------
  C     -2.021311    0.869775   -0.658354
  C     -1.352000    0.508239    0.663387
  C     -0.031226   -0.263092    0.533553
  H      0.356825   -0.404085    1.550873
  C     -0.216070   -1.644232   -0.091163
  C      1.018714    0.538087   -0.248492
  O      2.318382   -0.004911   -0.142364
  H     -1.380867    1.511849   -1.256785
  H     -2.257591   -0.020427   -1.233977
  H     -2.949609    1.401624   -0.463738
  H     -2.041617   -0.098707    1.253989
  H     -1.161819    1.427716    1.222562
  H     -0.614526   -1.562117   -1.098606
  H     -0.894735   -2.247174    0.506881
  H      0.744083   -2.151497   -0.150895
  H      1.019650    1.583727    0.090314
  H      0.793081    0.519741   -1.316652
  H      2.591521    0.012716    0.785291

 Total Charge           Charge          ....    0
 Multiplicity           Mult            ....    1
 Number of Electrons    NEL             ....   50
 Basis Dimension        Dim             ....  179

ORBITAL ENERGIES
----------------

  NO   OCC          E(Eh)            E(eV)
   0   2.0000     -18.949272      -515.6359
   1   2.0000     -10.064304      -273.8636
   2   2.0000     -10.024089      -272.7693
   3   2.0000     -10.017070      -272.5783
   4   2.0000     -10.007500      -272.3179
   5   2.0000     -10.005909      -272.2746
   6   2.0000      -0.984887       -26.8001
   7   2.0000      -0.766606       -20.8604
   8   2.0000      -0.687339       -18.7034
   9   2.0000      -0.635956       -17.3052
  10   2.0000      -0.594440       -16.1755
  11   2.0000      -0.518467       -14.1082
  12   2.0000      -0.460600       -12.5336
  13   2.0000      -0.433238       -11.7890
  14   2.0000      -0.415412       -11.3039
  15   2.0000      -0.393488       -10.7074
  16   2.0000      -0.375658       -10.2222
  17   2.0000      -0.345755        -9.4085
  18   2.0000      -0.343871        -9.3572
  19   2.0000      -0.326251        -8.8777
  20   2.0000      -0.322738        -8.7821
  21   2.0000      -0.288822        -7.8592
  22   2.0000      -0.282747        -7.6939
  23   2.0000      -0.273064        -7.4305
  24   2.0000      -0.234944        -6.3932
  25   0.0000       0.077700         2.1143
  26   0.0000       0.093051         2.5320
  27   0.0000       0.120303         3.2736
  28   0.0000       0.132275         3.5994
  29   0.0000       0.137123         3.7313

MULLIKEN ATOMIC CHARGES
-----------------------
   0 C :   -0.529378
   1 C :   -0.284552
   2 C :    0.031409
   3 H :    0.155305
   4 C :   -0.571617
   5 C :   -0.229722
   6 O :   -0.506561
   7 H :    0.162034
   8 H :    0.162772
   9 H :    0.156301
  10 H :    0.152404
  11 H :    0.153987
  12 H :    0.169137
  13 H :    0.160765
  14 H :    0.159595
  15 H :    0.145979
  16 H :    0.162495
  17 H :    0.349647
Sum of atomic charges:    0.0000000

LOEWDIN ATOMIC CHARGES
----------------------
   0 C :   -0.431420
   1 C :   -0.310771
   2 C :   -0.230049
   3 H :    0.165437
   4 C :   -0.422127
   5 C :    0.005151
   6 O :   -0.657784
   7 H :    0.154114
   8 H :    0.153575
   9 H :    0.153803
  10 H :    0.158024
  11 H :    0.157687
  12 H :    0.157233
  13 H :    0.157097
  14 H :    0.158916
  15 H :    0.165657
  16 H :    0.181991
  17 H :    0.283465

  Mayer bond orders larger than 0.100000
B(  0-C ,  1-C ) :   0.8842 B(  0-C ,  7-H ) :   0.9730 B(  0-C ,  8-H ) :   0.9810
B(  0-C ,  9-H ) :   0.9665 B(  1-C ,  2-C ) :   0.8828 B(  1-C , 10-H ) :   0.9768
B(  1-C , 11-H ) :   0.9708 B(  2-C ,  3-H ) :   0.9589 B(  2-C ,  4-C ) :   0.9032
B(  2-C ,  5-C ) :   0.8904 B(  4-C , 12-H ) :   0.9819 B(  4-C , 13-H ) :   0.9707
B(  4-C , 14-H ) :   0.9680 B(  5-C ,  6-O ) :   0.9443 B(  5-C , 15-H ) :   0.9689
B(  5-C , 16-H ) :   0.9724 B(  6-O , 17-H ) :   0.8674

Dispersion correction           -0.004449985
FINAL SINGLE POINT ENERGY      -272.903525530447

DIPOLE MOMENT
-------------

Method             : SCF
Type of density    : Electron Density
Multiplicity       :   1
Irrep              :   0
Energy             :  -272.9090205457328580 Eh
Relativity type    :
Basis              : AO
                                X                 Y                 Z
Electronic contribution:      4.906344193       0.302031820       0.848199745
Nuclear contribution   :     -5.402818375      -0.025060711      -0.106009264
                        -----------------------------------------
Total Dipole Moment    :     -0.496474182       0.276971108       0.742190481
                        -----------------------------------------
Magnitude (a.u.)       :      0.934904444
Magnitude (Debye)      :      2.376338245

Rotational constants in cm-1:             0.178592             0.072417             0.061750
Rotational constants in MHz :          5354.046486          2171.007223          1851.210497

                             ****ORCA TERMINATED NORMALLY****
TOTAL RUN TIME: 0 days 0 hours 0 minutes 27 seconds 550 msec
