                         Program Version 6.0.0  -   RELEASE  -
|  1> ! r2scan-3c def2/J RI DEFGRID2 scfconv6 printgap
|  2> %output
|  3>     printlevel normal
|  4> end
|  5> %cpcm
|  6>     smd true
|  7>     smdsolvent "water"
|  8> end
|  9> * xyz 0 1
| 10> C -2.5347384451 -0.1140227078 0.4889838675
| 11> C -1.8012841434 -1.2503534199 0.1945858113
| 12> C -0.5208622065 -1.1363964929 -0.3203349431
| 13> C 0.0416652509 0.1131042672 -0.5507062466
| 14> C -0.7032695216 1.2482331571 -0.2500054029
| 15> C -1.9822516443 1.1365099896 0.2646611748
| 16> C 1.4461655626 0.2432993752 -1.0676795316
| 17> C 2.4365283248 0.4861764499 0.0832822915
| 18> O 2.5902397086 -0.6338276281 0.9267018858
| 19> H -3.533827069 -0.201438612 0.8886177468
| 20> H -2.226586318 -2.2282132447 0.3649765916
| 21> H 0.0459209761 -2.0265923076 -0.5530629246
| 22> H -0.2768685356 2.2253045093 -0.4263237906
| 23> H -2.5510069242 2.0264390475 0.4898031344
| 24> H 1.7426332321 -0.6663202732 -1.5918443662
| 25> H 1.516561044 1.0863617047 -1.755422358
| 26> H 3.4330864331 0.6803384145 -0.3194554374
| 27> H 2.1168551984 1.3597808627 0.6677012691
| 28> H 1.7315246459 -0.8524829252 1.3148900237
| 29> *
| 30>
| 31>                          ****END OF INPUT****

CARTESIAN COORDINATES (ANGSTROEM)
---------------------------------
  C     -2.534738   -0.114023    0.488984
  C     -1.801284   -1.250353    0.194586
  C     -0.520862   -1.136396   -0.320335
  C      0.041665    0.113104   -0.550706
  C     -0.703270    1.248233   -0.250005
  C     -1.982252    1.136510    0.264661
  C      1.446166    0.243299   -1.067680
  C      2.436528    0.486176    0.083282
  O      2.590240   -0.633828    0.926702
  H     -3.533827   -0.201439    0.888618
  H     -2.226586   -2.228213    0.364977
  H      0.045921   -2.026592   -0.553063
  H     -0.276869    2.225305   -0.426324
  H     -2.551007    2.026439    0.489803
  H      1.742633   -0.666320   -1.591844
  H      1.516561    1.086362   -1.755422
  H      3.433086    0.680338   -0.319455
  H      2.116855    1.359781    0.667701
  H      1.731525   -0.852483    1.314890

 Total Charge           Charge          ....    0
 Multiplicity           Mult            ....    1
 Number of Electrons    NEL             ....   66
 Basis Dimension        Dim             ....  226

ORBITAL ENERGIES
----------------

  NO   OCC          E(Eh)            E(eV)
   0   2.0000     -18.953075      -515.7394
   1   2.0000     -10.073418      -274.1116
   2   2.0000     -10.040999      -273.2295
   3   2.0000     -10.032409      -272.9957
   4   2.0000     -10.032212      -272.9904
   5   2.0000     -10.030456      -272.9426
   6   2.0000     -10.030124      -272.9335
   7   2.0000     -10.029991      -272.9299
   8   2.0000     -10.026856      -272.8446
   9   2.0000      -0.989560       -26.9273
  10   2.0000      -0.829080       -22.5604
  11   2.0000      -0.749541       -20.3960
  12   2.0000      -0.714565       -19.4443
  13   2.0000      -0.682580       -18.5740
  14   2.0000      -0.600282       -16.3345
  15   2.0000      -0.573201       -15.5976
  16   2.0000      -0.545431       -14.8419
  17   2.0000      -0.479098       -13.0369
  18   2.0000      -0.473210       -12.8767
  19   2.0000      -0.432186       -11.7604
  20   2.0000      -0.425254       -11.5718
  21   2.0000      -0.406645       -11.0654
  22   2.0000      -0.394185       -10.7263
  23   2.0000      -0.384971       -10.4756
  24   2.0000      -0.360562        -9.8114
  25   2.0000      -0.345334        -9.3970
  26   2.0000      -0.338593        -9.2136
  27   2.0000      -0.314696        -8.5633
  28   2.0000      -0.302598        -8.2341
  29   2.0000      -0.290259        -7.8983
  30   2.0000      -0.249437        -6.7875
  31   2.0000      -0.239151        -6.5076
  32   2.0000      -0.226016        -6.1502
  33   0.0000      -0.034130        -0.9287
  34   0.0000      -0.030433        -0.8281
  35   0.0000       0.068294         1.8584
  36   0.0000       0.092773         2.5245
  37   0.0000       0.110514         3.0073

MULLIKEN ATOMIC CHARGES
-----------------------
   0 C :   -0.177583
   1 C :   -0.198678
   2 C :   -0.245359
   3 C :    0.128977
   4 C :   -0.219520
   5 C :   -0.202399
   6 C :   -0.311552
   7 C :   -0.187253
   8 O :   -0.504850
   9 H :    0.179063
  10 H :    0.177376
  11 H :    0.183577
  12 H :    0.180698
  13 H :    0.177285
  14 H :    0.174222
  15 H :    0.173509
  16 H :    0.159026
  17 H :    0.155036
  18 H :    0.358426
Sum of atomic charges:    0.0000000

LOEWDIN ATOMIC CHARGES
----------------------
   0 C :   -0.184721
   1 C :   -0.172738
   2 C :   -0.176619
   3 C :   -0.105004
   4 C :   -0.167518
   5 C :   -0.172264
   6 C :   -0.268081
   7 C :    0.015698
   8 O :   -0.650737
   9 H :    0.176742
  10 H :    0.177333
  11 H :    0.180869
  12 H :    0.180886
  13 H :    0.177260
  14 H :    0.175792
  15 H :    0.179793
  16 H :    0.181501
  17 H :    0.167157
  18 H :    0.284653

  Mayer bond orders larger than 0.100000
B(  0-C ,  1-C ) :   1.3956 B(  0-C ,  5-C ) :   1.3804 B(  0-C ,  9-H ) :   0.9540
B(  1-C ,  2-C ) :   1.3976 B(  1-C , 10-H ) :   0.9577 B(  2-C ,  3-C ) :   1.3888
B(  2-C , 11-H ) :   0.9483 B(  3-C ,  4-C ) :   1.3647 B(  3-C ,  6-C ) :   0.7990
B(  4-C ,  5-C ) :   1.4148 B(  4-C , 12-H ) :   0.9529 B(  5-C , 13-H ) :   0.9583
B(  6-C ,  7-C ) :   0.9234 B(  6-C , 14-H ) :   0.9932 B(  6-C , 15-H ) :   0.9734
B(  7-C ,  8-O ) :   0.9376 B(  7-C , 16-H ) :   0.9713 B(  7-C , 17-H ) :   0.9780
B(  8-O , 18-H ) :   0.8591

Dispersion correction           -0.006247051
FINAL SINGLE POINT ENERGY      -386.001234297205

DIPOLE MOMENT
-------------

Method             : SCF
Type of density    : Electron Density
Multiplicity       :   1
Irrep              :   0
Energy             :  -386.0020615585355017 Eh
Relativity type    :
Basis              : AO
                                X                 Y                 Z
Electronic contribution:     -2.483758852      -0.865590546       0.632882253
Nuclear contribution   :      1.913123216       1.307023576      -0.849494130
                        -----------------------------------------
Total Dipole Moment    :     -0.570635636       0.441433029      -0.216611877
                        -----------------------------------------
Magnitude (a.u.)       :      0.753265460
Magnitude (Debye)      :      1.914648640

Rotational constants in cm-1:             0.113464             0.035924             0.031785
Rotational constants in MHz :          3401.576914          1076.979350           952.896751

                             ****ORCA TERMINATED NORMALLY****
TOTAL RUN TIME: 0 days 0 hours 0 minutes 30 seconds 339 msec
