                         Program Version 6.0.0  -   RELEASE  -
|  1> ! r2scan-3c def2/J RI DEFGRID2 scfconv6 printgap
|  2> %output
|  3>     printlevel normal
|  4> end
|  5> * xyz 0 1
|  6> C -1.971058341 -0.2635013221 0.4657695566
|  7> O -1.0033024073 -0.2136009287 -0.5640366079
|  8> C -0.0402327489 0.8159568204 -0.4214244922
|  9> C 1.1064987041 0.4192334 0.5148028877
| 10> O 1.8764489834 -0.6369992008 -0.013140862
| 11> H -2.5143840155 0.6847810327 0.5307799358
| 12> H -1.5215296535 -0.4863724753 1.4375875542
| 13> H -2.6565285233 -1.0614147734 0.1910413436
| 14> H 0.3590398736 0.9791067796 -1.4254916882
| 15> H -0.5132532732 1.7373042682 -0.0618140032
| 16> H 0.7103781341 0.1385210081 1.5005185222
| 17> H 1.7871732702 1.2630489332 0.6383812156
| 18> H 1.2709438533 -1.3318486746 -0.3121281497
| 19> *
| 20>
| 21>                          ****END OF INPUT****

CARTESIAN COORDINATES (ANGSTROEM)
---------------------------------
  C     -1.971058   -0.263501    0.465770
  O     -1.003302   -0.213601   -0.564037
  C     -0.040233    0.815957   -0.421424
  C      1.106499    0.419233    0.514803
  O      1.876449   -0.636999   -0.013141
  H     -2.514384    0.684781    0.530780
  H     -1.521530   -0.486372    1.437588
  H     -2.656529   -1.061415    0.191041
  H      0.359040    0.979107   -1.425492
  H     -0.513253    1.737304   -0.061814
  H      0.710378    0.138521    1.500519
  H      1.787173    1.263049    0.638381
  H      1.270944   -1.331849   -0.312128

 Total Charge           Charge          ....    0
 Multiplicity           Mult            ....    1
 Number of Electrons    NEL             ....   42
 Basis Dimension        Dim             ....  145

ORBITAL ENERGIES
----------------

  NO   OCC          E(Eh)            E(eV)
   0   2.0000     -18.961673      -515.9734
   1   2.0000     -18.945202      -515.5252
   2   2.0000     -10.080611      -274.3074
   3   2.0000     -10.078267      -274.2436
   4   2.0000     -10.077380      -274.2194
   5   2.0000      -1.007998       -27.4290
   6   2.0000      -0.979879       -26.6639
   7   2.0000      -0.718346       -19.5472
   8   2.0000      -0.654289       -17.8041
   9   2.0000      -0.576561       -15.6890
  10   2.0000      -0.479973       -13.0607
  11   2.0000      -0.463051       -12.6003
  12   2.0000      -0.454241       -12.3605
  13   2.0000      -0.414714       -11.2849
  14   2.0000      -0.393114       -10.6972
  15   2.0000      -0.386228       -10.5098
  16   2.0000      -0.350634        -9.5412
  17   2.0000      -0.302725        -8.2376
  18   2.0000      -0.290426        -7.9029
  19   2.0000      -0.251406        -6.8411
  20   2.0000      -0.220770        -6.0075
  21   0.0000       0.053148         1.4462
  22   0.0000       0.087848         2.3905
  23   0.0000       0.094714         2.5773
  24   0.0000       0.120301         3.2736
  25   0.0000       0.131470         3.5775

MULLIKEN ATOMIC CHARGES
-----------------------
   0 C :   -0.285580
   1 O :   -0.270379
   2 C :   -0.150479
   3 C :   -0.131657
   4 O :   -0.422608
   5 H :    0.136702
   6 H :    0.130945
   7 H :    0.150476
   8 H :    0.152669
   9 H :    0.119302
  10 H :    0.123729
  11 H :    0.136635
  12 H :    0.310244
Sum of atomic charges:   -0.0000000

LOEWDIN ATOMIC CHARGES
----------------------
   0 C :   -0.073793
   1 O :   -0.789601
   2 C :    0.011618
   3 C :    0.009509
   4 O :   -0.605431
   5 H :    0.157152
   6 H :    0.153175
   7 H :    0.176558
   8 H :    0.186357
   9 H :    0.166575
  10 H :    0.157727
  11 H :    0.178088
  12 H :    0.272066

  Mayer bond orders larger than 0.100000
B(  0-C ,  1-O ) :   0.8945 B(  0-C ,  5-H ) :   0.9704 B(  0-C ,  6-H ) :   0.9576
B(  0-C ,  7-H ) :   0.9735 B(  1-O ,  2-C ) :   0.9009 B(  2-C ,  3-C ) :   0.9430
B(  2-C ,  8-H ) :   0.9647 B(  2-C ,  9-H ) :   0.9563 B(  3-C ,  4-O ) :   0.9479
B(  3-C , 10-H ) :   0.9724 B(  3-C , 11-H ) :   0.9709 B(  4-O , 12-H ) :   0.8781

Dispersion correction           -0.002507631
FINAL SINGLE POINT ENERGY      -269.492429627533

DIPOLE MOMENT
-------------

Method             : SCF
Type of density    : Electron Density
Multiplicity       :   1
Irrep              :   0
Energy             :  -269.5004883474331905 Eh
Relativity type    :
Basis              : AO
                                X                 Y                 Z
Electronic contribution:      2.186439875      -1.457958418      -1.943618399
Nuclear contribution   :     -2.874867476       1.791580973       2.335796864
                        -----------------------------------------
Total Dipole Moment    :     -0.688427602       0.333622556       0.392178465
                        -----------------------------------------
Magnitude (a.u.)       :      0.859674660
Magnitude (Debye)      :      2.185119331

Rotational constants in cm-1:             0.354055             0.096123             0.092030
Rotational constants in MHz :         10614.287074          2881.690542          2758.989974

                             ****ORCA TERMINATED NORMALLY****
TOTAL RUN TIME: 0 days 0 hours 0 minutes 15 seconds 366 msec
