                         Program Version 6.0.0  -   RELEASE  -
|  1> ! r2scan-3c def2/J RI DEFGRID2 scfconv6 printgap
|  2> %output
|  3>     printlevel normal
|  4> end
|  5> %cpcm
|  6>     smd true
|  7>     smdsolvent "water"
|  8> end
|  9> * xyz 0 1
| 10> C -1.971058341 -0.2635013221 0.4657695566
| 11> O -1.0033024073 -0.2136009287 -0.5640366079
| 12> C -0.0402327489 0.8159568204 -0.4214244922
| 13> C 1.1064987041 0.4192334 0.5148028877
| 14> O 1.8764489834 -0.6369992008 -0.013140862
| 15> H -2.5143840155 0.6847810327 0.5307799358
| 16> H -1.5215296535 -0.4863724753 1.4375875542
| 17> H -2.6565285233 -1.0614147734 0.1910413436
| 18> H 0.3590398736 0.9791067796 -1.4254916882
| 19> H -0.5132532732 1.7373042682 -0.0618140032
| 20> H 0.7103781341 0.1385210081 1.5005185222
| 21> H 1.7871732702 1.2630489332 0.6383812156
| 22> H 1.2709438533 -1.3318486746 -0.3121281497
| 23> *
| 24>
| 25>                          ****END OF INPUT****

CARTESIAN COORDINATES (ANGSTROEM)
---------------------------------
  C     -1.971058   -0.263501    0.465770
  O     -1.003302   -0.213601   -0.564037
  C     -0.040233    0.815957   -0.421424
  C      1.106499    0.419233    0.514803
  O      1.876449   -0.636999   -0.013141
  H     -2.514384    0.684781    0.530780
  H     -1.521530   -0.486372    1.437588
  H     -2.656529   -1.061415    0.191041
  H      0.359040    0.979107   -1.425492
  H     -0.513253    1.737304   -0.061814
  H      0.710378    0.138521    1.500519
  H      1.787173    1.263049    0.638381
  H      1.270944   -1.331849   -0.312128

 Total Charge           Charge          ....    0
 Multiplicity           Mult            ....    1
 Number of Electrons    NEL             ....   42
 Basis Dimension        Dim             ....  145

ORBITAL ENERGIES
----------------

  NO   OCC          E(Eh)            E(eV)
   0   2.0000     -18.959196      -515.9060
   1   2.0000     -18.952118      -515.7133
   2   2.0000     -10.071274      -274.0533
   3   2.0000     -10.070298      -274.0267
   4   2.0000     -10.063308      -273.8365
   5   2.0000      -1.005495       -27.3609
   6   2.0000      -0.984168       -26.7806
   7   2.0000      -0.710459       -19.3326
   8   2.0000      -0.644985       -17.5509
   9   2.0000      -0.569102       -15.4860
  10   2.0000      -0.476679       -12.9711
  11   2.0000      -0.454845       -12.3769
  12   2.0000      -0.447708       -12.1827
  13   2.0000      -0.408176       -11.1070
  14   2.0000      -0.389200       -10.5907
  15   2.0000      -0.377994       -10.2857
  16   2.0000      -0.340965        -9.2781
  17   2.0000      -0.305370        -8.3095
  18   2.0000      -0.287118        -7.8129
  19   2.0000      -0.255100        -6.9416
  20   2.0000      -0.220025        -5.9872
  21   0.0000       0.060721         1.6523
  22   0.0000       0.097508         2.6533
  23   0.0000       0.111478         3.0335
  24   0.0000       0.130466         3.5502
  25   0.0000       0.143806         3.9132

MULLIKEN ATOMIC CHARGES
-----------------------
   0 C :   -0.305401
   1 O :   -0.323031
   2 C :   -0.158879
   3 C :   -0.139075
   4 O :   -0.504899
   5 H :    0.155425
   6 H :    0.152055
   7 H :    0.163305
   8 H :    0.160623
   9 H :    0.148719
  10 H :    0.144336
  11 H :    0.156057
  12 H :    0.350766
Sum of atomic charges:    0.0000000

LOEWDIN ATOMIC CHARGES
----------------------
   0 C :   -0.073962
   1 O :   -0.821552
   2 C :    0.014922
   3 C :    0.010190
   4 O :   -0.645246
   5 H :    0.165476
   6 H :    0.162854
   7 H :    0.180458
   8 H :    0.188325
   9 H :    0.179860
  10 H :    0.168232
  11 H :    0.185442
  12 H :    0.285001

  Mayer bond orders larger than 0.100000
B(  0-C ,  1-O ) :   0.8851 B(  0-C ,  5-H ) :   0.9645 B(  0-C ,  6-H ) :   0.9535
B(  0-C ,  7-H ) :   0.9674 B(  1-O ,  2-C ) :   0.8946 B(  2-C ,  3-C ) :   0.9533
B(  2-C ,  8-H ) :   0.9627 B(  2-C ,  9-H ) :   0.9509 B(  3-C ,  4-O ) :   0.9285
B(  3-C , 10-H ) :   0.9631 B(  3-C , 11-H ) :   0.9636 B(  4-O , 12-H ) :   0.8581

Dispersion correction           -0.002507631
FINAL SINGLE POINT ENERGY      -269.501681861989

DIPOLE MOMENT
-------------

Method             : SCF
Type of density    : Electron Density
Multiplicity       :   1
Irrep              :   0
Energy             :  -269.5097405818892184 Eh
Relativity type    :
Basis              : AO
                                X                 Y                 Z
Electronic contribution:      1.970557751      -1.293302412      -1.731806866
Nuclear contribution   :     -2.874867476       1.791580973       2.335796864
                        -----------------------------------------
Total Dipole Moment    :     -0.904309725       0.498278561       0.603989998
                        -----------------------------------------
Magnitude (a.u.)       :      1.196186240
Magnitude (Debye)      :      3.040463792

Rotational constants in cm-1:             0.354055             0.096123             0.092030
Rotational constants in MHz :         10614.287074          2881.690542          2758.989974

                             ****ORCA TERMINATED NORMALLY****
TOTAL RUN TIME: 0 days 0 hours 0 minutes 18 seconds 269 msec
