                         Program Version 6.0.0  -   RELEASE  -
|  1> ! r2scan-3c def2/J RI DEFGRID2 scfconv6 printgap
|  2> %output
|  3>     printlevel normal
|  4> end
|  5> %cpcm
|  6>     smd true
|  7>     smdsolvent "water"
|  8> end
|  9> * xyz 0 1
| 10> C -1.9773768177 0.2669245744 -0.5723576085
| 11> C -1.0280521381 0.2656801439 0.6311728558
| 12> N 0.0421513968 -0.7170746251 0.5883672413
| 13> C 1.0566684606 -0.5213226778 -0.4390992653
| 14> C 1.9346946887 0.6909919412 -0.1429891866
| 15> H -2.4182307901 -0.7191713592 -0.7082784497
| 16> H -2.7765343854 0.9847005679 -0.4101150379
| 17> H -1.4521686405 0.5408612529 -1.4844465778
| 18> H -1.6035398007 0.0577203746 1.5378875273
| 19> H -0.5760467799 1.2526661513 0.7442045221
| 20> H -0.3676480261 -1.6389067597 0.4760100114
| 21> H 1.6822310698 -1.4177036631 -0.4315025291
| 22> H 0.6296981461 -0.4226050418 -1.4513627575
| 23> H 2.2878233967 0.6448842886 0.8830335968
| 24> H 2.7897332482 0.6951994772 -0.8133971939
| 25> H 1.3865414976 1.618702642 -0.2828109425
| 26> *
| 27>
| 28>                          ****END OF INPUT****

CARTESIAN COORDINATES (ANGSTROEM)
---------------------------------
  C     -1.977377    0.266925   -0.572358
  C     -1.028052    0.265680    0.631173
  N      0.042151   -0.717075    0.588367
  C      1.056668   -0.521323   -0.439099
  C      1.934695    0.690992   -0.142989
  H     -2.418231   -0.719171   -0.708278
  H     -2.776534    0.984701   -0.410115
  H     -1.452169    0.540861   -1.484447
  H     -1.603540    0.057720    1.537888
  H     -0.576047    1.252666    0.744205
  H     -0.367648   -1.638907    0.476010
  H      1.682231   -1.417704   -0.431503
  H      0.629698   -0.422605   -1.451363
  H      2.287823    0.644884    0.883034
  H      2.789733    0.695199   -0.813397
  H      1.386541    1.618703   -0.282811

 Total Charge           Charge          ....    0
 Multiplicity           Mult            ....    1
 Number of Electrons    NEL             ....   42
 Basis Dimension        Dim             ....  155

ORBITAL ENERGIES
----------------

  NO   OCC          E(Eh)            E(eV)
   0   2.0000     -14.132825      -384.5737
   1   2.0000     -10.041160      -273.2338
   2   2.0000     -10.040032      -273.2032
   3   2.0000     -10.007226      -272.3105
   4   2.0000     -10.006027      -272.2778
   5   2.0000      -0.860507       -23.4156
   6   2.0000      -0.714215       -19.4348
   7   2.0000      -0.673786       -18.3346
   8   2.0000      -0.590399       -16.0656
   9   2.0000      -0.532468       -14.4892
  10   2.0000      -0.456710       -12.4277
  11   2.0000      -0.427230       -11.6255
  12   2.0000      -0.391572       -10.6552
  13   2.0000      -0.376129       -10.2350
  14   2.0000      -0.363846        -9.9007
  15   2.0000      -0.337739        -9.1903
  16   2.0000      -0.326206        -8.8765
  17   2.0000      -0.318274        -8.6607
  18   2.0000      -0.297710        -8.1011
  19   2.0000      -0.290475        -7.9042
  20   2.0000      -0.185284        -5.0418
  21   0.0000       0.087639         2.3848
  22   0.0000       0.112542         3.0624
  23   0.0000       0.124207         3.3799
  24   0.0000       0.136312         3.7092
  25   0.0000       0.142026         3.8647

MULLIKEN ATOMIC CHARGES
-----------------------
   0 C :   -0.495563
   1 C :   -0.217015
   2 N :   -0.397177
   3 C :   -0.186782
   4 C :   -0.503636
   5 H :    0.153795
   6 H :    0.157094
   7 H :    0.156819
   8 H :    0.154902
   9 H :    0.149196
  10 H :    0.270889
  11 H :    0.154743
  12 H :    0.128931
  13 H :    0.156353
  14 H :    0.159572
  15 H :    0.157879
Sum of atomic charges:   -0.0000000

LOEWDIN ATOMIC CHARGES
----------------------
   0 C :   -0.422574
   1 C :   -0.082050
   2 N :   -0.874453
   3 C :   -0.074748
   4 C :   -0.410042
   5 H :    0.153797
   6 H :    0.155792
   7 H :    0.152954
   8 H :    0.174883
   9 H :    0.175669
  10 H :    0.255147
  11 H :    0.177178
  12 H :    0.152909
  13 H :    0.155942
  14 H :    0.156723
  15 H :    0.152873

  Mayer bond orders larger than 0.100000
B(  0-C ,  1-C ) :   0.8794 B(  0-C ,  5-H ) :   0.9736 B(  0-C ,  6-H ) :   0.9683
B(  0-C ,  7-H ) :   0.9730 B(  1-C ,  2-N ) :   0.9603 B(  1-C ,  8-H ) :   0.9761
B(  1-C ,  9-H ) :   0.9731 B(  2-N ,  3-C ) :   0.9195 B(  2-N , 10-H ) :   0.8989
B(  3-C ,  4-C ) :   0.9063 B(  3-C , 11-H ) :   0.9719 B(  3-C , 12-H ) :   0.9549
B(  4-C , 13-H ) :   0.9755 B(  4-C , 14-H ) :   0.9706 B(  4-C , 15-H ) :   0.9695

Dispersion correction           -0.003538357
FINAL SINGLE POINT ENERGY      -213.717007547582

DIPOLE MOMENT
-------------

Method             : SCF
Type of density    : Electron Density
Multiplicity       :   1
Irrep              :   0
Energy             :  -213.7257029426952215 Eh
Relativity type    :
Basis              : AO
                                X                 Y                 Z
Electronic contribution:      0.112394272      -1.588122534       1.337336302
Nuclear contribution   :     -0.392055716       1.493697807      -1.817540964
                        -----------------------------------------
Total Dipole Moment    :     -0.279661444      -0.094424726      -0.480204662
                        -----------------------------------------
Magnitude (a.u.)       :      0.563669291
Magnitude (Debye)      :      1.432733478

Rotational constants in cm-1:             0.302595             0.094246             0.089943
Rotational constants in MHz :          9071.578592          2825.418621          2696.433232

                             ****ORCA TERMINATED NORMALLY****
TOTAL RUN TIME: 0 days 0 hours 0 minutes 18 seconds 432 msec
