                         Program Version 6.0.0  -   RELEASE  -
|  1> ! r2scan-3c def2/J RI DEFGRID2 scfconv6 printgap
|  2> %output
|  3>     printlevel normal
|  4> end
|  5> %cpcm
|  6>     smd true
|  7>     smdsolvent "water"
|  8> end
|  9> * xyz 0 1
| 10> C -1.4307268347 -0.3212524653 -1.7070454741
| 11> C -1.3215190076 0.1732376346 -0.263867449
| 12> C -1.725694603 -0.9523012383 0.6869785061
| 13> C 0.0182521836 0.8840050982 0.0472063809
| 14> C -0.1244882538 1.6949189509 1.3413767011
| 15> C 1.3527475217 0.0996642403 0.0770795572
| 16> C 1.4489037592 -1.0320217881 1.0991360146
| 17> C 1.7876633186 -0.4195516425 -1.2942033307
| 18> H -2.470364482 -0.545867323 -1.9380161789
| 19> H -1.0824855341 0.4347938505 -2.4063999552
| 20> H -0.8547469765 -1.2283321077 -1.8608317342
| 21> H -2.0735746745 0.9661663802 -0.1518649067
| 22> H -2.7798119084 -1.1823050515 0.5421837963
| 23> H -1.5837162554 -0.6691097236 1.7251504191
| 24> H -1.160712813 -1.85800393 0.4903563493
| 25> H 0.1418100927 1.6175486703 -0.7617443716
| 26> H -0.2587326724 1.0508005448 2.2056958328
| 27> H -0.9836988927 2.3591059838 1.2798451033
| 28> H 0.7622319347 2.3022535395 1.508646836
| 29> H 2.0954551284 0.8538942014 0.3710721874
| 30> H 1.0678903705 -0.7285686337 2.069111825
| 31> H 0.904848873 -1.9111134102 0.7684645593
| 32> H 2.4925736634 -1.3161705204 1.2216031947
| 33> H 1.6590891589 0.3420988276 -2.0592469916
| 34> H 1.222935927 -1.3006524041 -1.582566175
| 35> H 2.8397792491 -0.6963902311 -1.2624997176
| 36> *
| 37>
| 38>                          ****END OF INPUT****

CARTESIAN COORDINATES (ANGSTROEM)
---------------------------------
  C     -1.430727   -0.321252   -1.707045
  C     -1.321519    0.173238   -0.263867
  C     -1.725695   -0.952301    0.686979
  C      0.018252    0.884005    0.047206
  C     -0.124488    1.694919    1.341377
  C      1.352748    0.099664    0.077080
  C      1.448904   -1.032022    1.099136
  C      1.787663   -0.419552   -1.294203
  H     -2.470364   -0.545867   -1.938016
  H     -1.082486    0.434794   -2.406400
  H     -0.854747   -1.228332   -1.860832
  H     -2.073575    0.966166   -0.151865
  H     -2.779812   -1.182305    0.542184
  H     -1.583716   -0.669110    1.725150
  H     -1.160713   -1.858004    0.490356
  H      0.141810    1.617549   -0.761744
  H     -0.258733    1.050801    2.205696
  H     -0.983699    2.359106    1.279845
  H      0.762232    2.302254    1.508647
  H      2.095455    0.853894    0.371072
  H      1.067890   -0.728569    2.069112
  H      0.904849   -1.911113    0.768465
  H      2.492574   -1.316171    1.221603
  H      1.659089    0.342099   -2.059247
  H      1.222936   -1.300652   -1.582566
  H      2.839779   -0.696390   -1.262500

 Total Charge           Charge          ....    0
 Multiplicity           Mult            ....    1
 Number of Electrons    NEL             ....   66
 Basis Dimension        Dim             ....  242

ORBITAL ENERGIES
----------------

  NO   OCC          E(Eh)            E(eV)
   0   2.0000     -10.022061      -272.7142
   1   2.0000     -10.022055      -272.7140
   2   2.0000     -10.019417      -272.6422
   3   2.0000     -10.003029      -272.1963
   4   2.0000     -10.002972      -272.1947
   5   2.0000     -10.002864      -272.1918
   6   2.0000     -10.002793      -272.1898
   7   2.0000     -10.002779      -272.1895
   8   2.0000      -0.782960       -21.3054
   9   2.0000      -0.732795       -19.9404
  10   2.0000      -0.686098       -18.6697
  11   2.0000      -0.645699       -17.5704
  12   2.0000      -0.631849       -17.1935
  13   2.0000      -0.585451       -15.9309
  14   2.0000      -0.543455       -14.7882
  15   2.0000      -0.484251       -13.1771
  16   2.0000      -0.435284       -11.8447
  17   2.0000      -0.406010       -11.0481
  18   2.0000      -0.404603       -11.0098
  19   2.0000      -0.385426       -10.4880
  20   2.0000      -0.382098       -10.3974
  21   2.0000      -0.359626        -9.7859
  22   2.0000      -0.355254        -9.6670
  23   2.0000      -0.345341        -9.3972
  24   2.0000      -0.340006        -9.2520
  25   2.0000      -0.322981        -8.7888
  26   2.0000      -0.320145        -8.7116
  27   2.0000      -0.307356        -8.3636
  28   2.0000      -0.292742        -7.9659
  29   2.0000      -0.287752        -7.8301
  30   2.0000      -0.268376        -7.3029
  31   2.0000      -0.265451        -7.2233
  32   2.0000      -0.250639        -6.8202
  33   0.0000       0.081929         2.2294
  34   0.0000       0.116645         3.1741
  35   0.0000       0.119409         3.2493
  36   0.0000       0.123193         3.3523
  37   0.0000       0.130022         3.5381

MULLIKEN ATOMIC CHARGES
-----------------------
   0 C :   -0.565469
   1 C :    0.015681
   2 C :   -0.554811
   3 C :   -0.075097
   4 C :   -0.583906
   5 C :    0.014259
   6 C :   -0.553464
   7 C :   -0.565750
   8 H :    0.156562
   9 H :    0.159208
  10 H :    0.164116
  11 H :    0.149103
  12 H :    0.156159
  13 H :    0.163159
  14 H :    0.160182
  15 H :    0.162108
  16 H :    0.171908
  17 H :    0.158616
  18 H :    0.158478
  19 H :    0.149395
  20 H :    0.163151
  21 H :    0.160070
  22 H :    0.156155
  23 H :    0.159207
  24 H :    0.164474
  25 H :    0.156504
Sum of atomic charges:   -0.0000000

LOEWDIN ATOMIC CHARGES
----------------------
   0 C :   -0.423646
   1 C :   -0.229783
   2 C :   -0.421524
   3 C :   -0.228232
   4 C :   -0.424594
   5 C :   -0.229874
   6 C :   -0.421534
   7 C :   -0.423621
   8 H :    0.153599
   9 H :    0.155007
  10 H :    0.153795
  11 H :    0.160124
  12 H :    0.154654
  13 H :    0.156012
  14 H :    0.153830
  15 H :    0.164501
  16 H :    0.154610
  17 H :    0.154813
  18 H :    0.154810
  19 H :    0.160076
  20 H :    0.156008
  21 H :    0.153893
  22 H :    0.154642
  23 H :    0.155101
  24 H :    0.153730
  25 H :    0.153602

  Mayer bond orders larger than 0.100000
B(  0-C ,  1-C ) :   0.8794 B(  0-C ,  8-H ) :   0.9696 B(  0-C ,  9-H ) :   0.9790
B(  0-C , 10-H ) :   0.9850 B(  1-C ,  2-C ) :   0.8585 B(  1-C ,  3-C ) :   0.8871
B(  1-C , 11-H ) :   0.9693 B(  2-C , 12-H ) :   0.9634 B(  2-C , 13-H ) :   0.9795
B(  2-C , 14-H ) :   0.9814 B(  3-C ,  4-C ) :   0.9181 B(  3-C ,  5-C ) :   0.8882
B(  3-C , 15-H ) :   0.9857 B(  4-C , 16-H ) :   0.9810 B(  4-C , 17-H ) :   0.9739
B(  4-C , 18-H ) :   0.9738 B(  5-C ,  6-C ) :   0.8596 B(  5-C ,  7-C ) :   0.8788
B(  5-C , 19-H ) :   0.9693 B(  6-C , 20-H ) :   0.9797 B(  6-C , 21-H ) :   0.9810
B(  6-C , 22-H ) :   0.9635 B(  7-C , 23-H ) :   0.9784 B(  7-C , 24-H ) :   0.9854
B(  7-C , 25-H ) :   0.9694

Dispersion correction           -0.008327619
FINAL SINGLE POINT ENERGY      -315.573890752297

DIPOLE MOMENT
-------------

Method             : SCF
Type of density    : Electron Density
Multiplicity       :   1
Irrep              :   0
Energy             :  -315.5787157833846663 Eh
Relativity type    :
Basis              : AO
                                X                 Y                 Z
Electronic contribution:      0.061175299       1.505055466      -0.159597764
Nuclear contribution   :     -0.057443460      -1.416484596       0.149130241
                        -----------------------------------------
Total Dipole Moment    :      0.003731839       0.088570869      -0.010467523
                        -----------------------------------------
Magnitude (a.u.)       :      0.089265304
Magnitude (Debye)      :      0.226894372

Rotational constants in cm-1:             0.070054             0.054384             0.045580
Rotational constants in MHz :          2100.157375          1630.388019          1366.468992

                             ****ORCA TERMINATED NORMALLY****
TOTAL RUN TIME: 0 days 0 hours 0 minutes 33 seconds 512 msec
