                         Program Version 6.0.0  -   RELEASE  -
|  1> ! r2scan-3c def2/J RI DEFGRID2 scfconv6 printgap
|  2> %output
|  3>     printlevel normal
|  4> end
|  5> * xyz 0 1
|  6> C 2.2890554178 -0.2368291929 -0.7585183314
|  7> C 1.5331597176 -0.6265292631 0.5067613434
|  8> C 0.3463788248 0.2879626823 0.8116462345
|  9> C -0.7713199797 0.2784814016 -0.2408008856
| 10> H -0.3683399586 0.5800526102 -1.2130022298
| 11> C -1.4433712139 -1.0880256059 -0.3660956537
| 12> O -1.7264516392 1.2883922067 0.0529114091
| 13> H 1.67342587 -0.379308701 -1.6427050059
| 14> H 3.1817518945 -0.848424017 -0.864881351
| 15> H 2.5906682472 0.8072227256 -0.714457746
| 16> H 1.1921123159 -1.6593564862 0.424683564
| 17> H 2.2192720899 -0.5754999582 1.3552000989
| 18> H -0.0847359496 -0.005557908 1.7730060854
| 19> H 0.7018373798 1.3171607261 0.9064560257
| 20> H -2.3120888865 -1.0067877253 -1.0151812123
| 21> H -0.7571463041 -1.8103399117 -0.7961588878
| 22> H -1.7653171616 -1.4447659345 0.6102932234
| 23> H -2.1501336275 1.0778040077 0.8970111468
| 24> *
| 25>
| 26>                          ****END OF INPUT****

CARTESIAN COORDINATES (ANGSTROEM)
---------------------------------
  C      2.289055   -0.236829   -0.758518
  C      1.533160   -0.626529    0.506761
  C      0.346379    0.287963    0.811646
  C     -0.771320    0.278481   -0.240801
  H     -0.368340    0.580053   -1.213002
  C     -1.443371   -1.088026   -0.366096
  O     -1.726452    1.288392    0.052911
  H      1.673426   -0.379309   -1.642705
  H      3.181752   -0.848424   -0.864881
  H      2.590668    0.807223   -0.714458
  H      1.192112   -1.659356    0.424684
  H      2.219272   -0.575500    1.355200
  H     -0.084736   -0.005558    1.773006
  H      0.701837    1.317161    0.906456
  H     -2.312089   -1.006788   -1.015181
  H     -0.757146   -1.810340   -0.796159
  H     -1.765317   -1.444766    0.610293
  H     -2.150134    1.077804    0.897011

 Total Charge           Charge          ....    0
 Multiplicity           Mult            ....    1
 Number of Electrons    NEL             ....   50
 Basis Dimension        Dim             ....  179

ORBITAL ENERGIES
----------------

  NO   OCC          E(Eh)            E(eV)
   0   2.0000     -18.941674      -515.4292
   1   2.0000     -10.078457      -274.2488
   2   2.0000     -10.028927      -272.9010
   3   2.0000     -10.024012      -272.7672
   4   2.0000     -10.019286      -272.6386
   5   2.0000     -10.018806      -272.6256
   6   2.0000      -0.979958       -26.6660
   7   2.0000      -0.766363       -20.8538
   8   2.0000      -0.708569       -19.2811
   9   2.0000      -0.651592       -17.7307
  10   2.0000      -0.589467       -16.0402
  11   2.0000      -0.539381       -14.6773
  12   2.0000      -0.458443       -12.4749
  13   2.0000      -0.441512       -12.0142
  14   2.0000      -0.411491       -11.1972
  15   2.0000      -0.392393       -10.6776
  16   2.0000      -0.389831       -10.6078
  17   2.0000      -0.372814       -10.1448
  18   2.0000      -0.341757        -9.2997
  19   2.0000      -0.329806        -8.9745
  20   2.0000      -0.327940        -8.9237
  21   2.0000      -0.305572        -8.3150
  22   2.0000      -0.298429        -8.1207
  23   2.0000      -0.278087        -7.5671
  24   2.0000      -0.230683        -6.2772
  25   0.0000       0.068807         1.8723
  26   0.0000       0.084307         2.2941
  27   0.0000       0.109253         2.9729
  28   0.0000       0.123438         3.3589
  29   0.0000       0.126370         3.4387

MULLIKEN ATOMIC CHARGES
-----------------------
   0 C :   -0.474862
   1 C :   -0.266367
   2 C :   -0.237138
   3 C :   -0.020762
   4 H :    0.144210
   5 C :   -0.498059
   6 O :   -0.406669
   7 H :    0.145567
   8 H :    0.147531
   9 H :    0.148754
  10 H :    0.143088
  11 H :    0.141135
  12 H :    0.128283
  13 H :    0.158884
  14 H :    0.164966
  15 H :    0.149849
  16 H :    0.143974
  17 H :    0.287615
Sum of atomic charges:   -0.0000000

LOEWDIN ATOMIC CHARGES
----------------------
   0 C :   -0.425227
   1 C :   -0.314445
   2 C :   -0.291153
   3 C :    0.041546
   4 H :    0.180415
   5 C :   -0.401880
   6 O :   -0.610496
   7 H :    0.148243
   8 H :    0.151323
   9 H :    0.152328
  10 H :    0.151716
  11 H :    0.153592
  12 H :    0.156431
  13 H :    0.166231
  14 H :    0.163723
  15 H :    0.157252
  16 H :    0.153857
  17 H :    0.266546

  Mayer bond orders larger than 0.100000
B(  0-C ,  1-C ) :   0.8932 B(  0-C ,  7-H ) :   0.9785 B(  0-C ,  8-H ) :   0.9705
B(  0-C ,  9-H ) :   0.9803 B(  1-C ,  2-C ) :   0.8962 B(  1-C , 10-H ) :   0.9832
B(  1-C , 11-H ) :   0.9598 B(  2-C ,  3-C ) :   0.9098 B(  2-C , 12-H ) :   0.9626
B(  2-C , 13-H ) :   0.9774 B(  3-C ,  4-H ) :   0.9669 B(  3-C ,  5-C ) :   0.9218
B(  3-C ,  6-O ) :   0.9382 B(  5-C , 14-H ) :   0.9695 B(  5-C , 15-H ) :   0.9679
B(  5-C , 16-H ) :   0.9736 B(  6-O , 17-H ) :   0.8973

Dispersion correction           -0.004351566
FINAL SINGLE POINT ENERGY      -272.902046459112

DIPOLE MOMENT
-------------

Method             : SCF
Type of density    : Electron Density
Multiplicity       :   1
Irrep              :   0
Energy             :  -272.9073058861230265 Eh
Relativity type    :
Basis              : AO
                                X                 Y                 Z
Electronic contribution:     -3.636508831       3.166160205       0.607679434
Nuclear contribution   :      3.840837983      -3.684562586      -0.261653182
                        -----------------------------------------
Total Dipole Moment    :      0.204329152      -0.518402381       0.346026252
                        -----------------------------------------
Magnitude (a.u.)       :      0.655915846
Magnitude (Debye)      :      1.667205586

Rotational constants in cm-1:             0.190062             0.066537             0.060605
Rotational constants in MHz :          5697.911712          1994.733564          1816.893883

                             ****ORCA TERMINATED NORMALLY****
TOTAL RUN TIME: 0 days 0 hours 0 minutes 22 seconds 964 msec
