                         Program Version 6.0.0  -   RELEASE  -
|  1> ! r2scan-3c def2/J RI DEFGRID2 scfconv6 printgap
|  2> %output
|  3>     printlevel normal
|  4> end
|  5> %cpcm
|  6>     smd true
|  7>     smdsolvent "water"
|  8> end
|  9> * xyz 0 1
| 10> C 2.2890554178 -0.2368291929 -0.7585183314
| 11> C 1.5331597176 -0.6265292631 0.5067613434
| 12> C 0.3463788248 0.2879626823 0.8116462345
| 13> C -0.7713199797 0.2784814016 -0.2408008856
| 14> H -0.3683399586 0.5800526102 -1.2130022298
| 15> C -1.4433712139 -1.0880256059 -0.3660956537
| 16> O -1.7264516392 1.2883922067 0.0529114091
| 17> H 1.67342587 -0.379308701 -1.6427050059
| 18> H 3.1817518945 -0.848424017 -0.864881351
| 19> H 2.5906682472 0.8072227256 -0.714457746
| 20> H 1.1921123159 -1.6593564862 0.424683564
| 21> H 2.2192720899 -0.5754999582 1.3552000989
| 22> H -0.0847359496 -0.005557908 1.7730060854
| 23> H 0.7018373798 1.3171607261 0.9064560257
| 24> H -2.3120888865 -1.0067877253 -1.0151812123
| 25> H -0.7571463041 -1.8103399117 -0.7961588878
| 26> H -1.7653171616 -1.4447659345 0.6102932234
| 27> H -2.1501336275 1.0778040077 0.8970111468
| 28> *
| 29>
| 30>                          ****END OF INPUT****

CARTESIAN COORDINATES (ANGSTROEM)
---------------------------------
  C      2.289055   -0.236829   -0.758518
  C      1.533160   -0.626529    0.506761
  C      0.346379    0.287963    0.811646
  C     -0.771320    0.278481   -0.240801
  H     -0.368340    0.580053   -1.213002
  C     -1.443371   -1.088026   -0.366096
  O     -1.726452    1.288392    0.052911
  H      1.673426   -0.379309   -1.642705
  H      3.181752   -0.848424   -0.864881
  H      2.590668    0.807223   -0.714458
  H      1.192112   -1.659356    0.424684
  H      2.219272   -0.575500    1.355200
  H     -0.084736   -0.005558    1.773006
  H      0.701837    1.317161    0.906456
  H     -2.312089   -1.006788   -1.015181
  H     -0.757146   -1.810340   -0.796159
  H     -1.765317   -1.444766    0.610293
  H     -2.150134    1.077804    0.897011

 Total Charge           Charge          ....    0
 Multiplicity           Mult            ....    1
 Number of Electrons    NEL             ....   50
 Basis Dimension        Dim             ....  179

ORBITAL ENERGIES
----------------

  NO   OCC          E(Eh)            E(eV)
   0   2.0000     -18.946710      -515.5662
   1   2.0000     -10.073277      -274.1078
   2   2.0000     -10.018060      -272.6053
   3   2.0000     -10.014726      -272.5146
   4   2.0000     -10.008929      -272.3568
   5   2.0000     -10.007755      -272.3249
   6   2.0000      -0.983622       -26.7657
   7   2.0000      -0.757138       -20.6028
   8   2.0000      -0.700052       -19.0494
   9   2.0000      -0.642178       -17.4745
  10   2.0000      -0.582628       -15.8541
  11   2.0000      -0.531935       -14.4747
  12   2.0000      -0.452171       -12.3042
  13   2.0000      -0.434913       -11.8346
  14   2.0000      -0.404469       -11.0062
  15   2.0000      -0.384896       -10.4735
  16   2.0000      -0.380763       -10.3611
  17   2.0000      -0.365238        -9.9386
  18   2.0000      -0.336000        -9.1430
  19   2.0000      -0.322328        -8.7710
  20   2.0000      -0.319171        -8.6851
  21   2.0000      -0.296927        -8.0798
  22   2.0000      -0.289373        -7.8742
  23   2.0000      -0.274863        -7.4794
  24   2.0000      -0.235183        -6.3997
  25   0.0000       0.083365         2.2685
  26   0.0000       0.095759         2.6057
  27   0.0000       0.120293         3.2733
  28   0.0000       0.132013         3.5922
  29   0.0000       0.135818         3.6958

MULLIKEN ATOMIC CHARGES
-----------------------
   0 C :   -0.514816
   1 C :   -0.272535
   2 C :   -0.261593
   3 C :    0.011005
   4 H :    0.154201
   5 C :   -0.539740
   6 O :   -0.502238
   7 H :    0.159187
   8 H :    0.156629
   9 H :    0.156671
  10 H :    0.153806
  11 H :    0.149972
  12 H :    0.152107
  13 H :    0.154277
  14 H :    0.162621
  15 H :    0.168579
  16 H :    0.166373
  17 H :    0.345494
Sum of atomic charges:   -0.0000000

LOEWDIN ATOMIC CHARGES
----------------------
   0 C :   -0.433578
   1 C :   -0.314472
   2 C :   -0.291645
   3 C :    0.041908
   4 H :    0.183243
   5 C :   -0.405435
   6 O :   -0.650926
   7 H :    0.152054
   8 H :    0.153171
   9 H :    0.153576
  10 H :    0.155549
  11 H :    0.155895
  12 H :    0.163981
  13 H :    0.164232
  14 H :    0.162130
  15 H :    0.163971
  16 H :    0.161351
  17 H :    0.284993

  Mayer bond orders larger than 0.100000
B(  0-C ,  1-C ) :   0.8835 B(  0-C ,  7-H ) :   0.9756 B(  0-C ,  8-H ) :   0.9684
B(  0-C ,  9-H ) :   0.9787 B(  1-C ,  2-C ) :   0.8969 B(  1-C , 10-H ) :   0.9820
B(  1-C , 11-H ) :   0.9605 B(  2-C ,  3-C ) :   0.9082 B(  2-C , 12-H ) :   0.9646
B(  2-C , 13-H ) :   0.9740 B(  3-C ,  4-H ) :   0.9668 B(  3-C ,  5-C ) :   0.9136
B(  3-C ,  6-O ) :   0.9216 B(  5-C , 14-H ) :   0.9669 B(  5-C , 15-H ) :   0.9632
B(  5-C , 16-H ) :   0.9722 B(  6-O , 17-H ) :   0.8698

Dispersion correction           -0.004351566
FINAL SINGLE POINT ENERGY      -272.908657099709

DIPOLE MOMENT
-------------

Method             : SCF
Type of density    : Electron Density
Multiplicity       :   1
Irrep              :   0
Energy             :  -272.9139165267197313 Eh
Relativity type    :
Basis              : AO
                                X                 Y                 Z
Electronic contribution:     -3.591679760       2.928921380       0.773050794
Nuclear contribution   :      3.840837983      -3.684562586      -0.261653182
                        -----------------------------------------
Total Dipole Moment    :      0.249158223      -0.755641206       0.511397612
                        -----------------------------------------
Magnitude (a.u.)       :      0.945833479
Magnitude (Debye)      :      2.404117645

Rotational constants in cm-1:             0.190062             0.066537             0.060605
Rotational constants in MHz :          5697.911712          1994.733564          1816.893883

                             ****ORCA TERMINATED NORMALLY****
TOTAL RUN TIME: 0 days 0 hours 0 minutes 26 seconds 886 msec
