                         Program Version 6.0.0  -   RELEASE  -
|  1> ! r2scan-3c def2/J RI DEFGRID2 scfconv6 printgap
|  2> %output
|  3>     printlevel normal
|  4> end
|  5> * xyz 0 1
|  6> C 5.7301220235 0.1674441619 -0.087253871
|  7> C 4.4579410023 -0.6709522321 -0.0844466057
|  8> C 3.2150499867 0.1964479883 -0.0502060468
|  9> O 3.2462457013 1.4141099217 -0.0322864084
| 10> N 2.0656882469 -0.5406903506 -0.0422026828
| 11> C 0.7447012985 -0.1067697135 -0.0143465997
| 12> C 0.3825409165 1.2396052459 0.0101494456
| 13> C -0.9501983665 1.6005401977 0.0371383324
| 14> C -1.9417990362 0.6323742408 0.0402695603
| 15> C -1.5869284227 -0.7109706021 0.0159012726
| 16> C -0.2559380273 -1.0807647535 -0.0112274496
| 17> Cl -2.812727167 -1.9365149041 0.0193869292
| 18> Cl -3.6136981833 1.0974055049 0.0743247642
| 19> H 5.7737112378 0.7890687532 0.8034540614
| 20> H 5.7455458736 0.8256515731 -0.95224342
| 21> H 6.6062980295 -0.4735504354 -0.1146326459
| 22> H 4.4461584934 -1.32691109 0.7878126499
| 23> H 4.4201263855 -1.2928959553 -0.9806042715
| 24> H 2.1763305851 -1.5469535796 -0.0590021866
| 25> H 1.147461041 1.9976567054 0.007987476
| 26> H -1.2287260447 2.6409638479 0.0560146641
| 27> H -0.0056951671 -2.129021603 -0.0298155991
| 28> *
| 29>
| 30>                          ****END OF INPUT****

CARTESIAN COORDINATES (ANGSTROEM)
---------------------------------
  C      5.730122    0.167444   -0.087254
  C      4.457941   -0.670952   -0.084447
  C      3.215050    0.196448   -0.050206
  O      3.246246    1.414110   -0.032286
  N      2.065688   -0.540690   -0.042203
  C      0.744701   -0.106770   -0.014347
  C      0.382541    1.239605    0.010149
  C     -0.950198    1.600540    0.037138
  C     -1.941799    0.632374    0.040270
  C     -1.586928   -0.710971    0.015901
  C     -0.255938   -1.080765   -0.011227
  Cl    -2.812727   -1.936515    0.019387
  Cl    -3.613698    1.097406    0.074325
  H      5.773711    0.789069    0.803454
  H      5.745546    0.825652   -0.952243
  H      6.606298   -0.473550   -0.114633
  H      4.446158   -1.326911    0.787813
  H      4.420126   -1.292896   -0.980604
  H      2.176331   -1.546954   -0.059002
  H      1.147461    1.997657    0.007987
  H     -1.228726    2.640964    0.056015
  H     -0.005695   -2.129022   -0.029816

 Total Charge           Charge          ....    0
 Multiplicity           Mult            ....    1
 Number of Electrons    NEL             ....  112
 Basis Dimension        Dim             ....  318

ORBITAL ENERGIES
----------------

  NO   OCC          E(Eh)            E(eV)
   0   2.0000    -101.229841     -2754.6040
   1   2.0000    -101.224583     -2754.4609
   2   2.0000     -18.934985      -515.2471
   3   2.0000     -14.222331      -387.0093
   4   2.0000     -10.149734      -276.1883
   5   2.0000     -10.118225      -275.3309
   6   2.0000     -10.109954      -275.1058
   7   2.0000     -10.106201      -275.0037
   8   2.0000     -10.064820      -273.8777
   9   2.0000     -10.060026      -273.7472
  10   2.0000     -10.057351      -273.6744
  11   2.0000     -10.048596      -273.4362
  12   2.0000     -10.029942      -272.9286
  13   2.0000      -9.385563      -255.3941
  14   2.0000      -9.380253      -255.2497
  15   2.0000      -7.132030      -194.0724
  16   2.0000      -7.126713      -193.9277
  17   2.0000      -7.121824      -193.7947
  18   2.0000      -7.121139      -193.7761
  19   2.0000      -7.116495      -193.6497
  20   2.0000      -7.115860      -193.6324
  21   2.0000      -1.023844       -27.8602
  22   2.0000      -0.934730       -25.4353
  23   2.0000      -0.887772       -24.1575
  24   2.0000      -0.827205       -22.5094
  25   2.0000      -0.812080       -22.0978
  26   2.0000      -0.762556       -20.7502
  27   2.0000      -0.731700       -19.9106
  28   2.0000      -0.708859       -19.2890
  29   2.0000      -0.642445       -17.4818
  30   2.0000      -0.615388       -16.7456
  31   2.0000      -0.590049       -16.0561
  32   2.0000      -0.551288       -15.0013
  33   2.0000      -0.525422       -14.2974
  34   2.0000      -0.479930       -13.0596
  35   2.0000      -0.470741       -12.8095
  36   2.0000      -0.458125       -12.4662
  37   2.0000      -0.454898       -12.3784
  38   2.0000      -0.432944       -11.7810
  39   2.0000      -0.419199       -11.4070
  40   2.0000      -0.411509       -11.1977
  41   2.0000      -0.400792       -10.9061
  42   2.0000      -0.385812       -10.4985
  43   2.0000      -0.377281       -10.2663
  44   2.0000      -0.356464        -9.6999
  45   2.0000      -0.353441        -9.6176
  46   2.0000      -0.344892        -9.3850
  47   2.0000      -0.338580        -9.2132
  48   2.0000      -0.326642        -8.8884
  49   2.0000      -0.325418        -8.8551
  50   2.0000      -0.303878        -8.2689
  51   2.0000      -0.282271        -7.6810
  52   2.0000      -0.281453        -7.6587
  53   2.0000      -0.246496        -6.7075
  54   2.0000      -0.237027        -6.4498
  55   2.0000      -0.214899        -5.8477
  56   0.0000      -0.059814        -1.6276
  57   0.0000      -0.055288        -1.5045
  58   0.0000      -0.022663        -0.6167
  59   0.0000      -0.002924        -0.0796
  60   0.0000       0.040694         1.1074

MULLIKEN ATOMIC CHARGES
-----------------------
   0 C :   -0.463159
   1 C :   -0.292640
   2 C :    0.299683
   3 O :   -0.449633
   4 N :   -0.048188
   5 C :    0.206734
   6 C :   -0.169214
   7 C :   -0.226479
   8 C :    0.124579
   9 C :    0.138311
  10 C :   -0.443147
  11 Cl:   -0.115483
  12 Cl:   -0.120163
  13 H :    0.159274
  14 H :    0.159566
  15 H :    0.145952
  16 H :    0.156141
  17 H :    0.156625
  18 H :    0.260140
  19 H :    0.207285
  20 H :    0.165031
  21 H :    0.148785
Sum of atomic charges:    0.0000000

LOEWDIN ATOMIC CHARGES
----------------------
   0 C :   -0.398592
   1 C :   -0.250992
   2 C :    0.345714
   3 O :   -0.457247
   4 N :   -0.594324
   5 C :    0.159654
   6 C :   -0.116787
   7 C :   -0.149164
   8 C :   -0.193095
   9 C :   -0.172697
  10 C :   -0.145109
  11 Cl:    0.148798
  12 Cl:    0.141356
  13 H :    0.163568
  14 H :    0.163764
  15 H :    0.151104
  16 H :    0.172955
  17 H :    0.173130
  18 H :    0.283764
  19 H :    0.210291
  20 H :    0.182958
  21 H :    0.180949

  Mayer bond orders larger than 0.100000
B(  0-C ,  1-C ) :   0.9587 B(  0-C , 13-H ) :   0.9742 B(  0-C , 14-H ) :   0.9740
B(  0-C , 15-H ) :   0.9709 B(  1-C ,  2-C ) :   0.9303 B(  1-C , 16-H ) :   0.9470
B(  1-C , 17-H ) :   0.9462 B(  2-C ,  3-O ) :   1.8080 B(  2-C ,  4-N ) :   1.1020
B(  4-N ,  5-C ) :   1.0355 B(  4-N , 18-H ) :   0.9166 B(  5-C ,  6-C ) :   1.3996
B(  5-C , 10-C ) :   1.2499 B(  6-C ,  7-C ) :   1.3174 B(  6-C , 19-H ) :   0.9304
B(  7-C ,  8-C ) :   1.3101 B(  7-C , 20-H ) :   0.9551 B(  8-C ,  9-C ) :   1.2887
B(  8-C , 12-Cl) :   1.0359 B(  9-C , 10-C ) :   1.3547 B(  9-C , 11-Cl) :   1.0065
B( 10-C , 21-H ) :   0.9211

Dispersion correction           -0.008950019
FINAL SINGLE POINT ENERGY     -1398.619224604055

DIPOLE MOMENT
-------------

Method             : SCF
Type of density    : Electron Density
Multiplicity       :   1
Irrep              :   0
Energy             : -1398.6234483078983430 Eh
Relativity type    :
Basis              : AO
                                X                 Y                 Z
Electronic contribution:    -34.845374240      -1.723067811       0.542445074
Nuclear contribution   :     35.968227396       0.660124517      -0.577779472
                        -----------------------------------------
Total Dipole Moment    :      1.122853156      -1.062943294      -0.035334397
                        -----------------------------------------
Magnitude (a.u.)       :      1.546575629
Magnitude (Debye)      :      3.931082840

Rotational constants in cm-1:             0.053463             0.008473             0.007334
Rotational constants in MHz :          1602.767758           254.024432           219.869385

                             ****ORCA TERMINATED NORMALLY****
TOTAL RUN TIME: 0 days 0 hours 0 minutes 44 seconds 900 msec
