                         Program Version 6.0.0  -   RELEASE  -
|  1> ! r2scan-3c def2/J RI DEFGRID2 scfconv6 printgap
|  2> %output
|  3>     printlevel normal
|  4> end
|  5> %cpcm
|  6>     smd true
|  7>     smdsolvent "water"
|  8> end
|  9> * xyz 0 1
| 10> C 5.7301220235 0.1674441619 -0.087253871
| 11> C 4.4579410023 -0.6709522321 -0.0844466057
| 12> C 3.2150499867 0.1964479883 -0.0502060468
| 13> O 3.2462457013 1.4141099217 -0.0322864084
| 14> N 2.0656882469 -0.5406903506 -0.0422026828
| 15> C 0.7447012985 -0.1067697135 -0.0143465997
| 16> C 0.3825409165 1.2396052459 0.0101494456
| 17> C -0.9501983665 1.6005401977 0.0371383324
| 18> C -1.9417990362 0.6323742408 0.0402695603
| 19> C -1.5869284227 -0.7109706021 0.0159012726
| 20> C -0.2559380273 -1.0807647535 -0.0112274496
| 21> Cl -2.812727167 -1.9365149041 0.0193869292
| 22> Cl -3.6136981833 1.0974055049 0.0743247642
| 23> H 5.7737112378 0.7890687532 0.8034540614
| 24> H 5.7455458736 0.8256515731 -0.95224342
| 25> H 6.6062980295 -0.4735504354 -0.1146326459
| 26> H 4.4461584934 -1.32691109 0.7878126499
| 27> H 4.4201263855 -1.2928959553 -0.9806042715
| 28> H 2.1763305851 -1.5469535796 -0.0590021866
| 29> H 1.147461041 1.9976567054 0.007987476
| 30> H -1.2287260447 2.6409638479 0.0560146641
| 31> H -0.0056951671 -2.129021603 -0.0298155991
| 32> *
| 33>
| 34>                          ****END OF INPUT****

CARTESIAN COORDINATES (ANGSTROEM)
---------------------------------
  C      5.730122    0.167444   -0.087254
  C      4.457941   -0.670952   -0.084447
  C      3.215050    0.196448   -0.050206
  O      3.246246    1.414110   -0.032286
  N      2.065688   -0.540690   -0.042203
  C      0.744701   -0.106770   -0.014347
  C      0.382541    1.239605    0.010149
  C     -0.950198    1.600540    0.037138
  C     -1.941799    0.632374    0.040270
  C     -1.586928   -0.710971    0.015901
  C     -0.255938   -1.080765   -0.011227
  Cl    -2.812727   -1.936515    0.019387
  Cl    -3.613698    1.097406    0.074325
  H      5.773711    0.789069    0.803454
  H      5.745546    0.825652   -0.952243
  H      6.606298   -0.473550   -0.114633
  H      4.446158   -1.326911    0.787813
  H      4.420126   -1.292896   -0.980604
  H      2.176331   -1.546954   -0.059002
  H      1.147461    1.997657    0.007987
  H     -1.228726    2.640964    0.056015
  H     -0.005695   -2.129022   -0.029816

 Total Charge           Charge          ....    0
 Multiplicity           Mult            ....    1
 Number of Electrons    NEL             ....  112
 Basis Dimension        Dim             ....  318

ORBITAL ENERGIES
----------------

  NO   OCC          E(Eh)            E(eV)
   0   2.0000    -101.231648     -2754.6532
   1   2.0000    -101.228762     -2754.5747
   2   2.0000     -18.936893      -515.2991
   3   2.0000     -14.207570      -386.6076
   4   2.0000     -10.145381      -276.0699
   5   2.0000     -10.115258      -275.2502
   6   2.0000     -10.108177      -275.0575
   7   2.0000     -10.099001      -274.8078
   8   2.0000     -10.055110      -273.6134
   9   2.0000     -10.054987      -273.6101
  10   2.0000     -10.044410      -273.3223
  11   2.0000     -10.035706      -273.0854
  12   2.0000     -10.015343      -272.5313
  13   2.0000      -9.387498      -255.4468
  14   2.0000      -9.384574      -255.3672
  15   2.0000      -7.133833      -194.1215
  16   2.0000      -7.130874      -194.0409
  17   2.0000      -7.123826      -193.8491
  18   2.0000      -7.123118      -193.8299
  19   2.0000      -7.120877      -193.7689
  20   2.0000      -7.120254      -193.7520
  21   2.0000      -1.024190       -27.8696
  22   2.0000      -0.924233       -25.1497
  23   2.0000      -0.886632       -24.1265
  24   2.0000      -0.828960       -22.5571
  25   2.0000      -0.808330       -21.9958
  26   2.0000      -0.747807       -20.3489
  27   2.0000      -0.725166       -19.7328
  28   2.0000      -0.703739       -19.1497
  29   2.0000      -0.632027       -17.1983
  30   2.0000      -0.607388       -16.5279
  31   2.0000      -0.578803       -15.7500
  32   2.0000      -0.541171       -14.7260
  33   2.0000      -0.514538       -14.0013
  34   2.0000      -0.472907       -12.8684
  35   2.0000      -0.466613       -12.6972
  36   2.0000      -0.447560       -12.1787
  37   2.0000      -0.442721       -12.0471
  38   2.0000      -0.427476       -11.6322
  39   2.0000      -0.413205       -11.2439
  40   2.0000      -0.405429       -11.0323
  41   2.0000      -0.401669       -10.9300
  42   2.0000      -0.379844       -10.3361
  43   2.0000      -0.374437       -10.1889
  44   2.0000      -0.347264        -9.4495
  45   2.0000      -0.340686        -9.2705
  46   2.0000      -0.334065        -9.0904
  47   2.0000      -0.330718        -8.9993
  48   2.0000      -0.328940        -8.9509
  49   2.0000      -0.313926        -8.5424
  50   2.0000      -0.306274        -8.3341
  51   2.0000      -0.285114        -7.7583
  52   2.0000      -0.281207        -7.6520
  53   2.0000      -0.243819        -6.6347
  54   2.0000      -0.238990        -6.5032
  55   2.0000      -0.211456        -5.7540
  56   0.0000      -0.055159        -1.5010
  57   0.0000      -0.052109        -1.4180
  58   0.0000      -0.021990        -0.5984
  59   0.0000       0.003347         0.0911
  60   0.0000       0.039726         1.0810

MULLIKEN ATOMIC CHARGES
-----------------------
   0 C :   -0.524982
   1 C :   -0.266485
   2 C :    0.306231
   3 O :   -0.539834
   4 N :   -0.060683
   5 C :    0.182412
   6 C :   -0.222227
   7 C :   -0.250683
   8 C :    0.117239
   9 C :    0.143943
  10 C :   -0.417212
  11 Cl:   -0.132575
  12 Cl:   -0.142409
  13 H :    0.163559
  14 H :    0.163470
  15 H :    0.164873
  16 H :    0.185840
  17 H :    0.186163
  18 H :    0.331840
  19 H :    0.215792
  20 H :    0.198428
  21 H :    0.197300
Sum of atomic charges:    0.0000000

LOEWDIN ATOMIC CHARGES
----------------------
   0 C :   -0.410107
   1 C :   -0.241058
   2 C :    0.354817
   3 O :   -0.528216
   4 N :   -0.563031
   5 C :    0.159999
   6 C :   -0.128531
   7 C :   -0.152297
   8 C :   -0.203293
   9 C :   -0.179983
  10 C :   -0.129263
  11 Cl:    0.134551
  12 Cl:    0.123352
  13 H :    0.160113
  14 H :    0.160194
  15 H :    0.158349
  16 H :    0.187206
  17 H :    0.187317
  18 H :    0.305083
  19 H :    0.209741
  20 H :    0.194170
  21 H :    0.200889

  Mayer bond orders larger than 0.100000
B(  0-C ,  1-C ) :   0.9032 B(  0-C , 13-H ) :   0.9793 B(  0-C , 14-H ) :   0.9790
B(  0-C , 15-H ) :   0.9649 B(  1-C ,  2-C ) :   0.9580 B(  1-C , 16-H ) :   0.9326
B(  1-C , 17-H ) :   0.9316 B(  2-C ,  3-O ) :   1.7394 B(  2-C ,  4-N ) :   1.1338
B(  4-N ,  5-C ) :   1.0188 B(  4-N , 18-H ) :   0.8897 B(  5-C ,  6-C ) :   1.3289
B(  5-C , 10-C ) :   1.3221 B(  6-C ,  7-C ) :   1.3504 B(  6-C , 19-H ) :   0.9404
B(  7-C ,  8-C ) :   1.2960 B(  7-C , 20-H ) :   0.9473 B(  8-C ,  9-C ) :   1.2522
B(  8-C , 12-Cl) :   1.0225 B(  9-C , 10-C ) :   1.3079 B(  9-C , 11-Cl) :   1.0123
B( 10-C , 21-H ) :   0.9283

Dispersion correction           -0.008950019
FINAL SINGLE POINT ENERGY     -1398.631562789656

DIPOLE MOMENT
-------------

Method             : SCF
Type of density    : Electron Density
Multiplicity       :   1
Irrep              :   0
Energy             : -1398.6357864934991539 Eh
Relativity type    :
Basis              : AO
                                X                 Y                 Z
Electronic contribution:    -34.516447285      -2.472281714       0.525192046
Nuclear contribution   :     35.968227396       0.660124517      -0.577779472
                        -----------------------------------------
Total Dipole Moment    :      1.451780111      -1.812157197      -0.052587426
                        -----------------------------------------
Magnitude (a.u.)       :      2.322572848
Magnitude (Debye)      :      5.903511021

Rotational constants in cm-1:             0.053463             0.008473             0.007334
Rotational constants in MHz :          1602.767758           254.024432           219.869385

                             ****ORCA TERMINATED NORMALLY****
TOTAL RUN TIME: 0 days 0 hours 0 minutes 55 seconds 232 msec
