                         Program Version 6.0.0  -   RELEASE  -
|  1> ! pbe def2-sv(p) def2/J RI DEFGRID1 loosescf d4 GCP(DFT/SV(P)) printgap
|  2> %output
|  3>     printlevel normal
|  4> end
|  5> * xyz 0 1
|  6> C -3.1184343503 0.6567355062 0.1329691143
|  7> C -1.7264429975 0.1589235352 0.500052188
|  8> C -0.7941440771 0.1697852566 -0.7210628782
|  9> C 0.5541096657 -0.3612254768 -0.3174450092
| 10> O 0.8675087056 -1.5340650584 -0.3240212615
| 11> O 1.3541014804 0.6150753498 0.0914459461
| 12> C 2.6646483959 0.2926249358 0.5677756683
| 13> H -3.0706318659 1.673745188 -0.2472646368
| 14> H -3.5609209969 0.0223996835 -0.630677405
| 15> H -3.7626224862 0.6441628144 1.0077979478
| 16> H -1.7869788047 -0.8592408344 0.8901202243
| 17> H -1.3004300608 0.7949525686 1.2782310627
| 18> H -0.6820428848 1.1882066778 -1.0901793593
| 19> H -1.2042540793 -0.4724441428 -1.4999569555
| 20> H 3.3888178302 0.7270238131 -0.1193381967
| 21> H 2.7860351043 -0.7901881884 0.6123546734
| 22> H 2.7691302851 0.733525073 1.5568363719
| 23> *
| 24>
| 25>                          ****END OF INPUT****

CARTESIAN COORDINATES (ANGSTROEM)
---------------------------------
  C     -3.118434    0.656736    0.132969
  C     -1.726443    0.158924    0.500052
  C     -0.794144    0.169785   -0.721063
  C      0.554110   -0.361225   -0.317445
  O      0.867509   -1.534065   -0.324021
  O      1.354101    0.615075    0.091446
  C      2.664648    0.292625    0.567776
  H     -3.070632    1.673745   -0.247265
  H     -3.560921    0.022400   -0.630677
  H     -3.762622    0.644163    1.007798
  H     -1.786979   -0.859241    0.890120
  H     -1.300430    0.794953    1.278231
  H     -0.682043    1.188207   -1.090179
  H     -1.204254   -0.472444   -1.499957
  H      3.388818    0.727024   -0.119338
  H      2.786035   -0.790188    0.612355
  H      2.769130    0.733525    1.556836

 Total Charge           Charge          ....    0
 Multiplicity           Mult            ....    1
 Number of Electrons    NEL             ....   56
 Basis Dimension        Dim             ....  118

ORBITAL ENERGIES
----------------

  NO   OCC          E(Eh)            E(eV)
   0   2.0000     -18.798519      -511.5337
   1   2.0000     -18.729300      -509.6502
   2   2.0000     -10.003783      -272.2168
   3   2.0000      -9.939181      -270.4589
   4   2.0000      -9.896228      -269.2901
   5   2.0000      -9.896114      -269.2869
   6   2.0000      -9.880848      -268.8715
   7   2.0000      -1.003372       -27.3031
   8   2.0000      -0.906791       -24.6750
   9   2.0000      -0.727713       -19.8021
  10   2.0000      -0.672969       -18.3124
  11   2.0000      -0.621159       -16.9026
  12   2.0000      -0.537641       -14.6300
  13   2.0000      -0.505962       -13.7679
  14   2.0000      -0.448393       -12.2014
  15   2.0000      -0.432106       -11.7582
  16   2.0000      -0.430300       -11.7091
  17   2.0000      -0.401276       -10.9193
  18   2.0000      -0.383244       -10.4286
  19   2.0000      -0.373699       -10.1689
  20   2.0000      -0.348546        -9.4844
  21   2.0000      -0.342010        -9.3066
  22   2.0000      -0.320396        -8.7184
  23   2.0000      -0.302499        -8.2314
  24   2.0000      -0.299069        -8.1381
  25   2.0000      -0.292023        -7.9463
  26   2.0000      -0.253300        -6.8926
  27   2.0000      -0.216171        -5.8823
  28   0.0000      -0.016882        -0.4594
  29   0.0000       0.040265         1.0957
  30   0.0000       0.058007         1.5784
  31   0.0000       0.078535         2.1370
  32   0.0000       0.081453         2.2164

MULLIKEN ATOMIC CHARGES
-----------------------
   0 C :   -0.243266
   1 C :   -0.239398
   2 C :   -0.121796
   3 C :    0.106857
   4 O :   -0.207014
   5 O :   -0.245695
   6 C :   -0.129776
   7 H :    0.099163
   8 H :    0.101388
   9 H :    0.107406
  10 H :    0.105181
  11 H :    0.096996
  12 H :    0.093961
  13 H :    0.100019
  14 H :    0.121811
  15 H :    0.133250
  16 H :    0.120914
Sum of atomic charges:    0.0000000

LOEWDIN ATOMIC CHARGES
----------------------
   0 C :   -0.338927
   1 C :   -0.224614
   2 C :   -0.241416
   3 C :    0.036074
   4 O :   -0.173716
   5 O :   -0.075976
   6 C :   -0.209460
   7 H :    0.118291
   8 H :    0.119385
   9 H :    0.122013
  10 H :    0.122664
  11 H :    0.118541
  12 H :    0.128906
  13 H :    0.134135
  14 H :    0.120099
  15 H :    0.124185
  16 H :    0.119815

  Mayer bond orders larger than 0.100000
B(  0-C ,  1-C ) :   1.1574 B(  0-C ,  7-H ) :   0.9533 B(  0-C ,  8-H ) :   0.9534
B(  0-C ,  9-H ) :   0.9516 B(  1-C ,  2-C ) :   1.1276 B(  1-C , 10-H ) :   0.9266
B(  1-C , 11-H ) :   0.9274 B(  2-C ,  3-C ) :   1.0166 B(  2-C , 12-H ) :   0.9019
B(  2-C , 13-H ) :   0.9039 B(  3-C ,  4-O ) :   2.0701 B(  3-C ,  5-O ) :   1.2055
B(  5-O ,  6-C ) :   0.9362 B(  6-C , 14-H ) :   0.9613 B(  6-C , 15-H ) :   0.9278
B(  6-C , 16-H ) :   0.9608

Dispersion correction           -0.011805972
FINAL SINGLE POINT ENERGY      -346.238547570760

DIPOLE MOMENT
-------------

Method             : SCF
Type of density    : Electron Density
Multiplicity       :   1
Irrep              :   0
Energy             :  -346.3033100514380180 Eh
Relativity type    :
Basis              : AO
                                X                 Y                 Z
Electronic contribution:      6.033155623      -2.709359509      -1.430343944
Nuclear contribution   :     -5.993752430       3.422077038       1.645778185
                        -----------------------------------------
Total Dipole Moment    :      0.039403194       0.712717530       0.215434241
                        -----------------------------------------
Magnitude (a.u.)       :      0.745607672
Magnitude (Debye)      :      1.895184090

Rotational constants in cm-1:             0.204685             0.043661             0.039474
Rotational constants in MHz :          6136.308365          1308.934983          1183.389704

                             ****ORCA TERMINATED NORMALLY****
TOTAL RUN TIME: 0 days 0 hours 0 minutes 9 seconds 803 msec
