                         Program Version 6.0.0  -   RELEASE  -
|  1> ! pbe def2-sv(p) def2/J RI DEFGRID1 loosescf d4 GCP(DFT/SV(P)) printgap
|  2> %output
|  3>     printlevel normal
|  4> end
|  5> * xyz 0 1
|  6> C -2.6447341073 -0.7965333269 1.0149894777
|  7> C -2.2056603646 0.1586963346 -0.0929267366
|  8> C -3.1330139133 0.0089461544 -1.2988364332
|  9> C -0.7523485445 -0.0908179751 -0.5174507447
| 10> C 0.2597898263 0.3621656664 0.5336301885
| 11> C 1.7418746477 0.1521008908 0.1698264946
| 12> C 2.0582190496 -1.3369735637 0.0094741521
| 13> C 2.1072839045 0.8938298091 -1.1183001926
| 14> C 2.5891283444 0.7141885955 1.3178402286
| 15> H -2.0410303626 -0.6670876989 1.9090041803
| 16> H -2.5518392202 -1.8280583655 0.6814726274
| 17> H -3.6837223774 -0.6145793624 1.2804672381
| 18> H -2.2870914447 1.1864626589 0.279684193
| 19> H -2.8676145422 0.7178528898 -2.0798299593
| 20> H -3.060047422 -0.9965140751 -1.708066934
| 21> H -4.1664603815 0.1878310451 -1.0111154217
| 22> H -0.6283595502 -1.1549544194 -0.7237668122
| 23> H -0.5706597589 0.4549797431 -1.4446414211
| 24> H 0.0678120936 -0.1696751255 1.4676032761
| 25> H 0.1014956479 1.4268881897 0.726037115
| 26> H 1.5372104871 -1.7576674701 -0.8462563987
| 27> H 3.1258159651 -1.4786178658 -0.1437002103
| 28> H 1.7639118886 -1.8882700488 0.8997442818
| 29> H 3.1810799639 0.8449430302 -1.2853336457
| 30> H 1.6134097628 0.4508391801 -1.9788922506
| 31> H 1.8184798017 1.9404200587 -1.052193716
| 32> H 3.6484985527 0.5758233373 1.1139378713
| 33> H 2.352300929 0.2096029033 2.2519545025
| 34> H 2.4020515181 1.7780047821 1.4464513385
| 35> *
| 36>
| 37>                          ****END OF INPUT****

CARTESIAN COORDINATES (ANGSTROEM)
---------------------------------
  C     -2.644734   -0.796533    1.014989
  C     -2.205660    0.158696   -0.092927
  C     -3.133014    0.008946   -1.298836
  C     -0.752349   -0.090818   -0.517451
  C      0.259790    0.362166    0.533630
  C      1.741875    0.152101    0.169826
  C      2.058219   -1.336974    0.009474
  C      2.107284    0.893830   -1.118300
  C      2.589128    0.714189    1.317840
  H     -2.041030   -0.667088    1.909004
  H     -2.551839   -1.828058    0.681473
  H     -3.683722   -0.614579    1.280467
  H     -2.287091    1.186463    0.279684
  H     -2.867615    0.717853   -2.079830
  H     -3.060047   -0.996514   -1.708067
  H     -4.166460    0.187831   -1.011115
  H     -0.628360   -1.154954   -0.723767
  H     -0.570660    0.454980   -1.444641
  H      0.067812   -0.169675    1.467603
  H      0.101496    1.426888    0.726037
  H      1.537210   -1.757667   -0.846256
  H      3.125816   -1.478618   -0.143700
  H      1.763912   -1.888270    0.899744
  H      3.181080    0.844943   -1.285334
  H      1.613410    0.450839   -1.978892
  H      1.818480    1.940420   -1.052194
  H      3.648499    0.575823    1.113938
  H      2.352301    0.209603    2.251955
  H      2.402052    1.778005    1.446451

 Total Charge           Charge          ....    0
 Multiplicity           Mult            ....    1
 Number of Electrons    NEL             ....   74
 Basis Dimension        Dim             ....  166

ORBITAL ENERGIES
----------------

  NO   OCC          E(Eh)            E(eV)
   0   2.0000      -9.901517      -269.4340
   1   2.0000      -9.889638      -269.1107
   2   2.0000      -9.876229      -268.7458
   3   2.0000      -9.875524      -268.7267
   4   2.0000      -9.868333      -268.5310
   5   2.0000      -9.867834      -268.5174
   6   2.0000      -9.867773      -268.5158
   7   2.0000      -9.867663      -268.5128
   8   2.0000      -9.867038      -268.4958
   9   2.0000      -0.747706       -20.3461
  10   2.0000      -0.719913       -19.5898
  11   2.0000      -0.643669       -17.5151
  12   2.0000      -0.609613       -16.5884
  13   2.0000      -0.608938       -16.5700
  14   2.0000      -0.606140       -16.4939
  15   2.0000      -0.556506       -15.1433
  16   2.0000      -0.493773       -13.4363
  17   2.0000      -0.466083       -12.6828
  18   2.0000      -0.420695       -11.4477
  19   2.0000      -0.408272       -11.1096
  20   2.0000      -0.401675       -10.9301
  21   2.0000      -0.390756       -10.6330
  22   2.0000      -0.376662       -10.2495
  23   2.0000      -0.372500       -10.1362
  24   2.0000      -0.352806        -9.6003
  25   2.0000      -0.341169        -9.2837
  26   2.0000      -0.335666        -9.1339
  27   2.0000      -0.327778        -8.9193
  28   2.0000      -0.317099        -8.6287
  29   2.0000      -0.311798        -8.4844
  30   2.0000      -0.302660        -8.2358
  31   2.0000      -0.297495        -8.0953
  32   2.0000      -0.285433        -7.7670
  33   2.0000      -0.280506        -7.6329
  34   2.0000      -0.271903        -7.3988
  35   2.0000      -0.264935        -7.2092
  36   2.0000      -0.256757        -6.9867
  37   0.0000       0.028602         0.7783
  38   0.0000       0.046095         1.2543
  39   0.0000       0.060057         1.6342
  40   0.0000       0.065582         1.7846
  41   0.0000       0.083901         2.2831

MULLIKEN ATOMIC CHARGES
-----------------------
   0 C :   -0.255504
   1 C :   -0.167551
   2 C :   -0.230780
   3 C :   -0.141323
   4 C :   -0.112635
   5 C :   -0.236157
   6 C :   -0.222204
   7 C :   -0.222631
   8 C :   -0.200185
   9 H :    0.107096
  10 H :    0.091015
  11 H :    0.096757
  12 H :    0.066749
  13 H :    0.096333
  14 H :    0.089787
  15 H :    0.095467
  16 H :    0.076281
  17 H :    0.078279
  18 H :    0.075966
  19 H :    0.068483
  20 H :    0.104038
  21 H :    0.091547
  22 H :    0.091031
  23 H :    0.091589
  24 H :    0.105280
  25 H :    0.091167
  26 H :    0.091595
  27 H :    0.090148
  28 H :    0.090363
Sum of atomic charges:    0.0000000

LOEWDIN ATOMIC CHARGES
----------------------
   0 C :   -0.330564
   1 C :   -0.154945
   2 C :   -0.328692
   3 C :   -0.219225
   4 C :   -0.206755
   5 C :   -0.106143
   6 C :   -0.317558
   7 C :   -0.318097
   8 C :   -0.315297
   9 H :    0.115855
  10 H :    0.115826
  11 H :    0.117217
  12 H :    0.112093
  13 H :    0.115222
  14 H :    0.115616
  15 H :    0.115477
  16 H :    0.113796
  17 H :    0.114220
  18 H :    0.111782
  19 H :    0.111948
  20 H :    0.115307
  21 H :    0.116380
  22 H :    0.115583
  23 H :    0.116543
  24 H :    0.115718
  25 H :    0.115677
  26 H :    0.113970
  27 H :    0.114478
  28 H :    0.114569

  Mayer bond orders larger than 0.100000
B(  0-C ,  1-C ) :   1.1084 B(  0-C ,  9-H ) :   0.9452 B(  0-C , 10-H ) :   0.9492
B(  0-C , 11-H ) :   0.9497 B(  1-C ,  2-C ) :   1.1143 B(  1-C ,  3-C ) :   1.0806
B(  1-C , 12-H ) :   0.9018 B(  2-C , 13-H ) :   0.9483 B(  2-C , 14-H ) :   0.9491
B(  2-C , 15-H ) :   0.9512 B(  3-C ,  4-C ) :   1.1435 B(  3-C , 16-H ) :   0.9039
B(  3-C , 17-H ) :   0.9084 B(  4-C ,  5-C ) :   1.0414 B(  4-C , 18-H ) :   0.9063
B(  4-C , 19-H ) :   0.9101 B(  5-C ,  6-C ) :   1.0727 B(  5-C ,  7-C ) :   1.0733
B(  5-C ,  8-C ) :   1.0801 B(  6-C , 20-H ) :   0.9418 B(  6-C , 21-H ) :   0.9472
B(  6-C , 22-H ) :   0.9487 B(  7-C , 23-H ) :   0.9470 B(  7-C , 24-H ) :   0.9407
B(  7-C , 25-H ) :   0.9485 B(  8-C , 26-H ) :   0.9467 B(  8-C , 27-H ) :   0.9465
B(  8-C , 28-H ) :   0.9469

Dispersion correction           -0.025751782
FINAL SINGLE POINT ENERGY      -354.088900700233

DIPOLE MOMENT
-------------

Method             : SCF
Type of density    : Electron Density
Multiplicity       :   1
Irrep              :   0
Energy             :  -354.1860628018710599 Eh
Relativity type    :
Basis              : AO
                                X                 Y                 Z
Electronic contribution:      0.223628002       0.756244230       0.202645166
Nuclear contribution   :     -0.229623024      -0.733432945      -0.203994036
                        -----------------------------------------
Total Dipole Moment    :     -0.005995022       0.022811285      -0.001348869
                        -----------------------------------------
Magnitude (a.u.)       :      0.023624446
Magnitude (Debye)      :      0.060048570

Rotational constants in cm-1:             0.094778             0.024569             0.023022
Rotational constants in MHz :          2841.380782           736.554149           690.183484

                             ****ORCA TERMINATED NORMALLY****
TOTAL RUN TIME: 0 days 0 hours 0 minutes 13 seconds 996 msec
