                         Program Version 6.0.0  -   RELEASE  -
|  1> ! r2scan-3c def2/J RI DEFGRID2 scfconv6 printgap
|  2> %output
|  3>     printlevel normal
|  4> end
|  5> * xyz 0 1
|  6> C -1.6020636199 0.4533819478 1.2432158506
|  7> C -1.6537940068 -0.5769797618 0.1179501061
|  8> C -2.9786325153 -0.4924119679 -0.6350103101
|  9> C -0.497023879 -0.3672070101 -0.8641392037
| 10> O 0.7588536685 -0.6697420061 -0.2443036972
| 11> C 1.6224754165 0.310560471 -0.004578934
| 12> O 1.4334294736 1.470121953 -0.3091801869
| 13> C 2.8503003707 -0.2054390401 0.6857563397
| 14> H -0.6618273043 0.385428709 1.7868367905
| 15> H -2.4152946675 0.2884533777 1.944514132
| 16> H -1.6880072412 1.4602346086 0.8394324554
| 17> H -1.5445372333 -1.5775404062 0.5486440707
| 18> H -3.0293901651 -1.2495813273 -1.4127338648
| 19> H -3.0873498626 0.4863247935 -1.0960636513
| 20> H -3.8069178998 -0.6446338416 0.0509541431
| 21> H -0.5846576155 -1.0518226063 -1.7110415073
| 22> H -0.4739673425 0.6665644267 -1.2231071607
| 23> H 3.62999953 0.5482578185 0.6548423413
| 24> H 3.1771624064 -1.1246327341 0.2097972066
| 25> H 2.6015549534 -0.4281437404 1.7207623693
| 26> *
| 27>
| 28>                          ****END OF INPUT****

CARTESIAN COORDINATES (ANGSTROEM)
---------------------------------
  C     -1.602064    0.453382    1.243216
  C     -1.653794   -0.576980    0.117950
  C     -2.978633   -0.492412   -0.635010
  C     -0.497024   -0.367207   -0.864139
  O      0.758854   -0.669742   -0.244304
  C      1.622475    0.310560   -0.004579
  O      1.433429    1.470122   -0.309180
  C      2.850300   -0.205439    0.685756
  H     -0.661827    0.385429    1.786837
  H     -2.415295    0.288453    1.944514
  H     -1.688007    1.460235    0.839432
  H     -1.544537   -1.577540    0.548644
  H     -3.029390   -1.249581   -1.412734
  H     -3.087350    0.486325   -1.096064
  H     -3.806918   -0.644634    0.050954
  H     -0.584658   -1.051823   -1.711042
  H     -0.473967    0.666564   -1.223107
  H      3.630000    0.548258    0.654842
  H      3.177162   -1.124633    0.209797
  H      2.601555   -0.428144    1.720762

 Total Charge           Charge          ....    0
 Multiplicity           Mult            ....    1
 Number of Electrons    NEL             ....   64
 Basis Dimension        Dim             ....  222

ORBITAL ENERGIES
----------------

  NO   OCC          E(Eh)            E(eV)
   0   2.0000     -18.996481      -516.9205
   1   2.0000     -18.927979      -515.0565
   2   2.0000     -10.156056      -276.3603
   3   2.0000     -10.084876      -274.4234
   4   2.0000     -10.044026      -273.3118
   5   2.0000     -10.038949      -273.1737
   6   2.0000     -10.025505      -272.8079
   7   2.0000     -10.018734      -272.6236
   8   2.0000      -1.071349       -29.1529
   9   2.0000      -0.975998       -26.5583
  10   2.0000      -0.783677       -21.3249
  11   2.0000      -0.728258       -19.8169
  12   2.0000      -0.662863       -18.0374
  13   2.0000      -0.657178       -17.8827
  14   2.0000      -0.554513       -15.0891
  15   2.0000      -0.528567       -14.3830
  16   2.0000      -0.467188       -12.7128
  17   2.0000      -0.453422       -12.3382
  18   2.0000      -0.441482       -12.0133
  19   2.0000      -0.426701       -11.6111
  20   2.0000      -0.408374       -11.1124
  21   2.0000      -0.390870       -10.6361
  22   2.0000      -0.379287       -10.3209
  23   2.0000      -0.362747        -9.8709
  24   2.0000      -0.355853        -9.6833
  25   2.0000      -0.350931        -9.5493
  26   2.0000      -0.323400        -8.8001
  27   2.0000      -0.320442        -8.7197
  28   2.0000      -0.310611        -8.4522
  29   2.0000      -0.298633        -8.1262
  30   2.0000      -0.265274        -7.2185
  31   2.0000      -0.236839        -6.4447
  32   0.0000      -0.013559        -0.3690
  33   0.0000       0.074496         2.0271
  34   0.0000       0.080383         2.1873
  35   0.0000       0.115141         3.1332
  36   0.0000       0.125581         3.4172

MULLIKEN ATOMIC CHARGES
-----------------------
   0 C :   -0.491255
   1 C :   -0.007950
   2 C :   -0.482489
   3 C :   -0.238131
   4 O :   -0.160879
   5 C :    0.433916
   6 O :   -0.436403
   7 C :   -0.520842
   8 H :    0.148072
   9 H :    0.147498
  10 H :    0.160258
  11 H :    0.148093
  12 H :    0.145525
  13 H :    0.151888
  14 H :    0.151135
  15 H :    0.146101
  16 H :    0.192413
  17 H :    0.177086
  18 H :    0.166723
  19 H :    0.169239
Sum of atomic charges:    0.0000000

LOEWDIN ATOMIC CHARGES
----------------------
   0 C :   -0.406076
   1 C :   -0.219877
   2 C :   -0.410142
   3 C :    0.040248
   4 O :   -0.599192
   5 C :    0.352923
   6 O :   -0.439489
   7 C :   -0.335160
   8 H :    0.159630
   9 H :    0.153455
  10 H :    0.160217
  11 H :    0.162095
  12 H :    0.154177
  13 H :    0.156912
  14 H :    0.157446
  15 H :    0.181327
  16 H :    0.200599
  17 H :    0.174736
  18 H :    0.176692
  19 H :    0.179478

  Mayer bond orders larger than 0.100000
B(  0-C ,  1-C ) :   0.9044 B(  0-C ,  8-H ) :   0.9666 B(  0-C ,  9-H ) :   0.9737
B(  0-C , 10-H ) :   0.9779 B(  1-C ,  2-C ) :   0.9155 B(  1-C ,  3-C ) :   0.9363
B(  1-C , 11-H ) :   0.9515 B(  2-C , 12-H ) :   0.9724 B(  2-C , 13-H ) :   0.9815
B(  2-C , 14-H ) :   0.9704 B(  3-C ,  4-O ) :   0.7998 B(  3-C , 15-H ) :   0.9590
B(  3-C , 16-H ) :   0.9767 B(  4-O ,  5-C ) :   1.0414 B(  5-C ,  6-O ) :   1.8351
B(  5-C ,  7-C ) :   0.9609 B(  7-C , 17-H ) :   0.9894 B(  7-C , 18-H ) :   0.9635
B(  7-C , 19-H ) :   0.9390

Dispersion correction           -0.005298936
FINAL SINGLE POINT ENERGY      -386.238089483509

DIPOLE MOMENT
-------------

Method             : SCF
Type of density    : Electron Density
Multiplicity       :   1
Irrep              :   0
Energy             :  -386.2447831123298556 Eh
Relativity type    :
Basis              : AO
                                X                 Y                 Z
Electronic contribution:      7.111070103       1.287627540      -1.988979904
Nuclear contribution   :     -7.363278616      -2.090648705       2.161619807
                        -----------------------------------------
Total Dipole Moment    :     -0.252208513      -0.803021165       0.172639902
                        -----------------------------------------
Magnitude (a.u.)       :      0.859218634
Magnitude (Debye)      :      2.183960205

Rotational constants in cm-1:             0.144592             0.035141             0.034125
Rotational constants in MHz :          4334.745652          1053.513421          1023.053783

                             ****ORCA TERMINATED NORMALLY****
TOTAL RUN TIME: 0 days 0 hours 0 minutes 31 seconds 324 msec
