                         Program Version 6.0.0  -   RELEASE  -
|  1> ! r2scan-3c def2/J RI DEFGRID2 scfconv6 printgap
|  2> %output
|  3>     printlevel normal
|  4> end
|  5> %cpcm
|  6>     smd true
|  7>     smdsolvent "water"
|  8> end
|  9> * xyz 0 1
| 10> C -1.6020636199 0.4533819478 1.2432158506
| 11> C -1.6537940068 -0.5769797618 0.1179501061
| 12> C -2.9786325153 -0.4924119679 -0.6350103101
| 13> C -0.497023879 -0.3672070101 -0.8641392037
| 14> O 0.7588536685 -0.6697420061 -0.2443036972
| 15> C 1.6224754165 0.310560471 -0.004578934
| 16> O 1.4334294736 1.470121953 -0.3091801869
| 17> C 2.8503003707 -0.2054390401 0.6857563397
| 18> H -0.6618273043 0.385428709 1.7868367905
| 19> H -2.4152946675 0.2884533777 1.944514132
| 20> H -1.6880072412 1.4602346086 0.8394324554
| 21> H -1.5445372333 -1.5775404062 0.5486440707
| 22> H -3.0293901651 -1.2495813273 -1.4127338648
| 23> H -3.0873498626 0.4863247935 -1.0960636513
| 24> H -3.8069178998 -0.6446338416 0.0509541431
| 25> H -0.5846576155 -1.0518226063 -1.7110415073
| 26> H -0.4739673425 0.6665644267 -1.2231071607
| 27> H 3.62999953 0.5482578185 0.6548423413
| 28> H 3.1771624064 -1.1246327341 0.2097972066
| 29> H 2.6015549534 -0.4281437404 1.7207623693
| 30> *
| 31>
| 32>                          ****END OF INPUT****

CARTESIAN COORDINATES (ANGSTROEM)
---------------------------------
  C     -1.602064    0.453382    1.243216
  C     -1.653794   -0.576980    0.117950
  C     -2.978633   -0.492412   -0.635010
  C     -0.497024   -0.367207   -0.864139
  O      0.758854   -0.669742   -0.244304
  C      1.622475    0.310560   -0.004579
  O      1.433429    1.470122   -0.309180
  C      2.850300   -0.205439    0.685756
  H     -0.661827    0.385429    1.786837
  H     -2.415295    0.288453    1.944514
  H     -1.688007    1.460235    0.839432
  H     -1.544537   -1.577540    0.548644
  H     -3.029390   -1.249581   -1.412734
  H     -3.087350    0.486325   -1.096064
  H     -3.806918   -0.644634    0.050954
  H     -0.584658   -1.051823   -1.711042
  H     -0.473967    0.666564   -1.223107
  H      3.630000    0.548258    0.654842
  H      3.177162   -1.124633    0.209797
  H      2.601555   -0.428144    1.720762

 Total Charge           Charge          ....    0
 Multiplicity           Mult            ....    1
 Number of Electrons    NEL             ....   64
 Basis Dimension        Dim             ....  222

ORBITAL ENERGIES
----------------

  NO   OCC          E(Eh)            E(eV)
   0   2.0000     -19.002063      -517.0724
   1   2.0000     -18.943197      -515.4706
   2   2.0000     -10.165960      -276.6298
   3   2.0000     -10.077792      -274.2307
   4   2.0000     -10.034144      -273.0430
   5   2.0000     -10.030148      -272.9342
   6   2.0000     -10.011960      -272.4393
   7   2.0000     -10.010036      -272.3869
   8   2.0000      -1.078389       -29.3445
   9   2.0000      -0.989410       -26.9232
  10   2.0000      -0.775376       -21.0991
  11   2.0000      -0.723211       -19.6796
  12   2.0000      -0.656704       -17.8698
  13   2.0000      -0.646593       -17.5947
  14   2.0000      -0.548773       -14.9329
  15   2.0000      -0.524354       -14.2684
  16   2.0000      -0.467169       -12.7123
  17   2.0000      -0.458850       -12.4859
  18   2.0000      -0.446808       -12.1583
  19   2.0000      -0.418895       -11.3987
  20   2.0000      -0.400011       -10.8849
  21   2.0000      -0.387878       -10.5547
  22   2.0000      -0.373533       -10.1643
  23   2.0000      -0.353643        -9.6231
  24   2.0000      -0.349702        -9.5159
  25   2.0000      -0.341731        -9.2990
  26   2.0000      -0.322052        -8.7635
  27   2.0000      -0.321235        -8.7412
  28   2.0000      -0.301407        -8.2017
  29   2.0000      -0.291298        -7.9266
  30   2.0000      -0.268220        -7.2986
  31   2.0000      -0.252897        -6.8817
  32   0.0000      -0.020811        -0.5663
  33   0.0000       0.078891         2.1467
  34   0.0000       0.090979         2.4757
  35   0.0000       0.123352         3.3566
  36   0.0000       0.133754         3.6396

MULLIKEN ATOMIC CHARGES
-----------------------
   0 C :   -0.554809
   1 C :    0.028999
   2 C :   -0.529692
   3 C :   -0.243812
   4 O :   -0.179633
   5 C :    0.479391
   6 O :   -0.524859
   7 C :   -0.559718
   8 H :    0.161556
   9 H :    0.164602
  10 H :    0.168643
  11 H :    0.159658
  12 H :    0.160820
  13 H :    0.163501
  14 H :    0.164705
  15 H :    0.172110
  16 H :    0.188748
  17 H :    0.185986
  18 H :    0.191309
  19 H :    0.202493
Sum of atomic charges:    0.0000000

LOEWDIN ATOMIC CHARGES
----------------------
   0 C :   -0.416758
   1 C :   -0.215079
   2 C :   -0.415647
   3 C :    0.044133
   4 O :   -0.601202
   5 C :    0.364220
   6 O :   -0.501956
   7 C :   -0.333922
   8 H :    0.161249
   9 H :    0.158812
  10 H :    0.159865
  11 H :    0.166076
  12 H :    0.158923
  13 H :    0.159803
  14 H :    0.160922
  15 H :    0.192175
  16 H :    0.199794
  17 H :    0.178792
  18 H :    0.187198
  19 H :    0.192601

  Mayer bond orders larger than 0.100000
B(  0-C ,  1-C ) :   0.8749 B(  0-C ,  8-H ) :   0.9651 B(  0-C ,  9-H ) :   0.9695
B(  0-C , 10-H ) :   0.9806 B(  1-C ,  2-C ) :   0.9090 B(  1-C ,  3-C ) :   0.9315
B(  1-C , 11-H ) :   0.9528 B(  2-C , 12-H ) :   0.9691 B(  2-C , 13-H ) :   0.9802
B(  2-C , 14-H ) :   0.9675 B(  3-C ,  4-O ) :   0.7863 B(  3-C , 15-H ) :   0.9508
B(  3-C , 16-H ) :   0.9730 B(  4-O ,  5-C ) :   1.0700 B(  5-C ,  6-O ) :   1.7635
B(  5-C ,  7-C ) :   0.9591 B(  7-C , 17-H ) :   0.9814 B(  7-C , 18-H ) :   0.9520
B(  7-C , 19-H ) :   0.9272

Dispersion correction           -0.005298936
FINAL SINGLE POINT ENERGY      -386.243216357555

DIPOLE MOMENT
-------------

Method             : SCF
Type of density    : Electron Density
Multiplicity       :   1
Irrep              :   0
Energy             :  -386.2499099863754850 Eh
Relativity type    :
Basis              : AO
                                X                 Y                 Z
Electronic contribution:      7.045753923       0.915899955      -1.940067211
Nuclear contribution   :     -7.363278616      -2.090648705       2.161619807
                        -----------------------------------------
Total Dipole Moment    :     -0.317524693      -1.174748749       0.221552596
                        -----------------------------------------
Magnitude (a.u.)       :      1.236908286
Magnitude (Debye)      :      3.143971007

Rotational constants in cm-1:             0.144592             0.035141             0.034125
Rotational constants in MHz :          4334.745652          1053.513421          1023.053783

                             ****ORCA TERMINATED NORMALLY****
TOTAL RUN TIME: 0 days 0 hours 0 minutes 37 seconds 552 msec
