                         Program Version 6.0.0  -   RELEASE  -
|  1> ! pbe def2-sv(p) def2/J RI DEFGRID1 loosescf d4 GCP(DFT/SV(P)) printgap
|  2> %output
|  3>     printlevel normal
|  4> end
|  5> * xyz 0 1
|  6> C -2.1784866411 0.3133540653 -1.135288958
|  7> C -2.1596428363 -0.6031968518 0.0818602553
|  8> C -1.224052155 -0.1742910715 1.2171852275
|  9> C 0.2874686839 -0.0805967159 0.9457540883
| 10> C 0.8963758867 -1.1790741124 0.0458217186
| 11> C 1.7681767922 -0.4541379429 -0.9891951456
| 12> C 2.0578130749 0.9062089442 -0.3600140356
| 13> C 0.7375668172 1.2502340261 0.3208560821
| 14> H -2.9688234804 0.0054357875 -1.8171391118
| 15> H -2.3687079679 1.3421793717 -0.837149621
| 16> H -1.2361742675 0.2693196466 -1.6732456115
| 17> H -3.1683317378 -0.6393675586 0.5025859749
| 18> H -1.9165841749 -1.6184533751 -0.2370178029
| 19> H -1.549771627 0.802303331 1.5847690266
| 20> H -1.3735571101 -0.8899334482 2.0304878744
| 21> H 0.7717423927 -0.1469275822 1.9267684569
| 22> H 1.5042321502 -1.8565828565 0.6460464255
| 23> H 0.1327512064 -1.7772941849 -0.4443569832
| 24> H 2.6765932182 -1.0080612075 -1.2222643578
| 25> H 1.2127458087 -0.3136801505 -1.9180232801
| 26> H 2.8494722861 0.8120550755 0.3854195576
| 27> H 2.3609897112 1.6515736225 -1.0941389552
| 28> H 0.8462249633 2.029852611 1.0746499349
| 29> H 0.0199629032 1.5937892747 -0.4205848625
| 30> *
| 31>
| 32>                          ****END OF INPUT****

CARTESIAN COORDINATES (ANGSTROEM)
---------------------------------
  C     -2.178487    0.313354   -1.135289
  C     -2.159643   -0.603197    0.081860
  C     -1.224052   -0.174291    1.217185
  C      0.287469   -0.080597    0.945754
  C      0.896376   -1.179074    0.045822
  C      1.768177   -0.454138   -0.989195
  C      2.057813    0.906209   -0.360014
  C      0.737567    1.250234    0.320856
  H     -2.968823    0.005436   -1.817139
  H     -2.368708    1.342179   -0.837150
  H     -1.236174    0.269320   -1.673246
  H     -3.168332   -0.639368    0.502586
  H     -1.916584   -1.618453   -0.237018
  H     -1.549772    0.802303    1.584769
  H     -1.373557   -0.889933    2.030488
  H      0.771742   -0.146928    1.926768
  H      1.504232   -1.856583    0.646046
  H      0.132751   -1.777294   -0.444357
  H      2.676593   -1.008061   -1.222264
  H      1.212746   -0.313680   -1.918023
  H      2.849472    0.812055    0.385420
  H      2.360990    1.651574   -1.094139
  H      0.846225    2.029853    1.074650
  H      0.019963    1.593789   -0.420585

 Total Charge           Charge          ....    0
 Multiplicity           Mult            ....    1
 Number of Electrons    NEL             ....   64
 Basis Dimension        Dim             ....  144

ORBITAL ENERGIES
----------------

  NO   OCC          E(Eh)            E(eV)
   0   2.0000      -9.883619      -268.9469
   1   2.0000      -9.880098      -268.8511
   2   2.0000      -9.877285      -268.7746
   3   2.0000      -9.875331      -268.7214
   4   2.0000      -9.874777      -268.7063
   5   2.0000      -9.872597      -268.6470
   6   2.0000      -9.871404      -268.6146
   7   2.0000      -9.870841      -268.5992
   8   2.0000      -0.756905       -20.5964
   9   2.0000      -0.701971       -19.1016
  10   2.0000      -0.644305       -17.5324
  11   2.0000      -0.629435       -17.1278
  12   2.0000      -0.586898       -15.9703
  13   2.0000      -0.522616       -14.2211
  14   2.0000      -0.502740       -13.6803
  15   2.0000      -0.469833       -12.7848
  16   2.0000      -0.436240       -11.8707
  17   2.0000      -0.421493       -11.4694
  18   2.0000      -0.393635       -10.7114
  19   2.0000      -0.387754       -10.5513
  20   2.0000      -0.367229        -9.9928
  21   2.0000      -0.356099        -9.6899
  22   2.0000      -0.346813        -9.4373
  23   2.0000      -0.316082        -8.6010
  24   2.0000      -0.306518        -8.3408
  25   2.0000      -0.297292        -8.0897
  26   2.0000      -0.289010        -7.8643
  27   2.0000      -0.288546        -7.8517
  28   2.0000      -0.275380        -7.4935
  29   2.0000      -0.266230        -7.2445
  30   2.0000      -0.261896        -7.1266
  31   2.0000      -0.254280        -6.9193
  32   0.0000       0.027372         0.7448
  33   0.0000       0.042523         1.1571
  34   0.0000       0.053529         1.4566
  35   0.0000       0.069091         1.8801
  36   0.0000       0.091700         2.4953

MULLIKEN ATOMIC CHARGES
-----------------------
   0 C :   -0.292433
   1 C :   -0.193791
   2 C :   -0.109487
   3 C :   -0.177521
   4 C :   -0.105794
   5 C :   -0.183803
   6 C :   -0.147968
   7 C :   -0.148502
   8 H :    0.099318
   9 H :    0.102830
  10 H :    0.116853
  11 H :    0.083250
  12 H :    0.092093
  13 H :    0.075130
  14 H :    0.076280
  15 H :    0.060138
  16 H :    0.074768
  17 H :    0.080488
  18 H :    0.083149
  19 H :    0.087033
  20 H :    0.077133
  21 H :    0.085638
  22 H :    0.081017
  23 H :    0.084180
Sum of atomic charges:   -0.0000000

LOEWDIN ATOMIC CHARGES
----------------------
   0 C :   -0.346249
   1 C :   -0.235440
   2 C :   -0.219053
   3 C :   -0.145122
   4 C :   -0.225738
   5 C :   -0.228722
   6 C :   -0.227029
   7 C :   -0.226178
   8 H :    0.119051
   9 H :    0.117076
  10 H :    0.115439
  11 H :    0.117227
  12 H :    0.113460
  13 H :    0.115057
  14 H :    0.115713
  15 H :    0.117209
  16 H :    0.117734
  17 H :    0.115774
  18 H :    0.115403
  19 H :    0.114066
  20 H :    0.113990
  21 H :    0.114849
  22 H :    0.114675
  23 H :    0.116810

  Mayer bond orders larger than 0.100000
B(  0-C ,  1-C ) :   1.1636 B(  0-C ,  8-H ) :   0.9458 B(  0-C ,  9-H ) :   0.9473
B(  0-C , 10-H ) :   0.9391 B(  1-C ,  2-C ) :   1.1447 B(  1-C , 11-H ) :   0.9207
B(  1-C , 12-H ) :   0.9144 B(  2-C ,  3-C ) :   1.0806 B(  2-C , 13-H ) :   0.9167
B(  2-C , 14-H ) :   0.9161 B(  3-C ,  4-C ) :   1.1184 B(  3-C ,  7-C ) :   1.1295
B(  3-C , 15-H ) :   0.8906 B(  4-C ,  5-C ) :   1.1659 B(  4-C , 16-H ) :   0.9135
B(  4-C , 17-H ) :   0.9094 B(  5-C ,  6-C ) :   1.1410 B(  5-C , 18-H ) :   0.9229
B(  5-C , 19-H ) :   0.9133 B(  6-C ,  7-C ) :   1.1158 B(  6-C , 20-H ) :   0.9211
B(  6-C , 21-H ) :   0.9282 B(  7-C , 22-H ) :   0.9182 B(  7-C , 23-H ) :   0.9068

Dispersion correction           -0.021899700
FINAL SINGLE POINT ENERGY      -313.688396196953

DIPOLE MOMENT
-------------

Method             : SCF
Type of density    : Electron Density
Multiplicity       :   1
Irrep              :   0
Energy             :  -313.7689873352778704 Eh
Relativity type    :
Basis              : AO
                                X                 Y                 Z
Electronic contribution:      2.040070270      -0.263284369       1.443604694
Nuclear contribution   :     -2.070746977       0.240365211      -1.419622059
                        -----------------------------------------
Total Dipole Moment    :     -0.030676707      -0.022919158       0.023982635
                        -----------------------------------------
Magnitude (a.u.)       :      0.045183127
Magnitude (Debye)      :      0.114846381

Rotational constants in cm-1:             0.105833             0.044879             0.043801
Rotational constants in MHz :          3172.793372          1345.440051          1313.125058

                             ****ORCA TERMINATED NORMALLY****
TOTAL RUN TIME: 0 days 0 hours 0 minutes 10 seconds 266 msec
