                         Program Version 6.0.0  -   RELEASE  -
|  1> ! r2scan-3c def2/J RI DEFGRID2 scfconv6 printgap
|  2> %output
|  3>     printlevel normal
|  4> end
|  5> * xyz 0 1
|  6> C -2.4994519751 0.5088429962 0.8795358058
|  7> C -1.8755728577 -0.4989729169 -0.0785108491
|  8> C -0.8528796225 0.153853967 -1.0050674512
|  9> O 0.2625091483 0.6784380979 -0.2711386587
| 10> C 1.274781843 -0.1358518518 0.0069448149
| 11> O 1.3153691862 -1.298647689 -0.3394550046
| 12> C 2.3498351632 0.5699236723 0.778146308
| 13> H -3.1887219607 0.0096953589 1.5547502629
| 14> H -1.728212403 0.9981432645 1.4693642681
| 15> H -3.043759776 1.2696257575 0.3259966342
| 16> H -2.6474712002 -0.9549624224 -0.6986406236
| 17> H -1.3785100336 -1.2943650511 0.4814872952
| 18> H -0.480680802 -0.5739874557 -1.7328161034
| 19> H -1.2806365778 1.0177958657 -1.5150641547
| 20> H 1.9278715626 0.9793099076 1.6917189831
| 21> H 2.7294957142 1.3958966939 0.1825935285
| 22> H 3.1495389846 -0.1257954593 1.0088976187
| 23> *
| 24>
| 25>                          ****END OF INPUT****

CARTESIAN COORDINATES (ANGSTROEM)
---------------------------------
  C     -2.499452    0.508843    0.879536
  C     -1.875573   -0.498973   -0.078511
  C     -0.852880    0.153854   -1.005067
  O      0.262509    0.678438   -0.271139
  C      1.274782   -0.135852    0.006945
  O      1.315369   -1.298648   -0.339455
  C      2.349835    0.569924    0.778146
  H     -3.188722    0.009695    1.554750
  H     -1.728212    0.998143    1.469364
  H     -3.043760    1.269626    0.325997
  H     -2.647471   -0.954962   -0.698641
  H     -1.378510   -1.294365    0.481487
  H     -0.480681   -0.573987   -1.732816
  H     -1.280637    1.017796   -1.515064
  H      1.927872    0.979310    1.691719
  H      2.729496    1.395897    0.182594
  H      3.149539   -0.125795    1.008898

 Total Charge           Charge          ....    0
 Multiplicity           Mult            ....    1
 Number of Electrons    NEL             ....   56
 Basis Dimension        Dim             ....  193

ORBITAL ENERGIES
----------------

  NO   OCC          E(Eh)            E(eV)
   0   2.0000     -18.996279      -516.9150
   1   2.0000     -18.928971      -515.0835
   2   2.0000     -10.156148      -276.3628
   3   2.0000     -10.088105      -274.5113
   4   2.0000     -10.039380      -273.1854
   5   2.0000     -10.035054      -273.0677
   6   2.0000     -10.021555      -272.7004
   7   2.0000      -1.072115       -29.1737
   8   2.0000      -0.976101       -26.5611
   9   2.0000      -0.766820       -20.8662
  10   2.0000      -0.721494       -19.6329
  11   2.0000      -0.660734       -17.9795
  12   2.0000      -0.588831       -16.0229
  13   2.0000      -0.515175       -14.0186
  14   2.0000      -0.469252       -12.7690
  15   2.0000      -0.455625       -12.3982
  16   2.0000      -0.443607       -12.0712
  17   2.0000      -0.413885       -11.2624
  18   2.0000      -0.410251       -11.1635
  19   2.0000      -0.384060       -10.4508
  20   2.0000      -0.371473       -10.1083
  21   2.0000      -0.357255        -9.7214
  22   2.0000      -0.346303        -9.4234
  23   2.0000      -0.323804        -8.8111
  24   2.0000      -0.314675        -8.5627
  25   2.0000      -0.302429        -8.2295
  26   2.0000      -0.269534        -7.3344
  27   2.0000      -0.236533        -6.4364
  28   0.0000      -0.014560        -0.3962
  29   0.0000       0.074007         2.0138
  30   0.0000       0.087040         2.3685
  31   0.0000       0.112567         3.0631
  32   0.0000       0.121298         3.3007

MULLIKEN ATOMIC CHARGES
-----------------------
   0 C :   -0.487665
   1 C :   -0.231953
   2 C :   -0.143467
   3 O :   -0.180807
   4 C :    0.419805
   5 O :   -0.431430
   6 C :   -0.520818
   7 H :    0.148354
   8 H :    0.156856
   9 H :    0.140760
  10 H :    0.140727
  11 H :    0.163065
  12 H :    0.168878
  13 H :    0.146067
  14 H :    0.166060
  15 H :    0.168024
  16 H :    0.177544
Sum of atomic charges:    0.0000000

LOEWDIN ATOMIC CHARGES
----------------------
   0 C :   -0.420086
   1 C :   -0.287058
   2 C :    0.032561
   3 O :   -0.599587
   4 C :    0.353662
   5 O :   -0.434370
   6 C :   -0.335520
   7 H :    0.151947
   8 H :    0.156685
   9 H :    0.150578
  10 H :    0.160070
  11 H :    0.167944
  12 H :    0.191797
  13 H :    0.180584
  14 H :    0.177516
  15 H :    0.178861
  16 H :    0.174416

  Mayer bond orders larger than 0.100000
B(  0-C ,  1-C ) :   0.9150 B(  0-C ,  7-H ) :   0.9703 B(  0-C ,  8-H ) :   0.9844
B(  0-C ,  9-H ) :   0.9771 B(  1-C ,  2-C ) :   0.9504 B(  1-C , 10-H ) :   0.9554
B(  1-C , 11-H ) :   0.9689 B(  2-C ,  3-O ) :   0.8285 B(  2-C , 12-H ) :   0.9598
B(  2-C , 13-H ) :   0.9625 B(  3-O ,  4-C ) :   1.0527 B(  4-C ,  5-O ) :   1.8452
B(  4-C ,  6-C ) :   0.9560 B(  6-C , 14-H ) :   0.9517 B(  6-C , 15-H ) :   0.9501
B(  6-C , 16-H ) :   0.9900

Dispersion correction           -0.004053655
FINAL SINGLE POINT ENERGY      -346.937047826402

DIPOLE MOMENT
-------------

Method             : SCF
Type of density    : Electron Density
Multiplicity       :   1
Irrep              :   0
Energy             :  -346.9434428471278693 Eh
Relativity type    :
Basis              : AO
                                X                 Y                 Z
Electronic contribution:      5.202572972      -1.846118315      -2.443294042
Nuclear contribution   :     -5.550338616       2.543892049       2.588063975
                        -----------------------------------------
Total Dipole Moment    :     -0.347765645       0.697773734       0.144769933
                        -----------------------------------------
Magnitude (a.u.)       :      0.792961198
Magnitude (Debye)      :      2.015547186

Rotational constants in cm-1:             0.168202             0.051221             0.046405
Rotational constants in MHz :          5042.556635          1535.553951          1391.198088

                             ****ORCA TERMINATED NORMALLY****
TOTAL RUN TIME: 0 days 0 hours 0 minutes 21 seconds 205 msec
