                         Program Version 6.0.0  -   RELEASE  -
|  1> ! r2scan-3c def2/J RI DEFGRID2 scfconv6 printgap
|  2> %output
|  3>     printlevel normal
|  4> end
|  5> %cpcm
|  6>     smd true
|  7>     smdsolvent "water"
|  8> end
|  9> * xyz 0 1
| 10> C -2.4994519751 0.5088429962 0.8795358058
| 11> C -1.8755728577 -0.4989729169 -0.0785108491
| 12> C -0.8528796225 0.153853967 -1.0050674512
| 13> O 0.2625091483 0.6784380979 -0.2711386587
| 14> C 1.274781843 -0.1358518518 0.0069448149
| 15> O 1.3153691862 -1.298647689 -0.3394550046
| 16> C 2.3498351632 0.5699236723 0.778146308
| 17> H -3.1887219607 0.0096953589 1.5547502629
| 18> H -1.728212403 0.9981432645 1.4693642681
| 19> H -3.043759776 1.2696257575 0.3259966342
| 20> H -2.6474712002 -0.9549624224 -0.6986406236
| 21> H -1.3785100336 -1.2943650511 0.4814872952
| 22> H -0.480680802 -0.5739874557 -1.7328161034
| 23> H -1.2806365778 1.0177958657 -1.5150641547
| 24> H 1.9278715626 0.9793099076 1.6917189831
| 25> H 2.7294957142 1.3958966939 0.1825935285
| 26> H 3.1495389846 -0.1257954593 1.0088976187
| 27> *
| 28>
| 29>                          ****END OF INPUT****

CARTESIAN COORDINATES (ANGSTROEM)
---------------------------------
  C     -2.499452    0.508843    0.879536
  C     -1.875573   -0.498973   -0.078511
  C     -0.852880    0.153854   -1.005067
  O      0.262509    0.678438   -0.271139
  C      1.274782   -0.135852    0.006945
  O      1.315369   -1.298648   -0.339455
  C      2.349835    0.569924    0.778146
  H     -3.188722    0.009695    1.554750
  H     -1.728212    0.998143    1.469364
  H     -3.043760    1.269626    0.325997
  H     -2.647471   -0.954962   -0.698641
  H     -1.378510   -1.294365    0.481487
  H     -0.480681   -0.573987   -1.732816
  H     -1.280637    1.017796   -1.515064
  H      1.927872    0.979310    1.691719
  H      2.729496    1.395897    0.182594
  H      3.149539   -0.125795    1.008898

 Total Charge           Charge          ....    0
 Multiplicity           Mult            ....    1
 Number of Electrons    NEL             ....   56
 Basis Dimension        Dim             ....  193

ORBITAL ENERGIES
----------------

  NO   OCC          E(Eh)            E(eV)
   0   2.0000     -19.001322      -517.0523
   1   2.0000     -18.943720      -515.4848
   2   2.0000     -10.165513      -276.6177
   3   2.0000     -10.080375      -274.3009
   4   2.0000     -10.030196      -272.9355
   5   2.0000     -10.025733      -272.8141
   6   2.0000     -10.010952      -272.4119
   7   2.0000      -1.078641       -29.3513
   8   2.0000      -0.988915       -26.9097
   9   2.0000      -0.760335       -20.6898
  10   2.0000      -0.714997       -19.4560
  11   2.0000      -0.653524       -17.7833
  12   2.0000      -0.582892       -15.8613
  13   2.0000      -0.511443       -13.9171
  14   2.0000      -0.468331       -12.7439
  15   2.0000      -0.461318       -12.5531
  16   2.0000      -0.447251       -12.1703
  17   2.0000      -0.409529       -11.1439
  18   2.0000      -0.404010       -10.9937
  19   2.0000      -0.379531       -10.3276
  20   2.0000      -0.362989        -9.8774
  21   2.0000      -0.351641        -9.5686
  22   2.0000      -0.344305        -9.3690
  23   2.0000      -0.323003        -8.7894
  24   2.0000      -0.305676        -8.3179
  25   2.0000      -0.298744        -8.1292
  26   2.0000      -0.273643        -7.4462
  27   2.0000      -0.252180        -6.8622
  28   0.0000      -0.021430        -0.5831
  29   0.0000       0.078579         2.1382
  30   0.0000       0.094956         2.5839
  31   0.0000       0.122733         3.3397
  32   0.0000       0.130124         3.5409

MULLIKEN ATOMIC CHARGES
-----------------------
   0 C :   -0.528058
   1 C :   -0.228647
   2 C :   -0.156773
   3 O :   -0.196236
   4 C :    0.465048
   5 O :   -0.518237
   6 C :   -0.559767
   7 H :    0.160128
   8 H :    0.161227
   9 H :    0.157954
  10 H :    0.161066
  11 H :    0.157768
  12 H :    0.172460
  13 H :    0.173184
  14 H :    0.195962
  15 H :    0.197269
  16 H :    0.185652
Sum of atomic charges:    0.0000000

LOEWDIN ATOMIC CHARGES
----------------------
   0 C :   -0.426427
   1 C :   -0.286390
   2 C :    0.036074
   3 O :   -0.601566
   4 C :    0.365063
   5 O :   -0.496199
   6 C :   -0.334391
   7 H :    0.155416
   8 H :    0.156613
   9 H :    0.155712
  10 H :    0.167544
  11 H :    0.165371
  12 H :    0.192765
  13 H :    0.191821
  14 H :    0.189760
  15 H :    0.190655
  16 H :    0.178179

  Mayer bond orders larger than 0.100000
B(  0-C ,  1-C ) :   0.9082 B(  0-C ,  7-H ) :   0.9671 B(  0-C ,  8-H ) :   0.9834
B(  0-C ,  9-H ) :   0.9743 B(  1-C ,  2-C ) :   0.9483 B(  1-C , 10-H ) :   0.9527
B(  1-C , 11-H ) :   0.9683 B(  2-C ,  3-O ) :   0.8082 B(  2-C , 12-H ) :   0.9564
B(  2-C , 13-H ) :   0.9542 B(  3-O ,  4-C ) :   1.0793 B(  4-C ,  5-O ) :   1.7749
B(  4-C ,  6-C ) :   0.9541 B(  6-C , 14-H ) :   0.9397 B(  6-C , 15-H ) :   0.9381
B(  6-C , 16-H ) :   0.9830

Dispersion correction           -0.004053655
FINAL SINGLE POINT ENERGY      -346.942354562573

DIPOLE MOMENT
-------------

Method             : SCF
Type of density    : Electron Density
Multiplicity       :   1
Irrep              :   0
Energy             :  -346.9487495832994455 Eh
Relativity type    :
Basis              : AO
                                X                 Y                 Z
Electronic contribution:      5.075038136      -1.523861431      -2.404166012
Nuclear contribution   :     -5.550338616       2.543892049       2.588063975
                        -----------------------------------------
Total Dipole Moment    :     -0.475300480       1.020030618       0.183897963
                        -----------------------------------------
Magnitude (a.u.)       :      1.140259387
Magnitude (Debye)      :      2.898309028

Rotational constants in cm-1:             0.168202             0.051221             0.046405
Rotational constants in MHz :          5042.556635          1535.553951          1391.198088

                             ****ORCA TERMINATED NORMALLY****
TOTAL RUN TIME: 0 days 0 hours 0 minutes 28 seconds 695 msec
