                         Program Version 6.0.0  -   RELEASE  -
|  1> ! pbe def2-sv(p) def2/J RI DEFGRID1 loosescf d4 GCP(DFT/SV(P)) printgap
|  2> %output
|  3>     printlevel normal
|  4> end
|  5> * xyz 0 1
|  6> C -1.3634810396 -0.3619040421 -0.4244857005
|  7> C -0.0121797662 -0.061978118 0.2460309278
|  8> C 1.1184382897 -0.842765162 -0.4375247527
|  9> O 2.3938237617 -0.5087579689 0.0521786222
| 10> O 0.2266658046 1.3303978842 0.2560029888
| 11> O -2.4229127078 0.269078844 0.2533841532
| 12> H -1.5716659214 -1.4323595497 -0.398415167
| 13> H -1.3345265404 -0.030249356 -1.4723920536
| 14> H -0.0789338572 -0.3411942839 1.3041890516
| 15> H 1.1439084484 -0.5973807993 -1.5028543194
| 16> H 0.9245856589 -1.917594593 -0.332773128
| 17> H 2.4364330665 -0.6906769061 1.0011302408
| 18> H 0.5649001463 1.6056534373 -0.6080641587
| 19> H -2.1558167422 1.1839447618 0.435326457
| 20> *
| 21>
| 22>                          ****END OF INPUT****

CARTESIAN COORDINATES (ANGSTROEM)
---------------------------------
  C     -1.363481   -0.361904   -0.424486
  C     -0.012180   -0.061978    0.246031
  C      1.118438   -0.842765   -0.437525
  O      2.393824   -0.508758    0.052179
  O      0.226666    1.330398    0.256003
  O     -2.422913    0.269079    0.253384
  H     -1.571666   -1.432360   -0.398415
  H     -1.334527   -0.030249   -1.472392
  H     -0.078934   -0.341194    1.304189
  H      1.143908   -0.597381   -1.502854
  H      0.924586   -1.917595   -0.332773
  H      2.436433   -0.690677    1.001130
  H      0.564900    1.605653   -0.608064
  H     -2.155817    1.183945    0.435326

 Total Charge           Charge          ....    0
 Multiplicity           Mult            ....    1
 Number of Electrons    NEL             ....   50
 Basis Dimension        Dim             ....  100

ORBITAL ENERGIES
----------------

  NO   OCC          E(Eh)            E(eV)
   0   2.0000     -18.760484      -510.4987
   1   2.0000     -18.752141      -510.2717
   2   2.0000     -18.739541      -509.9288
   3   2.0000      -9.943740      -270.5829
   4   2.0000      -9.941227      -270.5145
   5   2.0000      -9.931964      -270.2625
   6   2.0000      -0.946875       -25.7658
   7   2.0000      -0.924330       -25.1523
   8   2.0000      -0.909674       -24.7535
   9   2.0000      -0.687150       -18.6983
  10   2.0000      -0.603890       -16.4327
  11   2.0000      -0.564594       -15.3634
  12   2.0000      -0.482862       -13.1393
  13   2.0000      -0.463554       -12.6139
  14   2.0000      -0.426500       -11.6057
  15   2.0000      -0.422430       -11.4949
  16   2.0000      -0.399001       -10.8574
  17   2.0000      -0.383617       -10.4387
  18   2.0000      -0.347731        -9.4623
  19   2.0000      -0.308910        -8.4059
  20   2.0000      -0.284895        -7.7524
  21   2.0000      -0.281577        -7.6621
  22   2.0000      -0.241234        -6.5643
  23   2.0000      -0.225812        -6.1447
  24   2.0000      -0.204832        -5.5738
  25   0.0000       0.015867         0.4318
  26   0.0000       0.029996         0.8162
  27   0.0000       0.053053         1.4436
  28   0.0000       0.064252         1.7484
  29   0.0000       0.080927         2.2021

MULLIKEN ATOMIC CHARGES
-----------------------
   0 C :    0.057968
   1 C :   -0.052203
   2 C :    0.017120
   3 O :   -0.422958
   4 O :   -0.425086
   5 O :   -0.436097
   6 H :    0.082879
   7 H :    0.055324
   8 H :    0.070535
   9 H :    0.077369
  10 H :    0.080290
  11 H :    0.299445
  12 H :    0.299913
  13 H :    0.295501
Sum of atomic charges:   -0.0000000

LOEWDIN ATOMIC CHARGES
----------------------
   0 C :   -0.135664
   1 C :   -0.105319
   2 C :   -0.140326
   3 O :   -0.335019
   4 O :   -0.320064
   5 O :   -0.341969
   6 H :    0.113296
   7 H :    0.091285
   8 H :    0.111439
   9 H :    0.109873
  10 H :    0.102345
  11 H :    0.286174
  12 H :    0.286283
  13 H :    0.277667

  Mayer bond orders larger than 0.100000
B(  0-C ,  1-C ) :   1.0362 B(  0-C ,  5-O ) :   1.0797 B(  0-C ,  6-H ) :   0.9178
B(  0-C ,  7-H ) :   0.9021 B(  1-C ,  2-C ) :   1.0410 B(  1-C ,  4-O ) :   1.0321
B(  1-C ,  8-H ) :   0.8866 B(  2-C ,  3-O ) :   1.0891 B(  2-C ,  9-H ) :   0.9102
B(  2-C , 10-H ) :   0.9175 B(  3-O , 11-H ) :   0.8525 B(  4-O , 12-H ) :   0.8489
B(  5-O , 13-H ) :   0.8372

Dispersion correction           -0.009028566
FINAL SINGLE POINT ENERGY      -344.007723371909

DIPOLE MOMENT
-------------

Method             : SCF
Type of density    : Electron Density
Multiplicity       :   1
Irrep              :   0
Energy             :  -344.0811235871603344 Eh
Relativity type    :
Basis              : AO
                                X                 Y                 Z
Electronic contribution:      0.395796671       1.896319573       1.298161709
Nuclear contribution   :     -0.063784615      -2.066412379      -1.468207054
                        -----------------------------------------
Total Dipole Moment    :      0.332012056      -0.170092806      -0.170045345
                        -----------------------------------------
Magnitude (a.u.)       :      0.409974374
Magnitude (Debye)      :      1.042072043

Rotational constants in cm-1:             0.264722             0.065139             0.056248
Rotational constants in MHz :          7936.156722          1952.832498          1686.283308

                             ****ORCA TERMINATED NORMALLY****
TOTAL RUN TIME: 0 days 0 hours 0 minutes 6 seconds 543 msec
