                         Program Version 6.0.0  -   RELEASE  -
|  1> ! pbe def2-sv(p) def2/J RI DEFGRID1 loosescf d4 GCP(DFT/SV(P)) printgap
|  2> %output
|  3>     printlevel normal
|  4> end
|  5> * xyz 0 1
|  6> C -2.8976801779 -0.5953870084 -0.5861079244
|  7> C -2.1165913703 -0.1606063532 0.6492343756
|  8> C -1.3284989 1.1332437527 0.4422815687
|  9> C -0.2035233099 1.0194751616 -0.5676115425
| 10> Br 1.194591968 -0.2464974756 0.0220281816
| 11> H -3.5456159664 0.2073274581 -0.9310778154
| 12> H -2.232193521 -0.8779267265 -1.3982326701
| 13> H -3.5155504662 -1.4575220059 -0.349398971
| 14> H -1.4315220781 -0.9576454156 0.9474741035
| 15> H -2.8146546809 -0.0032307125 1.4732692498
| 16> H -2.0030327244 1.9143998838 0.08250902
| 17> H -0.9172553258 1.4587333663 1.4004730981
| 18> H 0.3119526491 1.9686374186 -0.7009053995
| 19> H -0.5458740738 0.6445360784 -1.5291491967
| 20> *
| 21>
| 22>                          ****END OF INPUT****

CARTESIAN COORDINATES (ANGSTROEM)
---------------------------------
  C     -2.897680   -0.595387   -0.586108
  C     -2.116591   -0.160606    0.649234
  C     -1.328499    1.133244    0.442282
  C     -0.203523    1.019475   -0.567612
  Br     1.194592   -0.246497    0.022028
  H     -3.545616    0.207327   -0.931078
  H     -2.232194   -0.877927   -1.398233
  H     -3.515550   -1.457522   -0.349399
  H     -1.431522   -0.957645    0.947474
  H     -2.814655   -0.003231    1.473269
  H     -2.003033    1.914400    0.082509
  H     -0.917255    1.458733    1.400473
  H      0.311953    1.968637   -0.700905
  H     -0.545874    0.644536   -1.529149

 Total Charge           Charge          ....    0
 Multiplicity           Mult            ....    1
 Number of Electrons    NEL             ....   68
 Basis Dimension        Dim             ....  106

ORBITAL ENERGIES
----------------

  NO   OCC          E(Eh)            E(eV)
   0   2.0000    -480.919569    -13086.4868
   1   2.0000     -61.761742     -1680.6224
   2   2.0000     -55.692370     -1515.4664
   3   2.0000     -55.689290     -1515.3826
   4   2.0000     -55.689183     -1515.3797
   5   2.0000      -9.939148      -270.4580
   6   2.0000      -9.898774      -269.3593
   7   2.0000      -9.887227      -269.0451
   8   2.0000      -9.877713      -268.7862
   9   2.0000      -8.386704      -228.2138
  10   2.0000      -6.268541      -170.5757
  11   2.0000      -6.254395      -170.1907
  12   2.0000      -6.254201      -170.1855
  13   2.0000      -2.469679       -67.2034
  14   2.0000      -2.466214       -67.1091
  15   2.0000      -2.466054       -67.1047
  16   2.0000      -2.455470       -66.8167
  17   2.0000      -2.455460       -66.8165
  18   2.0000      -0.749614       -20.3980
  19   2.0000      -0.697501       -18.9800
  20   2.0000      -0.638748       -17.3812
  21   2.0000      -0.573673       -15.6104
  22   2.0000      -0.508183       -13.8284
  23   2.0000      -0.431015       -11.7285
  24   2.0000      -0.423747       -11.5307
  25   2.0000      -0.378602       -10.3023
  26   2.0000      -0.364850        -9.9281
  27   2.0000      -0.359289        -9.7767
  28   2.0000      -0.326887        -8.8950
  29   2.0000      -0.297131        -8.0853
  30   2.0000      -0.295923        -8.0525
  31   2.0000      -0.294463        -8.0127
  32   2.0000      -0.233874        -6.3640
  33   2.0000      -0.231796        -6.3075
  34   0.0000      -0.025838        -0.7031
  35   0.0000       0.032054         0.8722
  36   0.0000       0.061563         1.6752
  37   0.0000       0.073158         1.9907
  38   0.0000       0.084064         2.2875

MULLIKEN ATOMIC CHARGES
-----------------------
   0 C :   -0.298580
   1 C :   -0.184961
   2 C :   -0.150605
   3 C :   -0.238556
   4 Br:   -0.131283
   5 H :    0.097588
   6 H :    0.111053
   7 H :    0.108303
   8 H :    0.107252
   9 H :    0.090783
  10 H :    0.096656
  11 H :    0.104025
  12 H :    0.142861
  13 H :    0.145463
Sum of atomic charges:    0.0000000

LOEWDIN ATOMIC CHARGES
----------------------
   0 C :   -0.343905
   1 C :   -0.241038
   2 C :   -0.244617
   3 C :   -0.272767
   4 Br:    0.001595
   5 H :    0.115972
   6 H :    0.117899
   7 H :    0.123381
   8 H :    0.117720
   9 H :    0.118777
  10 H :    0.125805
  11 H :    0.124011
  12 H :    0.130089
  13 H :    0.127079

  Mayer bond orders larger than 0.100000
B(  0-C ,  1-C ) :   1.1470 B(  0-C ,  5-H ) :   0.9552 B(  0-C ,  6-H ) :   0.9505
B(  0-C ,  7-H ) :   0.9513 B(  1-C ,  2-C ) :   1.1213 B(  1-C ,  8-H ) :   0.9179
B(  1-C ,  9-H ) :   0.9271 B(  2-C ,  3-C ) :   1.1041 B(  2-C , 10-H ) :   0.9045
B(  2-C , 11-H ) :   0.9205 B(  3-C ,  4-Br) :   1.0333 B(  3-C , 12-H ) :   0.9269
B(  3-C , 13-H ) :   0.9194

Dispersion correction           -0.010729135
FINAL SINGLE POINT ENERGY     -2730.887188388521

DIPOLE MOMENT
-------------

Method             : SCF
Type of density    : Electron Density
Multiplicity       :   1
Irrep              :   0
Energy             : -2730.9401779487111526 Eh
Relativity type    :
Basis              : AO
                                X                 Y                 Z
Electronic contribution:     26.159276969      -4.582874785       1.013405808
Nuclear contribution   :    -26.753513218       5.006926102      -1.147436201
                        -----------------------------------------
Total Dipole Moment    :     -0.594236249       0.424051317      -0.134030393
                        -----------------------------------------
Magnitude (a.u.)       :      0.742226640
Magnitude (Debye)      :      1.886590190

Rotational constants in cm-1:             0.219592             0.046443             0.043509
Rotational constants in MHz :          6583.194575          1392.324380          1304.378893

                             ****ORCA TERMINATED NORMALLY****
TOTAL RUN TIME: 0 days 0 hours 0 minutes 6 seconds 58 msec
