                         Program Version 6.0.0  -   RELEASE  -
|  1> ! pbe def2-sv(p) def2/J RI DEFGRID1 loosescf d4 GCP(DFT/SV(P)) printgap
|  2> %output
|  3>     printlevel normal
|  4> end
|  5> * xyz 0 1
|  6> C 3.0324665991 -0.8646771986 1.0986669153
|  7> C 2.5886085323 0.1828502485 0.122516905
|  8> C 3.4593678378 0.961451455 -0.5019312983
|  9> C 1.1081305177 0.3134336353 -0.1413816628
| 10> H 0.9527082496 1.2087960123 -0.7522655531
| 11> C 0.5641338508 -0.885498217 -0.9301626768
| 12> C -0.8572026337 -0.5895166002 -1.4011719877
| 13> C -1.7041194876 -0.0760298407 -0.2703387623
| 14> C -1.1706512592 0.3928912017 0.8703898318
| 15> C 0.2853787405 0.4656208522 1.1422233838
| 16> C -3.1464439949 -0.0914546396 -0.4381133959
| 17> O -3.9661953263 0.2985285982 0.3753807346
| 18> H 2.5170139669 -1.8055084 0.9220255404
| 19> H 4.1027402171 -1.0315510264 1.0144904266
| 20> H 2.8209134915 -0.5458196607 2.1184118763
| 21> H 3.1497122099 1.7236211014 -1.1971235611
| 22> H 4.520758803 0.8699608374 -0.3440612473
| 23> H 1.2057065653 -1.0891722749 -1.7883611126
| 24> H 0.5537153095 -1.7703727515 -0.2927782722
| 25> H -0.8371816339 0.1605688294 -2.197110178
| 26> H -1.3121663203 -1.4912373245 -1.8163943712
| 27> H -1.8427050546 0.7295940437 1.6492751276
| 28> H 0.519712009 1.41009988 1.6379259053
| 29> H 0.5312881215 -0.3331996109 1.8478481559
| 30> H -3.493025821 -0.4993464705 -1.4063982839
| 31> *
| 32>
| 33>                          ****END OF INPUT****

CARTESIAN COORDINATES (ANGSTROEM)
---------------------------------
  C      3.032467   -0.864677    1.098667
  C      2.588609    0.182850    0.122517
  C      3.459368    0.961451   -0.501931
  C      1.108131    0.313434   -0.141382
  H      0.952708    1.208796   -0.752266
  C      0.564134   -0.885498   -0.930163
  C     -0.857203   -0.589517   -1.401172
  C     -1.704119   -0.076030   -0.270339
  C     -1.170651    0.392891    0.870390
  C      0.285379    0.465621    1.142223
  C     -3.146444   -0.091455   -0.438113
  O     -3.966195    0.298529    0.375381
  H      2.517014   -1.805508    0.922026
  H      4.102740   -1.031551    1.014490
  H      2.820913   -0.545820    2.118412
  H      3.149712    1.723621   -1.197124
  H      4.520759    0.869961   -0.344061
  H      1.205707   -1.089172   -1.788361
  H      0.553715   -1.770373   -0.292778
  H     -0.837182    0.160569   -2.197110
  H     -1.312166   -1.491237   -1.816394
  H     -1.842705    0.729594    1.649275
  H      0.519712    1.410100    1.637926
  H      0.531288   -0.333200    1.847848
  H     -3.493026   -0.499346   -1.406398

 Total Charge           Charge          ....    0
 Multiplicity           Mult            ....    1
 Number of Electrons    NEL             ....   82
 Basis Dimension        Dim             ....  182

ORBITAL ENERGIES
----------------

  NO   OCC          E(Eh)            E(eV)
   0   2.0000     -18.741035      -509.9695
   1   2.0000      -9.962150      -271.0839
   2   2.0000      -9.911362      -269.7019
   3   2.0000      -9.906503      -269.5697
   4   2.0000      -9.905055      -269.5303
   5   2.0000      -9.904407      -269.5126
   6   2.0000      -9.901681      -269.4384
   7   2.0000      -9.901068      -269.4218
   8   2.0000      -9.896603      -269.3003
   9   2.0000      -9.888559      -269.0814
  10   2.0000      -9.877621      -268.7837
  11   2.0000      -0.930682       -25.3251
  12   2.0000      -0.783110       -21.3095
  13   2.0000      -0.733311       -19.9544
  14   2.0000      -0.686291       -18.6749
  15   2.0000      -0.676499       -18.4085
  16   2.0000      -0.622371       -16.9356
  17   2.0000      -0.583010       -15.8645
  18   2.0000      -0.571271       -15.5451
  19   2.0000      -0.524441       -14.2708
  20   2.0000      -0.483532       -13.1576
  21   2.0000      -0.467561       -12.7230
  22   2.0000      -0.445888       -12.1332
  23   2.0000      -0.422956       -11.5092
  24   2.0000      -0.407692       -11.0939
  25   2.0000      -0.396619       -10.7925
  26   2.0000      -0.392900       -10.6913
  27   2.0000      -0.383628       -10.4390
  28   2.0000      -0.376143       -10.2354
  29   2.0000      -0.361656        -9.8412
  30   2.0000      -0.354750        -9.6532
  31   2.0000      -0.349479        -9.5098
  32   2.0000      -0.339427        -9.2363
  33   2.0000      -0.333398        -9.0722
  34   2.0000      -0.326898        -8.8953
  35   2.0000      -0.301810        -8.2127
  36   2.0000      -0.290563        -7.9066
  37   2.0000      -0.281220        -7.6524
  38   2.0000      -0.231987        -6.3127
  39   2.0000      -0.222065        -6.0427
  40   2.0000      -0.199929        -5.4403
  41   0.0000      -0.091730        -2.4961
  42   0.0000      -0.018318        -0.4985
  43   0.0000       0.020376         0.5545
  44   0.0000       0.033675         0.9163
  45   0.0000       0.046236         1.2581

MULLIKEN ATOMIC CHARGES
-----------------------
   0 C :   -0.235277
   1 C :   -0.011600
   2 C :   -0.230901
   3 C :   -0.170677
   4 H :    0.064598
   5 C :   -0.138134
   6 C :   -0.061059
   7 C :   -0.079404
   8 C :   -0.151948
   9 C :   -0.053955
  10 C :    0.047951
  11 O :   -0.170853
  12 H :    0.111907
  13 H :    0.101971
  14 H :    0.121431
  15 H :    0.084577
  16 H :    0.080777
  17 H :    0.089375
  18 H :    0.091961
  19 H :    0.097708
  20 H :    0.093470
  21 H :    0.075256
  22 H :    0.105374
  23 H :    0.107983
  24 H :    0.029471
Sum of atomic charges:   -0.0000000

LOEWDIN ATOMIC CHARGES
----------------------
   0 C :   -0.325240
   1 C :   -0.049094
   2 C :   -0.264828
   3 C :   -0.127722
   4 H :    0.123198
   5 C :   -0.207379
   6 C :   -0.211825
   7 C :   -0.121105
   8 C :   -0.066306
   9 C :   -0.212596
  10 C :    0.000241
  11 O :   -0.135241
  12 H :    0.125453
  13 H :    0.128284
  14 H :    0.132136
  15 H :    0.116882
  16 H :    0.116786
  17 H :    0.122372
  18 H :    0.118571
  19 H :    0.130229
  20 H :    0.127419
  21 H :    0.131203
  22 H :    0.135196
  23 H :    0.137272
  24 H :    0.076093

  Mayer bond orders larger than 0.100000
B(  0-C ,  1-C ) :   1.1080 B(  0-C , 12-H ) :   0.9317 B(  0-C , 13-H ) :   0.9338
B(  0-C , 14-H ) :   0.9220 B(  1-C ,  2-C ) :   2.0372 B(  1-C ,  3-C ) :   1.0173
B(  2-C , 15-H ) :   0.9108 B(  2-C , 16-H ) :   0.9037 B(  3-C ,  4-H ) :   0.8885
B(  3-C ,  5-C ) :   1.0550 B(  3-C ,  9-C ) :   1.0703 B(  5-C ,  6-C ) :   1.1371
B(  5-C , 17-H ) :   0.9168 B(  5-C , 18-H ) :   0.9094 B(  6-C ,  7-C ) :   1.0464
B(  6-C , 19-H ) :   0.8850 B(  6-C , 20-H ) :   0.8970 B(  7-C ,  8-C ) :   1.8182
B(  7-C , 10-C ) :   1.0111 B(  8-C ,  9-C ) :   1.0557 B(  8-C , 11-O ) :   0.1089
B(  8-C , 21-H ) :   0.9214 B(  9-C , 22-H ) :   0.9000 B(  9-C , 23-H ) :   0.8620
B( 10-C , 11-O ) :   2.1362 B( 10-C , 24-H ) :   0.9164

Dispersion correction           -0.026245841
FINAL SINGLE POINT ENERGY      -463.624800653943

DIPOLE MOMENT
-------------

Method             : SCF
Type of density    : Electron Density
Multiplicity       :   1
Irrep              :   0
Energy             :  -463.7009669677760257 Eh
Relativity type    :
Basis              : AO
                                X                 Y                 Z
Electronic contribution:    -11.371290390       1.996471218       0.346387785
Nuclear contribution   :     12.502509086      -2.306813241      -0.561572178
                        -----------------------------------------
Total Dipole Moment    :      1.131218696      -0.310342023      -0.215184392
                        -----------------------------------------
Magnitude (a.u.)       :      1.192590555
Magnitude (Debye)      :      3.031324287

Rotational constants in cm-1:             0.097732             0.018215             0.017091
Rotational constants in MHz :          2929.919436           546.082795           512.377036

                             ****ORCA TERMINATED NORMALLY****
TOTAL RUN TIME: 0 days 0 hours 0 minutes 18 seconds 994 msec
