                         Program Version 6.0.0  -   RELEASE  -
|  1> ! r2scan-3c def2/J RI DEFGRID2 scfconv6 printgap
|  2> %output
|  3>     printlevel normal
|  4> end
|  5> * xyz 0 1
|  6> C -2.5160645718 0.331428676 0.8820401058
|  7> C -1.7432467456 0.6254867755 -0.4070572438
|  8> C -0.4977997994 -0.2221819733 -0.4464199677
|  9> O -0.3918777032 -1.2686163542 -1.0538359908
| 10> O 0.4661428963 0.3037152465 0.2932846339
| 11> C 1.7271595077 -0.3783957353 0.4015275155
| 12> C 2.8497813942 0.6370627367 0.2787449255
| 13> H -3.4224231853 0.928506875 0.9096978179
| 14> H -2.7881642629 -0.7204810541 0.9276477625
| 15> H -1.9070102798 0.5740998806 1.7488063534
| 16> H -1.4543956029 1.675320261 -0.4315253928
| 17> H -2.3533869563 0.3817883189 -1.2758550858
| 18> H 1.7453844702 -0.8678385859 1.3794639985
| 19> H 1.7785368273 -1.1401711106 -0.3826336909
| 20> H 3.8027875733 0.1350311004 0.4092363214
| 21> H 2.8270034208 1.1092292415 -0.69958595
| 22> H 2.7398453145 1.4031395619 1.0406474272
| 23> *
| 24>
| 25>                          ****END OF INPUT****

CARTESIAN COORDINATES (ANGSTROEM)
---------------------------------
  C     -2.516065    0.331429    0.882040
  C     -1.743247    0.625487   -0.407057
  C     -0.497800   -0.222182   -0.446420
  O     -0.391878   -1.268616   -1.053836
  O      0.466143    0.303715    0.293285
  C      1.727160   -0.378396    0.401528
  C      2.849781    0.637063    0.278745
  H     -3.422423    0.928507    0.909698
  H     -2.788164   -0.720481    0.927648
  H     -1.907010    0.574100    1.748806
  H     -1.454396    1.675320   -0.431525
  H     -2.353387    0.381788   -1.275855
  H      1.745384   -0.867839    1.379464
  H      1.778537   -1.140171   -0.382634
  H      3.802788    0.135031    0.409236
  H      2.827003    1.109229   -0.699586
  H      2.739845    1.403140    1.040647

 Total Charge           Charge          ....    0
 Multiplicity           Mult            ....    1
 Number of Electrons    NEL             ....   56
 Basis Dimension        Dim             ....  193

ORBITAL ENERGIES
----------------

  NO   OCC          E(Eh)            E(eV)
   0   2.0000     -18.996384      -516.9179
   1   2.0000     -18.925672      -514.9937
   2   2.0000     -10.150787      -276.2170
   3   2.0000     -10.090357      -274.5726
   4   2.0000     -10.042892      -273.2810
   5   2.0000     -10.031995      -272.9845
   6   2.0000     -10.031587      -272.9734
   7   2.0000      -1.070975       -29.1427
   8   2.0000      -0.973669       -26.4949
   9   2.0000      -0.766995       -20.8710
  10   2.0000      -0.732508       -19.9326
  11   2.0000      -0.639927       -17.4133
  12   2.0000      -0.595577       -16.2065
  13   2.0000      -0.531653       -14.4670
  14   2.0000      -0.473791       -12.8925
  15   2.0000      -0.451101       -12.2751
  16   2.0000      -0.435839       -11.8598
  17   2.0000      -0.413715       -11.2578
  18   2.0000      -0.409006       -11.1296
  19   2.0000      -0.376526       -10.2458
  20   2.0000      -0.367925       -10.0117
  21   2.0000      -0.361316        -9.8319
  22   2.0000      -0.337005        -9.1704
  23   2.0000      -0.328560        -8.9406
  24   2.0000      -0.324539        -8.8312
  25   2.0000      -0.307483        -8.3670
  26   2.0000      -0.269378        -7.3302
  27   2.0000      -0.232270        -6.3204
  28   0.0000      -0.012941        -0.3521
  29   0.0000       0.074743         2.0339
  30   0.0000       0.094492         2.5712
  31   0.0000       0.118478         3.2240
  32   0.0000       0.125296         3.4095

MULLIKEN ATOMIC CHARGES
-----------------------
   0 C :   -0.472828
   1 C :   -0.293741
   2 C :    0.418463
   3 O :   -0.434567
   4 O :   -0.177195
   5 C :   -0.158417
   6 C :   -0.444226
   7 H :    0.153341
   8 H :    0.158356
   9 H :    0.157181
  10 H :    0.151736
  11 H :    0.162429
  12 H :    0.142256
  13 H :    0.185713
  14 H :    0.146518
  15 H :    0.152273
  16 H :    0.152708
Sum of atomic charges:    0.0000000

LOEWDIN ATOMIC CHARGES
----------------------
   0 C :   -0.392723
   1 C :   -0.236251
   2 C :    0.357752
   3 O :   -0.437599
   4 O :   -0.598354
   5 C :    0.031628
   6 C :   -0.387107
   7 H :    0.153039
   8 H :    0.159035
   9 H :    0.158072
  10 H :    0.173808
  11 H :    0.174356
  12 H :    0.174153
  13 H :    0.194571
  14 H :    0.159153
  15 H :    0.158325
  16 H :    0.158142

  Mayer bond orders larger than 0.100000
B(  0-C ,  1-C ) :   0.8972 B(  0-C ,  7-H ) :   0.9707 B(  0-C ,  8-H ) :   0.9739
B(  0-C ,  9-H ) :   0.9777 B(  1-C ,  2-C ) :   0.9600 B(  1-C , 10-H ) :   0.9678
B(  1-C , 11-H ) :   0.9763 B(  2-C ,  3-O ) :   1.8461 B(  2-C ,  4-O ) :   1.0538
B(  4-O ,  5-C ) :   0.7788 B(  5-C ,  6-C ) :   0.9505 B(  5-C , 12-H ) :   0.9481
B(  5-C , 13-H ) :   0.9672 B(  6-C , 14-H ) :   0.9671 B(  6-C , 15-H ) :   0.9735
B(  6-C , 16-H ) :   0.9706

Dispersion correction           -0.003909224
FINAL SINGLE POINT ENERGY      -346.934663510583

DIPOLE MOMENT
-------------

Method             : SCF
Type of density    : Electron Density
Multiplicity       :   1
Irrep              :   0
Energy             :  -346.9411893124503194 Eh
Relativity type    :
Basis              : AO
                                X                 Y                 Z
Electronic contribution:     -0.652158270      -2.594461803      -2.848232664
Nuclear contribution   :      0.909413273       3.249225626       3.390423991
                        -----------------------------------------
Total Dipole Moment    :      0.257255003       0.654763824       0.542191327
                        -----------------------------------------
Magnitude (a.u.)       :      0.888181984
Magnitude (Debye)      :      2.257579191

Rotational constants in cm-1:             0.175143             0.048719             0.042615
Rotational constants in MHz :          5250.653684          1460.568919          1277.578339

                             ****ORCA TERMINATED NORMALLY****
TOTAL RUN TIME: 0 days 0 hours 0 minutes 20 seconds 187 msec
