                         Program Version 6.0.0  -   RELEASE  -
|  1> ! r2scan-3c def2/J RI DEFGRID2 scfconv6 printgap
|  2> %output
|  3>     printlevel normal
|  4> end
|  5> %cpcm
|  6>     smd true
|  7>     smdsolvent "water"
|  8> end
|  9> * xyz 0 1
| 10> C -2.5160645718 0.331428676 0.8820401058
| 11> C -1.7432467456 0.6254867755 -0.4070572438
| 12> C -0.4977997994 -0.2221819733 -0.4464199677
| 13> O -0.3918777032 -1.2686163542 -1.0538359908
| 14> O 0.4661428963 0.3037152465 0.2932846339
| 15> C 1.7271595077 -0.3783957353 0.4015275155
| 16> C 2.8497813942 0.6370627367 0.2787449255
| 17> H -3.4224231853 0.928506875 0.9096978179
| 18> H -2.7881642629 -0.7204810541 0.9276477625
| 19> H -1.9070102798 0.5740998806 1.7488063534
| 20> H -1.4543956029 1.675320261 -0.4315253928
| 21> H -2.3533869563 0.3817883189 -1.2758550858
| 22> H 1.7453844702 -0.8678385859 1.3794639985
| 23> H 1.7785368273 -1.1401711106 -0.3826336909
| 24> H 3.8027875733 0.1350311004 0.4092363214
| 25> H 2.8270034208 1.1092292415 -0.69958595
| 26> H 2.7398453145 1.4031395619 1.0406474272
| 27> *
| 28>
| 29>                          ****END OF INPUT****

CARTESIAN COORDINATES (ANGSTROEM)
---------------------------------
  C     -2.516065    0.331429    0.882040
  C     -1.743247    0.625487   -0.407057
  C     -0.497800   -0.222182   -0.446420
  O     -0.391878   -1.268616   -1.053836
  O      0.466143    0.303715    0.293285
  C      1.727160   -0.378396    0.401528
  C      2.849781    0.637063    0.278745
  H     -3.422423    0.928507    0.909698
  H     -2.788164   -0.720481    0.927648
  H     -1.907010    0.574100    1.748806
  H     -1.454396    1.675320   -0.431525
  H     -2.353387    0.381788   -1.275855
  H      1.745384   -0.867839    1.379464
  H      1.778537   -1.140171   -0.382634
  H      3.802788    0.135031    0.409236
  H      2.827003    1.109229   -0.699586
  H      2.739845    1.403140    1.040647

 Total Charge           Charge          ....    0
 Multiplicity           Mult            ....    1
 Number of Electrons    NEL             ....   56
 Basis Dimension        Dim             ....  193

ORBITAL ENERGIES
----------------

  NO   OCC          E(Eh)            E(eV)
   0   2.0000     -19.002149      -517.0748
   1   2.0000     -18.942400      -515.4489
   2   2.0000     -10.162026      -276.5228
   3   2.0000     -10.082556      -274.3603
   4   2.0000     -10.037311      -273.1291
   5   2.0000     -10.022162      -272.7169
   6   2.0000     -10.018489      -272.6170
   7   2.0000      -1.078502       -29.3475
   8   2.0000      -0.988220       -26.8908
   9   2.0000      -0.762589       -20.7511
  10   2.0000      -0.724019       -19.7016
  11   2.0000      -0.633645       -17.2424
  12   2.0000      -0.588640       -16.0177
  13   2.0000      -0.529832       -14.4175
  14   2.0000      -0.473032       -12.8719
  15   2.0000      -0.458969       -12.4892
  16   2.0000      -0.436527       -11.8785
  17   2.0000      -0.414392       -11.2762
  18   2.0000      -0.404962       -11.0196
  19   2.0000      -0.367858       -10.0099
  20   2.0000      -0.364257        -9.9119
  21   2.0000      -0.351586        -9.5671
  22   2.0000      -0.330882        -9.0037
  23   2.0000      -0.325936        -8.8692
  24   2.0000      -0.318532        -8.6677
  25   2.0000      -0.307363        -8.3638
  26   2.0000      -0.275832        -7.5058
  27   2.0000      -0.248721        -6.7680
  28   0.0000      -0.021630        -0.5886
  29   0.0000       0.077919         2.1203
  30   0.0000       0.103528         2.8171
  31   0.0000       0.127943         3.4815
  32   0.0000       0.133667         3.6373

MULLIKEN ATOMIC CHARGES
-----------------------
   0 C :   -0.493569
   1 C :   -0.308973
   2 C :    0.453695
   3 O :   -0.521170
   4 O :   -0.193615
   5 C :   -0.146979
   6 C :   -0.487039
   7 H :    0.172706
   8 H :    0.164527
   9 H :    0.166393
  10 H :    0.175008
  11 H :    0.172989
  12 H :    0.169162
  13 H :    0.179401
  14 H :    0.168009
  15 H :    0.164294
  16 H :    0.165159
Sum of atomic charges:    0.0000000

LOEWDIN ATOMIC CHARGES
----------------------
   0 C :   -0.393996
   1 C :   -0.233607
   2 C :    0.366847
   3 O :   -0.500130
   4 O :   -0.598662
   5 C :    0.036770
   6 C :   -0.390420
   7 H :    0.160466
   8 H :    0.160565
   9 H :    0.161011
  10 H :    0.183606
  11 H :    0.178792
  12 H :    0.184818
  13 H :    0.193332
  14 H :    0.167670
  15 H :    0.161119
  16 H :    0.161821

  Mayer bond orders larger than 0.100000
B(  0-C ,  1-C ) :   0.8887 B(  0-C ,  7-H ) :   0.9656 B(  0-C ,  8-H ) :   0.9708
B(  0-C ,  9-H ) :   0.9739 B(  1-C ,  2-C ) :   0.9596 B(  1-C , 10-H ) :   0.9588
B(  1-C , 11-H ) :   0.9718 B(  2-C ,  3-O ) :   1.7736 B(  2-C ,  4-O ) :   1.0830
B(  4-O ,  5-C ) :   0.7677 B(  5-C ,  6-C ) :   0.9457 B(  5-C , 12-H ) :   0.9397
B(  5-C , 13-H ) :   0.9628 B(  6-C , 14-H ) :   0.9610 B(  6-C , 15-H ) :   0.9711
B(  6-C , 16-H ) :   0.9679

Dispersion correction           -0.003909224
FINAL SINGLE POINT ENERGY      -346.939803251479

DIPOLE MOMENT
-------------

Method             : SCF
Type of density    : Electron Density
Multiplicity       :   1
Irrep              :   0
Energy             :  -346.9463290533462327 Eh
Relativity type    :
Basis              : AO
                                X                 Y                 Z
Electronic contribution:     -0.578699565      -2.331067090      -2.633404243
Nuclear contribution   :      0.909413273       3.249225626       3.390423991
                        -----------------------------------------
Total Dipole Moment    :      0.330713708       0.918158537       0.757019747
                        -----------------------------------------
Magnitude (a.u.)       :      1.235097386
Magnitude (Debye)      :      3.139368065

Rotational constants in cm-1:             0.175143             0.048719             0.042615
Rotational constants in MHz :          5250.653684          1460.568919          1277.578339

                             ****ORCA TERMINATED NORMALLY****
TOTAL RUN TIME: 0 days 0 hours 0 minutes 23 seconds 322 msec
