                         Program Version 6.0.0  -   RELEASE  -
|  1> ! pbe def2-sv(p) def2/J RI DEFGRID1 loosescf d4 GCP(DFT/SV(P)) printgap
|  2> %output
|  3>     printlevel normal
|  4> end
|  5> * xyz 0 1
|  6> C 1.7613306959 1.1322365576 0.3054207008
|  7> C 1.1225765293 0.1105372906 -0.6356243685
|  8> C 2.32659e-05 -0.6699481969 6.5701e-06
|  9> O -0.0005580351 -1.88775037 -0.0007185948
| 10> C -1.1218618405 0.1109169636 0.6363359916
| 11> C -1.7614501509 1.1315758446 -0.3053140519
| 12> H 2.1118647806 0.6441418873 1.2116944207
| 13> H 2.6139630001 1.5923432312 -0.1864843317
| 14> H 1.0597454805 1.9144361678 0.5778166085
| 15> H 0.7184174771 0.6214482091 -1.5116670084
| 16> H 1.8733313952 -0.605263443 -0.9763060203
| 17> H -0.7170373417 0.622802767 1.5114811259
| 18> H -1.8723118726 -0.6046239563 0.9782236846
| 19> H -2.6135080183 1.5924126987 0.1868702868
| 20> H -2.1129572312 0.6423869105 -1.2106198528
| 21> H -1.0600198927 1.913314059 -0.5794313127
| 22> *
| 23>
| 24>                          ****END OF INPUT****

CARTESIAN COORDINATES (ANGSTROEM)
---------------------------------
  C      1.761331    1.132237    0.305421
  C      1.122577    0.110537   -0.635624
  C      0.000023   -0.669948    0.000007
  O     -0.000558   -1.887750   -0.000719
  C     -1.121862    0.110917    0.636336
  C     -1.761450    1.131576   -0.305314
  H      2.111865    0.644142    1.211694
  H      2.613963    1.592343   -0.186484
  H      1.059745    1.914436    0.577817
  H      0.718417    0.621448   -1.511667
  H      1.873331   -0.605263   -0.976306
  H     -0.717037    0.622803    1.511481
  H     -1.872312   -0.604624    0.978224
  H     -2.613508    1.592413    0.186870
  H     -2.112957    0.642387   -1.210620
  H     -1.060020    1.913314   -0.579431

 Total Charge           Charge          ....    0
 Multiplicity           Mult            ....    1
 Number of Electrons    NEL             ....   48
 Basis Dimension        Dim             ....  104

ORBITAL ENERGIES
----------------

  NO   OCC          E(Eh)            E(eV)
   0   2.0000     -18.731625      -509.7134
   1   2.0000      -9.967200      -271.2213
   2   2.0000      -9.893234      -269.2086
   3   2.0000      -9.893219      -269.2082
   4   2.0000      -9.891429      -269.1595
   5   2.0000      -9.891418      -269.1592
   6   2.0000      -0.928624       -25.2692
   7   2.0000      -0.724802       -19.7229
   8   2.0000      -0.688385       -18.7319
   9   2.0000      -0.591421       -16.0934
  10   2.0000      -0.572935       -15.5903
  11   2.0000      -0.466871       -12.7042
  12   2.0000      -0.433282       -11.7902
  13   2.0000      -0.422094       -11.4858
  14   2.0000      -0.385756       -10.4969
  15   2.0000      -0.377536       -10.2733
  16   2.0000      -0.374181       -10.1820
  17   2.0000      -0.341571        -9.2946
  18   2.0000      -0.338537        -9.2121
  19   2.0000      -0.333434        -9.0732
  20   2.0000      -0.310857        -8.4589
  21   2.0000      -0.306002        -8.3267
  22   2.0000      -0.298302        -8.1172
  23   2.0000      -0.187914        -5.1134
  24   0.0000      -0.047187        -1.2840
  25   0.0000       0.024773         0.6741
  26   0.0000       0.065477         1.7817
  27   0.0000       0.076628         2.0852
  28   0.0000       0.077688         2.1140

MULLIKEN ATOMIC CHARGES
-----------------------
   0 C :   -0.310054
   1 C :   -0.160489
   2 C :   -0.011070
   3 O :   -0.165869
   4 C :   -0.160373
   5 C :   -0.310125
   6 H :    0.117956
   7 H :    0.116588
   8 H :    0.114789
   9 H :    0.114327
  10 H :    0.095356
  11 H :    0.114267
  12 H :    0.095325
  13 H :    0.116612
  14 H :    0.117966
  15 H :    0.114795
Sum of atomic charges:   -0.0000000

LOEWDIN ATOMIC CHARGES
----------------------
   0 C :   -0.336983
   1 C :   -0.256672
   2 C :    0.045130
   3 O :   -0.131474
   4 C :   -0.256653
   5 C :   -0.336944
   6 H :    0.124639
   7 H :    0.127269
   8 H :    0.118793
   9 H :    0.136021
  10 H :    0.130104
  11 H :    0.135968
  12 H :    0.130088
  13 H :    0.127270
  14 H :    0.124652
  15 H :    0.118790

  Mayer bond orders larger than 0.100000
B(  0-C ,  1-C ) :   1.1316 B(  0-C ,  6-H ) :   0.9546 B(  0-C ,  7-H ) :   0.9489
B(  0-C ,  8-H ) :   0.9413 B(  1-C ,  2-C ) :   1.0163 B(  1-C ,  9-H ) :   0.8949
B(  1-C , 10-H ) :   0.9035 B(  2-C ,  3-O ) :   2.1992 B(  2-C ,  4-C ) :   1.0164
B(  4-C ,  5-C ) :   1.1316 B(  4-C , 11-H ) :   0.8949 B(  4-C , 12-H ) :   0.9035
B(  5-C , 13-H ) :   0.9489 B(  5-C , 14-H ) :   0.9546 B(  5-C , 15-H ) :   0.9414

Dispersion correction           -0.011662816
FINAL SINGLE POINT ENERGY      -271.140408192660

DIPOLE MOMENT
-------------

Method             : SCF
Type of density    : Electron Density
Multiplicity       :   1
Irrep              :   0
Energy             :  -271.1945599800793616 Eh
Relativity type    :
Basis              : AO
                                X                 Y                 Z
Electronic contribution:     -0.001023510      -6.681127919      -0.001152427
Nuclear contribution   :      0.001387492       7.790089912       0.001469375
                        -----------------------------------------
Total Dipole Moment    :      0.000363982       1.108961993       0.000316947
                        -----------------------------------------
Magnitude (a.u.)       :      1.108962098
Magnitude (Debye)      :      2.818757643

Rotational constants in cm-1:             0.129350             0.105285             0.068405
Rotational constants in MHz :          3877.811986          3156.372586          2050.730564

                             ****ORCA TERMINATED NORMALLY****
TOTAL RUN TIME: 0 days 0 hours 0 minutes 5 seconds 773 msec
