                         Program Version 6.0.0  -   RELEASE  -
|  1> ! pbe def2-sv(p) def2/J RI DEFGRID1 loosescf d4 GCP(DFT/SV(P)) printgap
|  2> %output
|  3>     printlevel normal
|  4> end
|  5> * xyz 0 1
|  6> C 1.9404376186 -1.0464113647 0.2578554809
|  7> C 1.2498705564 0.1578328763 0.8930001438
|  8> C 0.1793400168 0.8411965732 0.0210001644
|  9> H -0.042991721 1.8110545785 0.5038232636
| 10> C -1.1820361306 0.1301144301 -0.1247702639
| 11> C -1.1060776621 -1.2227557682 -0.8276885733
| 12> C -1.8991187987 0.0031053625 1.2164268298
| 13> O 0.6585253825 1.0915408171 -1.2910136083
| 14> H 1.3338510266 -1.9425436076 0.3319393929
| 15> H 2.8859050894 -1.2365035438 0.7605350141
| 16> H 2.139439243 -0.855649851 -0.7938026707
| 17> H 0.7989099419 -0.1215319496 1.844358023
| 18> H 2.0105826633 0.9143698327 1.1069290022
| 19> H -1.7674917857 0.7986536306 -0.7680652495
| 20> H -0.455054105 -1.1561012862 -1.6945490132
| 21> H -0.7344256441 -1.9915802891 -0.1570884675
| 22> H -2.0984639014 -1.5168733304 -1.1616703874
| 23> H -1.3883428069 -0.7056406554 1.8633348643
| 24> H -2.9127473842 -0.3549720023 1.056360951
| 25> H -1.9485759396 0.9642448331 1.7230063642
| 26> H 1.4690126445 1.6144474262 -1.2320734023
| 27> *
| 28>
| 29>                          ****END OF INPUT****

CARTESIAN COORDINATES (ANGSTROEM)
---------------------------------
  C      1.940438   -1.046411    0.257855
  C      1.249871    0.157833    0.893000
  C      0.179340    0.841197    0.021000
  H     -0.042992    1.811055    0.503823
  C     -1.182036    0.130114   -0.124770
  C     -1.106078   -1.222756   -0.827689
  C     -1.899119    0.003105    1.216427
  O      0.658525    1.091541   -1.291014
  H      1.333851   -1.942544    0.331939
  H      2.885905   -1.236504    0.760535
  H      2.139439   -0.855650   -0.793803
  H      0.798910   -0.121532    1.844358
  H      2.010583    0.914370    1.106929
  H     -1.767492    0.798654   -0.768065
  H     -0.455054   -1.156101   -1.694549
  H     -0.734426   -1.991580   -0.157088
  H     -2.098464   -1.516873   -1.161670
  H     -1.388343   -0.705641    1.863335
  H     -2.912747   -0.354972    1.056361
  H     -1.948576    0.964245    1.723006
  H      1.469013    1.614447   -1.232073

 Total Charge           Charge          ....    0
 Multiplicity           Mult            ....    1
 Number of Electrons    NEL             ....   58
 Basis Dimension        Dim             ....  126

ORBITAL ENERGIES
----------------

  NO   OCC          E(Eh)            E(eV)
   0   2.0000     -18.740857      -509.9647
   1   2.0000      -9.932545      -270.2783
   2   2.0000      -9.888726      -269.0859
   3   2.0000      -9.883968      -268.9564
   4   2.0000      -9.872391      -268.6414
   5   2.0000      -9.869057      -268.5507
   6   2.0000      -9.863223      -268.3920
   7   2.0000      -0.918077       -24.9821
   8   2.0000      -0.722951       -19.6725
   9   2.0000      -0.680288       -18.5116
  10   2.0000      -0.608724       -16.5642
  11   2.0000      -0.600546       -16.3417
  12   2.0000      -0.542192       -14.7538
  13   2.0000      -0.480136       -13.0652
  14   2.0000      -0.443873       -12.0784
  15   2.0000      -0.428905       -11.6711
  16   2.0000      -0.406529       -11.0622
  17   2.0000      -0.382025       -10.3954
  18   2.0000      -0.371722       -10.1151
  19   2.0000      -0.345875        -9.4117
  20   2.0000      -0.335285        -9.1236
  21   2.0000      -0.323041        -8.7904
  22   2.0000      -0.318941        -8.6788
  23   2.0000      -0.315704        -8.5908
  24   2.0000      -0.289415        -7.8754
  25   2.0000      -0.286429        -7.7941
  26   2.0000      -0.278251        -7.5716
  27   2.0000      -0.254114        -6.9148
  28   2.0000      -0.212564        -5.7842
  29   0.0000       0.019266         0.5243
  30   0.0000       0.048026         1.3069
  31   0.0000       0.060758         1.6533
  32   0.0000       0.076771         2.0890
  33   0.0000       0.083263         2.2657

MULLIKEN ATOMIC CHARGES
-----------------------
   0 C :   -0.264312
   1 C :   -0.203424
   2 C :    0.055185
   3 H :    0.050618
   4 C :   -0.154558
   5 C :   -0.248630
   6 C :   -0.256885
   7 O :   -0.414828
   8 H :    0.105282
   9 H :    0.097775
  10 H :    0.095711
  11 H :    0.087517
  12 H :    0.072934
  13 H :    0.075329
  14 H :    0.116308
  15 H :    0.096605
  16 H :    0.093851
  17 H :    0.102262
  18 H :    0.101093
  19 H :    0.096626
  20 H :    0.295542
Sum of atomic charges:    0.0000000

LOEWDIN ATOMIC CHARGES
----------------------
   0 C :   -0.347750
   1 C :   -0.250021
   2 C :   -0.046516
   3 H :    0.094391
   4 C :   -0.158484
   5 C :   -0.332816
   6 C :   -0.329899
   7 O :   -0.325922
   8 H :    0.117910
   9 H :    0.117820
  10 H :    0.117040
  11 H :    0.121102
  12 H :    0.111680
  13 H :    0.120782
  14 H :    0.124670
  15 H :    0.112487
  16 H :    0.117770
  17 H :    0.115043
  18 H :    0.121444
  19 H :    0.115881
  20 H :    0.283389

  Mayer bond orders larger than 0.100000
B(  0-C ,  1-C ) :   1.1599 B(  0-C ,  8-H ) :   0.9470 B(  0-C ,  9-H ) :   0.9488
B(  0-C , 10-H ) :   0.9391 B(  1-C ,  2-C ) :   1.0592 B(  1-C , 11-H ) :   0.9105
B(  1-C , 12-H ) :   0.9189 B(  2-C ,  3-H ) :   0.8992 B(  2-C ,  4-C ) :   1.0455
B(  2-C ,  7-O ) :   1.0552 B(  4-C ,  5-C ) :   1.1291 B(  4-C ,  6-C ) :   1.1054
B(  4-C , 13-H ) :   0.8895 B(  5-C , 14-H ) :   0.9400 B(  5-C , 15-H ) :   0.9393
B(  5-C , 16-H ) :   0.9464 B(  6-C , 17-H ) :   0.9406 B(  6-C , 18-H ) :   0.9492
B(  6-C , 19-H ) :   0.9484 B(  7-O , 20-H ) :   0.8485

Dispersion correction           -0.017309421
FINAL SINGLE POINT ENERGY      -311.514928761320

DIPOLE MOMENT
-------------

Method             : SCF
Type of density    : Electron Density
Multiplicity       :   1
Irrep              :   0
Energy             :  -311.5943565632408649 Eh
Relativity type    :
Basis              : AO
                                X                 Y                 Z
Electronic contribution:      0.937987162       3.775194572      -2.774458585
Nuclear contribution   :     -0.656691489      -3.528770062       3.154682993
                        -----------------------------------------
Total Dipole Moment    :      0.281295673       0.246424510       0.380224409
                        -----------------------------------------
Magnitude (a.u.)       :      0.533313131
Magnitude (Debye)      :      1.355574250

Rotational constants in cm-1:             0.102797             0.063653             0.059575
Rotational constants in MHz :          3081.766774          1908.255645          1786.020599

                             ****ORCA TERMINATED NORMALLY****
TOTAL RUN TIME: 0 days 0 hours 0 minutes 9 seconds 853 msec
