                         Program Version 6.0.0  -   RELEASE  -
|  1> ! pbe def2-sv(p) def2/J RI DEFGRID1 loosescf d4 GCP(DFT/SV(P)) printgap
|  2> %output
|  3>     printlevel normal
|  4> end
|  5> * xyz 0 1
|  6> C 0.5140999722 1.8272145031 -0.3684148941
|  7> C 1.8599590652 2.0811025925 -0.4877468915
|  8> C 2.8141964126 1.0933204255 -0.2206005566
|  9> C 2.3690342275 -0.1799983103 0.1800529087
| 10> C 0.9938239866 -0.4162136572 0.2991965036
| 11> C 0.0656478826 0.5668476318 0.0317117294
| 12> C -1.3843099406 0.2869753799 0.152747792
| 13> C -2.0606680278 0.4535460376 1.3562344565
| 14> C -3.4152700024 0.1895049013 1.4597160235
| 15> C -4.0920223458 -0.247636884 0.337233627
| 16> C -3.4669171629 -0.4295852311 -0.8817287785
| 17> C -2.1144651369 -0.1542285243 -0.9436749125
| 18> F -1.4807406535 -0.3270809794 -2.1326654455
| 19> F -5.4214599799 -0.510836832 0.4269263696
| 20> C 3.2510021117 -1.3157548578 0.4846684749
| 21> O 2.8506189406 -2.4118760564 0.8317654231
| 22> O 4.5596895955 -1.0736380254 0.3556808459
| 23> O 4.0974651873 1.4452921373 -0.3690720192
| 24> H -0.2029348749 2.603608706 -0.5847358937
| 25> H 2.2198173562 3.0496150763 -0.79513819
| 26> H 0.6814145023 -1.4032859947 0.6064827985
| 27> H -1.5115614129 0.7948054678 2.2184913631
| 28> H -3.943545143 0.3171245415 2.3896298727
| 29> H -4.0072997467 -0.7724029577 -1.7478731642
| 30> H 5.0976339507 -1.8610828288 0.5669542174
| 31> H 4.6978136746 0.7034967572 -0.1687657146
| 32> *
| 33>
| 34>                          ****END OF INPUT****

CARTESIAN COORDINATES (ANGSTROEM)
---------------------------------
  C      0.514100    1.827215   -0.368415
  C      1.859959    2.081103   -0.487747
  C      2.814196    1.093320   -0.220601
  C      2.369034   -0.179998    0.180053
  C      0.993824   -0.416214    0.299197
  C      0.065648    0.566848    0.031712
  C     -1.384310    0.286975    0.152748
  C     -2.060668    0.453546    1.356234
  C     -3.415270    0.189505    1.459716
  C     -4.092022   -0.247637    0.337234
  C     -3.466917   -0.429585   -0.881729
  C     -2.114465   -0.154229   -0.943675
  F     -1.480741   -0.327081   -2.132665
  F     -5.421460   -0.510837    0.426926
  C      3.251002   -1.315755    0.484668
  O      2.850619   -2.411876    0.831765
  O      4.559690   -1.073638    0.355681
  O      4.097465    1.445292   -0.369072
  H     -0.202935    2.603609   -0.584736
  H      2.219817    3.049615   -0.795138
  H      0.681415   -1.403286    0.606483
  H     -1.511561    0.794805    2.218491
  H     -3.943545    0.317125    2.389630
  H     -4.007300   -0.772403   -1.747873
  H      5.097634   -1.861083    0.566954
  H      4.697814    0.703497   -0.168766

 Total Charge           Charge          ....    0
 Multiplicity           Mult            ....    1
 Number of Electrons    NEL             ....  128
 Basis Dimension        Dim             ....  268

ORBITAL ENERGIES
----------------

  NO   OCC          E(Eh)            E(eV)
   0   2.0000     -24.276204      -660.5891
   1   2.0000     -24.274731      -660.5490
   2   2.0000     -18.827376      -512.3189
   3   2.0000     -18.791989      -511.3560
   4   2.0000     -18.748200      -510.1644
   5   2.0000     -10.028606      -272.8922
   6   2.0000      -9.985464      -271.7183
   7   2.0000      -9.985145      -271.7096
   8   2.0000      -9.973775      -271.4002
   9   2.0000      -9.916536      -269.8427
  10   2.0000      -9.915293      -269.8089
  11   2.0000      -9.913967      -269.7727
  12   2.0000      -9.911094      -269.6946
  13   2.0000      -9.909564      -269.6529
  14   2.0000      -9.907801      -269.6050
  15   2.0000      -9.906513      -269.5699
  16   2.0000      -9.905392      -269.5394
  17   2.0000      -9.899483      -269.3786
  18   2.0000      -1.102811       -30.0090
  19   2.0000      -1.101688       -29.9785
  20   2.0000      -1.029341       -28.0098
  21   2.0000      -0.977975       -26.6121
  22   2.0000      -0.924106       -25.1462
  23   2.0000      -0.804670       -21.8962
  24   2.0000      -0.785366       -21.3709
  25   2.0000      -0.716995       -19.5104
  26   2.0000      -0.700681       -19.0665
  27   2.0000      -0.689726       -18.7684
  28   2.0000      -0.659638       -17.9497
  29   2.0000      -0.624628       -16.9970
  30   2.0000      -0.582763       -15.8578
  31   2.0000      -0.572628       -15.5820
  32   2.0000      -0.555145       -15.1063
  33   2.0000      -0.545038       -14.8312
  34   2.0000      -0.522525       -14.2186
  35   2.0000      -0.506218       -13.7749
  36   2.0000      -0.472797       -12.8655
  37   2.0000      -0.468063       -12.7366
  38   2.0000      -0.450487       -12.2584
  39   2.0000      -0.446979       -12.1629
  40   2.0000      -0.435935       -11.8624
  41   2.0000      -0.424963       -11.5638
  42   2.0000      -0.422911       -11.5080
  43   2.0000      -0.413504       -11.2520
  44   2.0000      -0.405694       -11.0395
  45   2.0000      -0.397461       -10.8155
  46   2.0000      -0.392818       -10.6891
  47   2.0000      -0.389341       -10.5945
  48   2.0000      -0.375938       -10.2298
  49   2.0000      -0.370352       -10.0778
  50   2.0000      -0.366641        -9.9768
  51   2.0000      -0.349126        -9.5002
  52   2.0000      -0.336765        -9.1639
  53   2.0000      -0.318594        -8.6694
  54   2.0000      -0.316548        -8.6137
  55   2.0000      -0.315248        -8.5783
  56   2.0000      -0.309923        -8.4334
  57   2.0000      -0.301055        -8.1921
  58   2.0000      -0.291109        -7.9215
  59   2.0000      -0.243981        -6.6391
  60   2.0000      -0.240137        -6.5345
  61   2.0000      -0.239448        -6.5157
  62   2.0000      -0.223453        -6.0805
  63   2.0000      -0.209176        -5.6920
  64   0.0000      -0.082729        -2.2512
  65   0.0000      -0.049434        -1.3452
  66   0.0000      -0.038358        -1.0438
  67   0.0000      -0.033952        -0.9239
  68   0.0000       0.007435         0.2023

MULLIKEN ATOMIC CHARGES
-----------------------
   0 C :   -0.054551
   1 C :   -0.123929
   2 C :    0.167499
   3 C :   -0.036425
   4 C :   -0.157948
   5 C :    0.094219
   6 C :   -0.038580
   7 C :   -0.081722
   8 C :   -0.142090
   9 C :    0.355451
  10 C :   -0.261508
  11 C :    0.299249
  12 F :   -0.161031
  13 F :   -0.174147
  14 C :    0.134855
  15 O :   -0.176969
  16 O :   -0.338068
  17 O :   -0.304810
  18 H :    0.053063
  19 H :    0.050527
  20 H :    0.062454
  21 H :    0.057509
  22 H :    0.061161
  23 H :    0.063454
  24 H :    0.329810
  25 H :    0.322528
Sum of atomic charges:   -0.0000000

LOEWDIN ATOMIC CHARGES
----------------------
   0 C :   -0.084433
   1 C :   -0.140823
   2 C :    0.045135
   3 C :   -0.126745
   4 C :   -0.067977
   5 C :   -0.051377
   6 C :   -0.068617
   7 C :   -0.093389
   8 C :   -0.160556
   9 C :    0.075707
  10 C :   -0.174871
  11 C :    0.084601
  12 F :   -0.048170
  13 F :   -0.054235
  14 C :    0.043316
  15 O :   -0.165411
  16 O :   -0.220557
  17 O :   -0.214294
  18 H :    0.131247
  19 H :    0.135023
  20 H :    0.140327
  21 H :    0.133585
  22 H :    0.138547
  23 H :    0.148494
  24 H :    0.307414
  25 H :    0.288058

  Mayer bond orders larger than 0.100000
B(  0-C ,  1-C ) :   1.3748 B(  0-C ,  5-C ) :   1.3299 B(  0-C , 18-H ) :   0.9694
B(  1-C ,  2-C ) :   1.3297 B(  1-C , 19-H ) :   0.9599 B(  2-C ,  3-C ) :   1.2147
B(  2-C , 17-O ) :   1.3212 B(  3-C ,  4-C ) :   1.3214 B(  3-C , 14-C ) :   0.9690
B(  4-C ,  5-C ) :   1.3845 B(  4-C , 20-H ) :   0.9626 B(  5-C ,  6-C ) :   0.9372
B(  6-C ,  7-C ) :   1.4001 B(  6-C , 11-C ) :   1.3617 B(  7-C ,  8-C ) :   1.3162
B(  7-C , 10-C ) :   0.1039 B(  7-C , 21-H ) :   0.9644 B(  8-C ,  9-C ) :   1.3500
B(  8-C , 22-H ) :   0.9677 B(  9-C , 10-C ) :   1.2904 B(  9-C , 13-F ) :   1.0856
B( 10-C , 11-C ) :   1.2937 B( 10-C , 23-H ) :   0.9762 B( 11-C , 12-F ) :   1.1391
B( 14-C , 15-O ) :   2.1062 B( 14-C , 16-O ) :   1.1897 B( 16-O , 24-H ) :   0.8091
B( 17-O , 25-H ) :   0.7891

Dispersion correction           -0.034493415
FINAL SINGLE POINT ENERGY      -923.756412289567

DIPOLE MOMENT
-------------

Method             : SCF
Type of density    : Electron Density
Multiplicity       :   1
Irrep              :   0
Energy             :  -923.8394970809160895 Eh
Relativity type    :
Basis              : AO
                                X                 Y                 Z
Electronic contribution:     -8.493805287      -3.662463720      -3.643551524
Nuclear contribution   :      9.409279072       3.965859402       3.923925194
                        -----------------------------------------
Total Dipole Moment    :      0.915473785       0.303395682       0.280373670
                        -----------------------------------------
Magnitude (a.u.)       :      1.004365763
Magnitude (Debye)      :      2.552894888

Rotational constants in cm-1:             0.032703             0.006596             0.006204
Rotational constants in MHz :           980.422758           197.730187           185.983177

                             ****ORCA TERMINATED NORMALLY****
TOTAL RUN TIME: 0 days 0 hours 0 minutes 23 seconds 512 msec
