                         Program Version 6.0.0  -   RELEASE  -
|  1> ! r2scan-3c def2/J RI DEFGRID2 scfconv6 printgap
|  2> %output
|  3>     printlevel normal
|  4> end
|  5> %cpcm
|  6>     smd true
|  7>     smdsolvent "water"
|  8> end
|  9> * xyz 0 1
| 10> C 1.534787956 -0.8740966212 -0.0566484308
| 11> O 1.2508525631 0.5089787354 -0.1725495798
| 12> C 0.0526280028 0.9088794682 0.4578590097
| 13> C -1.2224381255 0.4748819553 -0.2789766464
| 14> N -1.5789162707 -0.9071696681 0.0186526301
| 15> H 1.6776782855 -1.1472531638 0.9947541208
| 16> H 2.4579157948 -1.0356652888 -0.6077091706
| 17> H 0.7284130145 -1.4768019837 -0.4781475416
| 18> H 0.0295128652 0.5335106035 1.491198995
| 19> H 0.1032753806 1.9998558966 0.4747998841
| 20> H -2.0200150946 1.1884113447 -0.0132961834
| 21> H -1.0399719268 0.5533937713 -1.3539806679
| 22> H -2.4167112604 -1.1602310631 -0.4927473039
| 23> H -1.783263243 -1.001293057 1.0083122782
| 24> *
| 25>
| 26>                          ****END OF INPUT****

CARTESIAN COORDINATES (ANGSTROEM)
---------------------------------
  C      1.534788   -0.874097   -0.056648
  O      1.250853    0.508979   -0.172550
  C      0.052628    0.908879    0.457859
  C     -1.222438    0.474882   -0.278977
  N     -1.578916   -0.907170    0.018653
  H      1.677678   -1.147253    0.994754
  H      2.457916   -1.035665   -0.607709
  H      0.728413   -1.476802   -0.478148
  H      0.029513    0.533511    1.491199
  H      0.103275    1.999856    0.474800
  H     -2.020015    1.188411   -0.013296
  H     -1.039972    0.553394   -1.353981
  H     -2.416711   -1.160231   -0.492747
  H     -1.783263   -1.001293    1.008312

 Total Charge           Charge          ....    0
 Multiplicity           Mult            ....    1
 Number of Electrons    NEL             ....   42
 Basis Dimension        Dim             ....  150

ORBITAL ENERGIES
----------------

  NO   OCC          E(Eh)            E(eV)
   0   2.0000     -18.952782      -515.7314
   1   2.0000     -14.130313      -384.5054
   2   2.0000     -10.067863      -273.9605
   3   2.0000     -10.055904      -273.6351
   4   2.0000     -10.044838      -273.3339
   5   2.0000      -0.996409       -27.1137
   6   2.0000      -0.839974       -22.8569
   7   2.0000      -0.698571       -19.0091
   8   2.0000      -0.628240       -17.0953
   9   2.0000      -0.554687       -15.0938
  10   2.0000      -0.462713       -12.5911
  11   2.0000      -0.452541       -12.3143
  12   2.0000      -0.429487       -11.6869
  13   2.0000      -0.404761       -11.0141
  14   2.0000      -0.392007       -10.6670
  15   2.0000      -0.360830        -9.8187
  16   2.0000      -0.331400        -9.0179
  17   2.0000      -0.322389        -8.7726
  18   2.0000      -0.283630        -7.7180
  19   2.0000      -0.232447        -6.3252
  20   2.0000      -0.195274        -5.3137
  21   0.0000       0.077759         2.1159
  22   0.0000       0.091077         2.4783
  23   0.0000       0.126079         3.4308
  24   0.0000       0.131704         3.5838
  25   0.0000       0.137984         3.7547

MULLIKEN ATOMIC CHARGES
-----------------------
   0 C :   -0.324884
   1 O :   -0.311156
   2 C :   -0.162328
   3 C :   -0.203669
   4 N :   -0.638795
   5 H :    0.150612
   6 H :    0.154493
   7 H :    0.171459
   8 H :    0.145893
   9 H :    0.158854
  10 H :    0.136269
  11 H :    0.159991
  12 H :    0.281567
  13 H :    0.281694
Sum of atomic charges:   -0.0000000

LOEWDIN ATOMIC CHARGES
----------------------
   0 C :   -0.082884
   1 O :   -0.825228
   2 C :    0.022273
   3 C :   -0.063329
   4 N :   -0.755188
   5 H :    0.163043
   6 H :    0.174385
   7 H :    0.174396
   8 H :    0.174615
   9 H :    0.186311
  10 H :    0.160379
  11 H :    0.181312
  12 H :    0.245583
  13 H :    0.244332

  Mayer bond orders larger than 0.100000
B(  0-C ,  1-O ) :   0.8774 B(  0-C ,  5-H ) :   0.9648 B(  0-C ,  6-H ) :   0.9677
B(  0-C ,  7-H ) :   0.9516 B(  1-O ,  2-C ) :   0.9065 B(  2-C ,  3-C ) :   0.9287
B(  2-C ,  8-H ) :   0.9636 B(  2-C ,  9-H ) :   0.9674 B(  3-C ,  4-N ) :   0.9305
B(  3-C , 10-H ) :   0.9598 B(  3-C , 11-H ) :   0.9792 B(  4-N , 12-H ) :   0.9021
B(  4-N , 13-H ) :   0.9059

Dispersion correction           -0.002908126
FINAL SINGLE POINT ENERGY      -249.621362337595

DIPOLE MOMENT
-------------

Method             : SCF
Type of density    : Electron Density
Multiplicity       :   1
Irrep              :   0
Energy             :  -249.6313375505993122 Eh
Relativity type    :
Basis              : AO
                                X                 Y                 Z
Electronic contribution:      1.041128820       1.306713811      -0.447284489
Nuclear contribution   :     -2.113330326      -1.447908484       0.957459344
                        -----------------------------------------
Total Dipole Moment    :     -1.072201506      -0.141194673       0.510174855
                        -----------------------------------------
Magnitude (a.u.)       :      1.195755153
Magnitude (Debye)      :      3.039368057

Rotational constants in cm-1:             0.274282             0.119462             0.093269
Rotational constants in MHz :          8222.767725          3581.372789          2796.129747

                             ****ORCA TERMINATED NORMALLY****
TOTAL RUN TIME: 0 days 0 hours 0 minutes 18 seconds 394 msec
