                         Program Version 6.0.0  -   RELEASE  -
|  1> ! pbe def2-sv(p) def2/J RI DEFGRID1 loosescf d4 GCP(DFT/SV(P)) printgap
|  2> %output
|  3>     printlevel normal
|  4> end
|  5> * xyz 0 1
|  6> C -2.8351530347 -2.2220121375 1.3394472274
|  7> C -3.3732372729 -0.8765948196 0.8666599428
|  8> C -2.7715232658 -0.3246511203 -0.4353379603
|  9> H -3.3986241858 0.5257619762 -0.7291279088
| 10> C -2.7580347599 -1.3166628573 -1.590001747
| 11> N -1.4474385069 0.2958905044 -0.2009677085
| 12> C -0.2731611343 -0.4531328105 -0.1814588748
| 13> O -0.2609746787 -1.6647194134 -0.2905860739
| 14> C 0.9433063966 0.3236631604 -0.0175613691
| 15> C 0.9464772517 1.6649102692 0.1702309496
| 16> N -0.2719175425 2.2795707637 0.1932357207
| 17> C -1.4783116564 1.6561632678 0.0221191536
| 18> O -2.5104438614 2.3045993328 0.0641345486
| 19> C 2.1334560862 2.534268074 0.3573913111
| 20> Br 2.5381454191 -0.7108816246 -0.0576724322
| 21> H -1.7545160812 -2.2066626427 1.4465699724
| 22> H -3.2725552826 -2.4675219056 2.3040129716
| 23> H -3.0938882719 -3.0086650574 0.6371353783
| 24> H -4.4489147767 -0.966950028 0.7068142249
| 25> H -3.2226357903 -0.1242991584 1.6454510689
| 26> H -2.3808801624 -0.8367512566 -2.4904669231
| 27> H -2.1390262552 -2.1802042936 -1.372244621
| 28> H -3.77743508 -1.6442959795 -1.7707153624
| 29> H -0.319477588 3.2820114641 0.3476513241
| 30> H 2.1630727175 3.2896248072 -0.4252231788
| 31> H 3.0498804849 1.9537636705 0.3238217226
| 32> H 2.0710110557 3.0434000587 1.3169267666
| 33> *
| 34>
| 35>                          ****END OF INPUT****

CARTESIAN COORDINATES (ANGSTROEM)
---------------------------------
  C     -2.835153   -2.222012    1.339447
  C     -3.373237   -0.876595    0.866660
  C     -2.771523   -0.324651   -0.435338
  H     -3.398624    0.525762   -0.729128
  C     -2.758035   -1.316663   -1.590002
  N     -1.447439    0.295891   -0.200968
  C     -0.273161   -0.453133   -0.181459
  O     -0.260975   -1.664719   -0.290586
  C      0.943306    0.323663   -0.017561
  C      0.946477    1.664910    0.170231
  N     -0.271918    2.279571    0.193236
  C     -1.478312    1.656163    0.022119
  O     -2.510444    2.304599    0.064135
  C      2.133456    2.534268    0.357391
  Br     2.538145   -0.710882   -0.057672
  H     -1.754516   -2.206663    1.446570
  H     -3.272555   -2.467522    2.304013
  H     -3.093888   -3.008665    0.637135
  H     -4.448915   -0.966950    0.706814
  H     -3.222636   -0.124299    1.645451
  H     -2.380880   -0.836751   -2.490467
  H     -2.139026   -2.180204   -1.372245
  H     -3.777435   -1.644296   -1.770715
  H     -0.319478    3.282011    0.347651
  H      2.163073    3.289625   -0.425223
  H      3.049880    1.953764    0.323822
  H      2.071011    3.043400    1.316927

 Total Charge           Charge          ....    0
 Multiplicity           Mult            ....    1
 Number of Electrons    NEL             ....  132
 Basis Dimension        Dim             ....  240

ORBITAL ENERGIES
----------------

  NO   OCC          E(Eh)            E(eV)
   0   2.0000    -480.940970    -13087.0691
   1   2.0000     -61.782717     -1681.1932
   2   2.0000     -55.713421     -1516.0392
   3   2.0000     -55.710279     -1515.9538
   4   2.0000     -55.710097     -1515.9488
   5   2.0000     -18.735196      -509.8106
   6   2.0000     -18.732471      -509.7365
   7   2.0000     -14.066752      -382.7758
   8   2.0000     -14.055487      -382.4693
   9   2.0000     -10.033886      -273.0359
  10   2.0000     -10.004776      -272.2438
  11   2.0000      -9.981912      -271.6216
  12   2.0000      -9.951644      -270.7980
  13   2.0000      -9.932843      -270.2864
  14   2.0000      -9.922064      -269.9931
  15   2.0000      -9.886019      -269.0122
  16   2.0000      -9.872725      -268.6505
  17   2.0000      -9.864338      -268.4223
  18   2.0000      -8.407929      -228.7914
  19   2.0000      -6.290352      -171.1692
  20   2.0000      -6.275473      -170.7643
  21   2.0000      -6.274923      -170.7493
  22   2.0000      -2.491366       -67.7935
  23   2.0000      -2.487788       -67.6962
  24   2.0000      -2.487384       -67.6851
  25   2.0000      -2.476182       -67.3803
  26   2.0000      -2.476160       -67.3797
  27   2.0000      -0.987985       -26.8844
  28   2.0000      -0.949132       -25.8272
  29   2.0000      -0.898163       -24.4403
  30   2.0000      -0.860363       -23.4117
  31   2.0000      -0.767066       -20.8729
  32   2.0000      -0.728193       -19.8151
  33   2.0000      -0.708253       -19.2725
  34   2.0000      -0.667023       -18.1506
  35   2.0000      -0.647642       -17.6232
  36   2.0000      -0.607798       -16.5390
  37   2.0000      -0.603747       -16.4288
  38   2.0000      -0.569944       -15.5090
  39   2.0000      -0.530695       -14.4409
  40   2.0000      -0.529452       -14.4071
  41   2.0000      -0.489730       -13.3262
  42   2.0000      -0.454468       -12.3667
  43   2.0000      -0.433073       -11.7845
  44   2.0000      -0.419224       -11.4077
  45   2.0000      -0.414543       -11.2803
  46   2.0000      -0.405020       -11.0212
  47   2.0000      -0.388233       -10.5644
  48   2.0000      -0.386505       -10.5173
  49   2.0000      -0.383520       -10.4361
  50   2.0000      -0.374221       -10.1831
  51   2.0000      -0.361866        -9.8469
  52   2.0000      -0.360904        -9.8207
  53   2.0000      -0.351383        -9.5616
  54   2.0000      -0.339836        -9.2474
  55   2.0000      -0.331496        -9.0205
  56   2.0000      -0.321986        -8.7617
  57   2.0000      -0.298504        -8.1227
  58   2.0000      -0.291081        -7.9207
  59   2.0000      -0.288844        -7.8598
  60   2.0000      -0.274262        -7.4631
  61   2.0000      -0.252533        -6.8718
  62   2.0000      -0.239787        -6.5249
  63   2.0000      -0.233431        -6.3520
  64   2.0000      -0.214231        -5.8295
  65   2.0000      -0.206987        -5.6324
  66   0.0000      -0.074422        -2.0251
  67   0.0000      -0.032206        -0.8764
  68   0.0000      -0.024561        -0.6683
  69   0.0000       0.015782         0.4294
  70   0.0000       0.041789         1.1371

MULLIKEN ATOMIC CHARGES
-----------------------
   0 C :   -0.286475
   1 C :   -0.154005
   2 C :   -0.065887
   3 H :    0.107139
   4 C :   -0.251353
   5 N :   -0.244357
   6 C :    0.193470
   7 O :   -0.175501
   8 C :   -0.197975
   9 C :    0.018343
  10 N :   -0.200485
  11 C :    0.169933
  12 O :   -0.211030
  13 C :   -0.212341
  14 Br:    0.007960
  15 H :    0.130723
  16 H :    0.095898
  17 H :    0.102979
  18 H :    0.089838
  19 H :    0.089412
  20 H :    0.099127
  21 H :    0.149803
  22 H :    0.101658
  23 H :    0.246694
  24 H :    0.130957
  25 H :    0.134947
  26 H :    0.130528
Sum of atomic charges:    0.0000000

LOEWDIN ATOMIC CHARGES
----------------------
   0 C :   -0.348659
   1 C :   -0.226027
   2 C :   -0.076112
   3 H :    0.135794
   4 C :   -0.343969
   5 N :   -0.003666
   6 C :    0.021831
   7 O :   -0.160772
   8 C :   -0.213911
   9 C :   -0.007369
  10 N :   -0.088372
  11 C :    0.039280
  12 O :   -0.198069
  13 C :   -0.333710
  14 Br:    0.137760
  15 H :    0.125070
  16 H :    0.117389
  17 H :    0.119362
  18 H :    0.122004
  19 H :    0.118948
  20 H :    0.121808
  21 H :    0.133507
  22 H :    0.125186
  23 H :    0.254818
  24 H :    0.143737
  25 H :    0.140588
  26 H :    0.143555

  Mayer bond orders larger than 0.100000
B(  0-C ,  1-C ) :   1.1581 B(  0-C , 15-H ) :   0.9390 B(  0-C , 16-H ) :   0.9461
B(  0-C , 17-H ) :   0.9476 B(  1-C ,  2-C ) :   1.0967 B(  1-C , 18-H ) :   0.9209
B(  1-C , 19-H ) :   0.9201 B(  2-C ,  3-H ) :   0.8734 B(  2-C ,  4-C ) :   1.1189
B(  2-C ,  5-N ) :   0.9115 B(  4-C , 20-H ) :   0.9435 B(  4-C , 21-H ) :   0.9153
B(  4-C , 22-H ) :   0.9405 B(  5-N ,  6-C ) :   1.0435 B(  5-N , 11-C ) :   1.0759
B(  6-C ,  7-O ) :   2.0572 B(  6-C ,  8-C ) :   1.0264 B(  8-C ,  9-C ) :   1.6408
B(  8-C , 14-Br) :   1.0555 B(  9-C , 10-N ) :   1.1756 B(  9-C , 13-C ) :   1.1600
B( 10-N , 11-C ) :   1.1011 B( 10-N , 23-H ) :   0.8388 B( 11-C , 12-O ) :   2.0318
B( 13-C , 24-H ) :   0.9196 B( 13-C , 25-H ) :   0.9084 B( 13-C , 26-H ) :   0.9192

Dispersion correction           -0.034140747
FINAL SINGLE POINT ENERGY     -3182.938217006572

DIPOLE MOMENT
-------------

Method             : SCF
Type of density    : Electron Density
Multiplicity       :   1
Irrep              :   0
Energy             : -3183.0304254799257251 Eh
Relativity type    :
Basis              : AO
                                X                 Y                 Z
Electronic contribution:     43.469616628      -4.016978582      -2.187802030
Nuclear contribution   :    -42.872137981       5.366252081       2.352721603
                        -----------------------------------------
Total Dipole Moment    :      0.597478646       1.349273498       0.164919574
                        -----------------------------------------
Magnitude (a.u.)       :      1.484829341
Magnitude (Debye)      :      3.774136249

Rotational constants in cm-1:             0.026445             0.012300             0.009249
Rotational constants in MHz :           792.814032           368.749662           277.263861

                             ****ORCA TERMINATED NORMALLY****
TOTAL RUN TIME: 0 days 0 hours 0 minutes 21 seconds 595 msec
