                         Program Version 6.0.0  -   RELEASE  -
|  1> ! pbe def2-sv(p) def2/J RI DEFGRID1 loosescf d4 GCP(DFT/SV(P)) printgap
|  2> %output
|  3>     printlevel normal
|  4> end
|  5> * xyz 0 1
|  6> C -2.0436379477 0.8359785804 -0.6462058333
|  7> C -1.3323335408 0.5378646187 0.6697791858
|  8> C -0.0154467911 -0.2370022526 0.53213039
|  9> H 0.4179087153 -0.3356633832 1.5343472143
| 10> C -0.2168248519 -1.6423009107 -0.0305369549
| 11> C 1.0139628288 0.527804607 -0.305541166
| 12> O 2.2914035334 -0.0377759841 -0.0766880472
| 13> H -1.4248814548 1.4520646019 -1.2930114513
| 14> H -2.2926936902 -0.0813115952 -1.1716911451
| 15> H -2.9680083104 1.3733447804 -0.448201803
| 16> H -2.0001144508 -0.0436876328 1.3086712327
| 17> H -1.1276904615 1.4814120298 1.1814379917
| 18> H 0.736490739 -2.1646995149 -0.0466233214
| 19> H -0.6024541263 -1.6028857142 -1.0459250695
| 20> H -0.9124178936 -2.2031293815 0.5883690311
| 21> H 1.0144005554 1.5863495666 -0.0092195389
| 22> H 0.7574765262 0.4585257512 -1.3700270038
| 23> H 2.9439215675 0.4130583813 -0.6280275139
| 24> *
| 25>
| 26>                          ****END OF INPUT****

CARTESIAN COORDINATES (ANGSTROEM)
---------------------------------
  C     -2.043638    0.835979   -0.646206
  C     -1.332334    0.537865    0.669779
  C     -0.015447   -0.237002    0.532130
  H      0.417909   -0.335663    1.534347
  C     -0.216825   -1.642301   -0.030537
  C      1.013963    0.527805   -0.305541
  O      2.291404   -0.037776   -0.076688
  H     -1.424881    1.452065   -1.293011
  H     -2.292694   -0.081312   -1.171691
  H     -2.968008    1.373345   -0.448202
  H     -2.000114   -0.043688    1.308671
  H     -1.127690    1.481412    1.181438
  H      0.736491   -2.164700   -0.046623
  H     -0.602454   -1.602886   -1.045925
  H     -0.912418   -2.203129    0.588369
  H      1.014401    1.586350   -0.009220
  H      0.757477    0.458526   -1.370027
  H      2.943922    0.413058   -0.628028

 Total Charge           Charge          ....    0
 Multiplicity           Mult            ....    1
 Number of Electrons    NEL             ....   50
 Basis Dimension        Dim             ....  108

ORBITAL ENERGIES
----------------

  NO   OCC          E(Eh)            E(eV)
   0   2.0000     -18.738147      -509.8909
   1   2.0000      -9.924451      -270.0580
   2   2.0000      -9.887184      -269.0440
   3   2.0000      -9.881607      -268.8922
   4   2.0000      -9.872526      -268.6451
   5   2.0000      -9.864298      -268.4212
   6   2.0000      -0.913812       -24.8661
   7   2.0000      -0.725779       -19.7494
   8   2.0000      -0.650530       -17.7018
   9   2.0000      -0.599381       -16.3100
  10   2.0000      -0.561022       -15.2662
  11   2.0000      -0.481182       -13.0936
  12   2.0000      -0.460867       -12.5408
  13   2.0000      -0.414980       -11.2922
  14   2.0000      -0.402174       -10.9437
  15   2.0000      -0.384056       -10.4507
  16   2.0000      -0.362129        -9.8540
  17   2.0000      -0.333946        -9.0871
  18   2.0000      -0.333521        -9.0756
  19   2.0000      -0.314996        -8.5715
  20   2.0000      -0.300770        -8.1844
  21   2.0000      -0.278164        -7.5692
  22   2.0000      -0.275656        -7.5010
  23   2.0000      -0.260511        -7.0889
  24   2.0000      -0.209662        -5.7052
  25   0.0000       0.029995         0.8162
  26   0.0000       0.040876         1.1123
  27   0.0000       0.066233         1.8023
  28   0.0000       0.074232         2.0200
  29   0.0000       0.099296         2.7020

MULLIKEN ATOMIC CHARGES
-----------------------
   0 C :   -0.296719
   1 C :   -0.158565
   2 C :   -0.161469
   3 H :    0.078004
   4 C :   -0.255554
   5 C :    0.016211
   6 O :   -0.433404
   7 H :    0.104134
   8 H :    0.106127
   9 H :    0.102689
  10 H :    0.083603
  11 H :    0.082984
  12 H :    0.112025
  13 H :    0.093780
  14 H :    0.095514
  15 H :    0.066187
  16 H :    0.067954
  17 H :    0.296498
Sum of atomic charges:   -0.0000000

LOEWDIN ATOMIC CHARGES
----------------------
   0 C :   -0.345079
   1 C :   -0.224692
   2 C :   -0.163982
   3 H :    0.121186
   4 C :   -0.333024
   5 C :   -0.114325
   6 O :   -0.347024
   7 H :    0.115700
   8 H :    0.118250
   9 H :    0.120606
  10 H :    0.115735
  11 H :    0.113424
  12 H :    0.124427
  13 H :    0.113340
  14 H :    0.116346
  15 H :    0.091761
  16 H :    0.093227
  17 H :    0.284124

  Mayer bond orders larger than 0.100000
B(  0-C ,  1-C ) :   1.1468 B(  0-C ,  7-H ) :   0.9509 B(  0-C ,  8-H ) :   0.9509
B(  0-C ,  9-H ) :   0.9500 B(  1-C ,  2-C ) :   1.0784 B(  1-C , 10-H ) :   0.9255
B(  1-C , 11-H ) :   0.9226 B(  2-C ,  3-H ) :   0.8941 B(  2-C ,  4-C ) :   1.1111
B(  2-C ,  5-C ) :   1.0676 B(  4-C , 12-H ) :   0.9435 B(  4-C , 13-H ) :   0.9446
B(  4-C , 14-H ) :   0.9524 B(  5-C ,  6-O ) :   1.0830 B(  5-C , 15-H ) :   0.9252
B(  5-C , 16-H ) :   0.9108 B(  6-O , 17-H ) :   0.8531

Dispersion correction           -0.013139376
FINAL SINGLE POINT ENERGY      -272.299338912148

DIPOLE MOMENT
-------------

Method             : SCF
Type of density    : Electron Density
Multiplicity       :   1
Irrep              :   0
Energy             :  -272.3688335264285456 Eh
Relativity type    :
Basis              : AO
                                X                 Y                 Z
Electronic contribution:      5.098338476       0.120172000       0.957856819
Nuclear contribution   :     -5.086550052       0.312202398      -1.314474640
                        -----------------------------------------
Total Dipole Moment    :      0.011788424       0.432374397      -0.356617821
                        -----------------------------------------
Magnitude (a.u.)       :      0.560591524
Magnitude (Debye)      :      1.424910414

Rotational constants in cm-1:             0.180310             0.072519             0.061707
Rotational constants in MHz :          5405.566477          2174.078809          1849.915364

                             ****ORCA TERMINATED NORMALLY****
TOTAL RUN TIME: 0 days 0 hours 0 minutes 7 seconds 801 msec
