                         Program Version 6.0.0  -   RELEASE  -
|  1> ! pbe def2-sv(p) def2/J RI DEFGRID1 loosescf d4 GCP(DFT/SV(P)) printgap
|  2> %output
|  3>     printlevel normal
|  4> end
|  5> * xyz 0 1
|  6> C -0.1524879115 2.0833584308 -1.8935943505
|  7> N -0.3199993854 1.1942897771 -0.7549838222
|  8> C -1.440621065 0.2975733723 -0.946680344
|  9> C -1.8050712464 -0.4359530495 0.3306756244
| 10> F -0.9532994972 -1.4256543365 0.6537116664
| 11> F -1.8898075307 0.3570384121 1.4061174043
| 12> F -3.0130526535 -1.031506162 0.2140371124
| 13> C 0.8890758781 0.531846979 -0.3564246615
| 14> C 1.699692375 -0.1496073159 -1.2562546872
| 15> C 2.8604048086 -0.761228073 -0.8173637329
| 16> C 3.2166690317 -0.7013872024 0.5189716542
| 17> C 2.4104221883 -0.0232574068 1.4177090499
| 18> C 1.2518796129 0.5950946032 0.9825180115
| 19> H -1.0169103759 2.7434839526 -1.9434922266
| 20> H -0.05696033 1.5544712918 -2.8495699297
| 21> H 0.7387736165 2.6823725335 -1.7278387612
| 22> H -2.3155548647 0.8901326636 -1.2287410469
| 23> H -1.2699516117 -0.4793357523 -1.713676326
| 24> H 1.4271377224 -0.2044277803 -2.2997439362
| 25> H 3.4859897608 -1.2890749811 -1.5213284567
| 26> H 4.1210702097 -1.1819733479 0.8591033205
| 27> H 2.6846791496 0.0272287145 2.4603224384
| 28> H 0.6172499129 1.128554327 1.6730299324
| 29> *
| 30>
| 31>                          ****END OF INPUT****

CARTESIAN COORDINATES (ANGSTROEM)
---------------------------------
  C     -0.152488    2.083358   -1.893594
  N     -0.319999    1.194290   -0.754984
  C     -1.440621    0.297573   -0.946680
  C     -1.805071   -0.435953    0.330676
  F     -0.953299   -1.425654    0.653712
  F     -1.889808    0.357038    1.406117
  F     -3.013053   -1.031506    0.214037
  C      0.889076    0.531847   -0.356425
  C      1.699692   -0.149607   -1.256255
  C      2.860405   -0.761228   -0.817364
  C      3.216669   -0.701387    0.518972
  C      2.410422   -0.023257    1.417709
  C      1.251880    0.595095    0.982518
  H     -1.016910    2.743484   -1.943492
  H     -0.056960    1.554471   -2.849570
  H      0.738774    2.682373   -1.727839
  H     -2.315555    0.890133   -1.228741
  H     -1.269952   -0.479336   -1.713676
  H      1.427138   -0.204428   -2.299744
  H      3.485990   -1.289075   -1.521328
  H      4.121070   -1.181973    0.859103
  H      2.684679    0.027229    2.460322
  H      0.617250    1.128554    1.673030

 Total Charge           Charge          ....    0
 Multiplicity           Mult            ....    1
 Number of Electrons    NEL             ....   98
 Basis Dimension        Dim             ....  202

ORBITAL ENERGIES
----------------

  NO   OCC          E(Eh)            E(eV)
   0   2.0000     -24.281059      -660.7212
   1   2.0000     -24.278054      -660.6394
   2   2.0000     -24.276160      -660.5879
   3   2.0000     -14.010244      -381.2381
   4   2.0000     -10.118975      -275.3513
   5   2.0000      -9.942706      -270.5548
   6   2.0000      -9.926614      -270.1169
   7   2.0000      -9.916989      -269.8550
   8   2.0000      -9.895822      -269.2790
   9   2.0000      -9.895029      -269.2574
  10   2.0000      -9.894213      -269.2352
  11   2.0000      -9.893936      -269.2277
  12   2.0000      -9.889729      -269.1132
  13   2.0000      -1.183822       -32.2134
  14   2.0000      -1.091290       -29.6955
  15   2.0000      -1.086718       -29.5711
  16   2.0000      -0.866903       -23.5896
  17   2.0000      -0.773158       -21.0387
  18   2.0000      -0.698618       -19.0104
  19   2.0000      -0.674959       -18.3666
  20   2.0000      -0.669987       -18.2313
  21   2.0000      -0.606912       -16.5149
  22   2.0000      -0.584805       -15.9134
  23   2.0000      -0.548028       -14.9126
  24   2.0000      -0.533350       -14.5132
  25   2.0000      -0.520502       -14.1636
  26   2.0000      -0.516157       -14.0454
  27   2.0000      -0.496107       -13.4998
  28   2.0000      -0.462554       -12.5867
  29   2.0000      -0.434841       -11.8326
  30   2.0000      -0.431570       -11.7436
  31   2.0000      -0.415826       -11.3152
  32   2.0000      -0.397933       -10.8283
  33   2.0000      -0.391948       -10.6655
  34   2.0000      -0.390976       -10.6390
  35   2.0000      -0.381832       -10.3902
  36   2.0000      -0.379268       -10.3204
  37   2.0000      -0.372065       -10.1244
  38   2.0000      -0.355166        -9.6646
  39   2.0000      -0.345376        -9.3982
  40   2.0000      -0.340840        -9.2747
  41   2.0000      -0.332841        -9.0571
  42   2.0000      -0.327341        -8.9074
  43   2.0000      -0.318613        -8.6699
  44   2.0000      -0.311315        -8.4713
  45   2.0000      -0.306327        -8.3356
  46   2.0000      -0.232462        -6.3256
  47   2.0000      -0.230187        -6.2637
  48   2.0000      -0.192674        -5.2429
  49   0.0000      -0.039499        -1.0748
  50   0.0000      -0.036659        -0.9975
  51   0.0000       0.027765         0.7555
  52   0.0000       0.045226         1.2307
  53   0.0000       0.063465         1.7270

MULLIKEN ATOMIC CHARGES
-----------------------
   0 C :   -0.160712
   1 N :   -0.288173
   2 C :   -0.089066
   3 C :    0.395109
   4 F :   -0.136820
   5 F :   -0.133417
   6 F :   -0.150693
   7 C :    0.103389
   8 C :   -0.094400
   9 C :   -0.058493
  10 C :   -0.031894
  11 C :   -0.060013
  12 C :   -0.058202
  13 H :    0.109579
  14 H :    0.086678
  15 H :    0.123351
  16 H :    0.113672
  17 H :    0.095127
  18 H :    0.034155
  19 H :    0.051937
  20 H :    0.054170
  21 H :    0.054684
  22 H :    0.040032
Sum of atomic charges:   -0.0000000

LOEWDIN ATOMIC CHARGES
----------------------
   0 C :   -0.250651
   1 N :   -0.119544
   2 C :   -0.182576
   3 C :    0.110468
   4 F :   -0.043913
   5 F :   -0.039085
   6 F :   -0.058685
   7 C :   -0.014101
   8 C :   -0.131716
   9 C :   -0.119068
  10 C :   -0.123338
  11 C :   -0.117861
  12 C :   -0.119254
  13 H :    0.117362
  14 H :    0.094316
  15 H :    0.125141
  16 H :    0.135868
  17 H :    0.113091
  18 H :    0.123118
  19 H :    0.123771
  20 H :    0.124177
  21 H :    0.125243
  22 H :    0.127236

  Mayer bond orders larger than 0.100000
B(  0-C ,  1-N ) :   1.0339 B(  0-C , 13-H ) :   0.9523 B(  0-C , 14-H ) :   0.9273
B(  0-C , 15-H ) :   0.9551 B(  1-N ,  2-C ) :   1.0376 B(  1-N ,  7-C ) :   0.9801
B(  2-C ,  3-C ) :   1.0426 B(  2-C , 16-H ) :   0.8988 B(  2-C , 17-H ) :   0.8777
B(  3-C ,  4-F ) :   1.1504 B(  3-C ,  5-F ) :   1.1656 B(  3-C ,  6-F ) :   1.1469
B(  7-C ,  8-C ) :   1.3696 B(  7-C , 12-C ) :   1.4304 B(  8-C ,  9-C ) :   1.3527
B(  8-C , 18-H ) :   0.9620 B(  9-C , 10-C ) :   1.3807 B(  9-C , 19-H ) :   0.9597
B( 10-C , 11-C ) :   1.3742 B( 10-C , 20-H ) :   0.9660 B( 11-C , 12-C ) :   1.3377
B( 11-C , 21-H ) :   0.9618 B( 12-C , 22-H ) :   0.9600

Dispersion correction           -0.026307194
FINAL SINGLE POINT ENERGY      -701.820225546979

DIPOLE MOMENT
-------------

Method             : SCF
Type of density    : Electron Density
Multiplicity       :   1
Irrep              :   0
Energy             :  -701.9111857589372221 Eh
Relativity type    :
Basis              : AO
                                X                 Y                 Z
Electronic contribution:    -12.981511638      -7.131374780       9.115849704
Nuclear contribution   :     13.319305156       7.460786904      -9.890200472
                        -----------------------------------------
Total Dipole Moment    :      0.337793518       0.329412124      -0.774350768
                        -----------------------------------------
Magnitude (a.u.)       :      0.906772254
Magnitude (Debye)      :      2.304831902

Rotational constants in cm-1:             0.043046             0.019950             0.016780
Rotational constants in MHz :          1290.493667           598.094252           503.063847

                             ****ORCA TERMINATED NORMALLY****
TOTAL RUN TIME: 0 days 0 hours 0 minutes 15 seconds 197 msec
