                         Program Version 6.0.0  -   RELEASE  -
|  1> ! r2scan-3c def2/J RI DEFGRID2 scfconv6 printgap
|  2> %output
|  3>     printlevel normal
|  4> end
|  5> * xyz 0 1
|  6> C -2.2233236004 0.8982264634 0.1912622069
|  7> C -0.8491873513 0.6826318193 -0.4309349336
|  8> C -0.0240058745 -0.4005026974 0.2726908009
|  9> H -0.0046672683 -0.1777945435 1.3448851326
| 10> C -0.5976582294 -1.7973473785 0.0542773557
| 11> C 1.4243391481 -0.3513042004 -0.2254194998
| 12> O 2.0082225459 0.8805254966 0.1515878255
| 13> H -2.7269893783 1.7291632566 -0.2966299579
| 14> H -2.8463821253 0.0144304306 0.0837143956
| 15> H -2.1287075618 1.1287503069 1.249985419
| 16> H -0.2849411944 1.6161416348 -0.3787602332
| 17> H -0.9621385801 0.416485352 -1.4846396788
| 18> H -1.6020557088 -1.8644643807 0.4603979578
| 19> H 0.0195397657 -2.5443755198 0.5477616975
| 20> H -0.6353552386 -2.0276842405 -1.008203979
| 21> H 1.437095879 -0.460732882 -1.3186965181
| 22> H 1.988864792 -1.1846734344 0.2150827787
| 23> H 2.9165306307 0.9163410315 -0.1751966973
| 24> *
| 25>
| 26>                          ****END OF INPUT****

CARTESIAN COORDINATES (ANGSTROEM)
---------------------------------
  C     -2.223324    0.898226    0.191262
  C     -0.849187    0.682632   -0.430935
  C     -0.024006   -0.400503    0.272691
  H     -0.004667   -0.177795    1.344885
  C     -0.597658   -1.797347    0.054277
  C      1.424339   -0.351304   -0.225419
  O      2.008223    0.880525    0.151588
  H     -2.726989    1.729163   -0.296630
  H     -2.846382    0.014430    0.083714
  H     -2.128708    1.128750    1.249985
  H     -0.284941    1.616142   -0.378760
  H     -0.962139    0.416485   -1.484640
  H     -1.602056   -1.864464    0.460398
  H      0.019540   -2.544376    0.547762
  H     -0.635355   -2.027684   -1.008204
  H      1.437096   -0.460733   -1.318697
  H      1.988865   -1.184673    0.215083
  H      2.916531    0.916341   -0.175197

 Total Charge           Charge          ....    0
 Multiplicity           Mult            ....    1
 Number of Electrons    NEL             ....   50
 Basis Dimension        Dim             ....  179

ORBITAL ENERGIES
----------------

  NO   OCC          E(Eh)            E(eV)
   0   2.0000     -18.946442      -515.5589
   1   2.0000     -10.071389      -274.0564
   2   2.0000     -10.029637      -272.9203
   3   2.0000     -10.017332      -272.5855
   4   2.0000     -10.015998      -272.5492
   5   2.0000     -10.011271      -272.4205
   6   2.0000      -0.982914       -26.7464
   7   2.0000      -0.772727       -21.0270
   8   2.0000      -0.695925       -18.9371
   9   2.0000      -0.640962       -17.4415
  10   2.0000      -0.586495       -15.9593
  11   2.0000      -0.522474       -14.2172
  12   2.0000      -0.480262       -13.0686
  13   2.0000      -0.432265       -11.7625
  14   2.0000      -0.415581       -11.3085
  15   2.0000      -0.407433       -11.0868
  16   2.0000      -0.374401       -10.1880
  17   2.0000      -0.352091        -9.5809
  18   2.0000      -0.345133        -9.3915
  19   2.0000      -0.327298        -8.9062
  20   2.0000      -0.323064        -8.7910
  21   2.0000      -0.290009        -7.8916
  22   2.0000      -0.287598        -7.8260
  23   2.0000      -0.276758        -7.5310
  24   2.0000      -0.233841        -6.3631
  25   0.0000       0.060992         1.6597
  26   0.0000       0.091065         2.4780
  27   0.0000       0.116638         3.1739
  28   0.0000       0.129281         3.5179
  29   0.0000       0.130182         3.5424

MULLIKEN ATOMIC CHARGES
-----------------------
   0 C :   -0.506082
   1 C :   -0.241852
   2 C :   -0.040056
   3 H :    0.154343
   4 C :   -0.521360
   5 C :   -0.134294
   6 O :   -0.434478
   7 H :    0.147046
   8 H :    0.142814
   9 H :    0.147817
  10 H :    0.172648
  11 H :    0.131498
  12 H :    0.153002
  13 H :    0.144721
  14 H :    0.150765
  15 H :    0.121489
  16 H :    0.121125
  17 H :    0.290854
Sum of atomic charges:   -0.0000000

LOEWDIN ATOMIC CHARGES
----------------------
   0 C :   -0.422334
   1 C :   -0.305765
   2 C :   -0.218520
   3 H :    0.165683
   4 C :   -0.412953
   5 C :    0.011350
   6 O :   -0.636070
   7 H :    0.151016
   8 H :    0.146935
   9 H :    0.151210
  10 H :    0.170922
  11 H :    0.152815
  12 H :    0.155954
  13 H :    0.154078
  14 H :    0.154771
  15 H :    0.157853
  16 H :    0.156734
  17 H :    0.266319

  Mayer bond orders larger than 0.100000
B(  0-C ,  1-C ) :   0.8935 B(  0-C ,  7-H ) :   0.9735 B(  0-C ,  8-H ) :   0.9839
B(  0-C ,  9-H ) :   0.9901 B(  1-C ,  2-C ) :   0.9115 B(  1-C , 10-H ) :   0.9665
B(  1-C , 11-H ) :   0.9589 B(  2-C ,  3-H ) :   0.9681 B(  2-C ,  4-C ) :   0.8875
B(  2-C ,  5-C ) :   0.9456 B(  4-C , 12-H ) :   0.9724 B(  4-C , 13-H ) :   0.9713
B(  4-C , 14-H ) :   0.9855 B(  5-C ,  6-O ) :   0.9331 B(  5-C , 15-H ) :   0.9675
B(  5-C , 16-H ) :   0.9688 B(  6-O , 17-H ) :   0.9013

Dispersion correction           -0.004323049
FINAL SINGLE POINT ENERGY      -272.898282382869

DIPOLE MOMENT
-------------

Method             : SCF
Type of density    : Electron Density
Multiplicity       :   1
Irrep              :   0
Energy             :  -272.9038125728083060 Eh
Relativity type    :
Basis              : AO
                                X                 Y                 Z
Electronic contribution:      4.797669427       1.926245861       0.432359134
Nuclear contribution   :     -4.500782482      -2.274562980      -0.711035877
                        -----------------------------------------
Total Dipole Moment    :      0.296886945      -0.348317120      -0.278676743
                        -----------------------------------------
Magnitude (a.u.)       :      0.535842702
Magnitude (Debye)      :      1.362003908

Rotational constants in cm-1:             0.156882             0.078816             0.057366
Rotational constants in MHz :          4703.216677          2362.844061          1719.783641

                             ****ORCA TERMINATED NORMALLY****
TOTAL RUN TIME: 0 days 0 hours 0 minutes 23 seconds 829 msec
