                         Program Version 6.0.0  -   RELEASE  -
|  1> ! r2scan-3c def2/J RI DEFGRID2 scfconv6 printgap
|  2> %output
|  3>     printlevel normal
|  4> end
|  5> %cpcm
|  6>     smd true
|  7>     smdsolvent "water"
|  8> end
|  9> * xyz 0 1
| 10> C -2.2233236004 0.8982264634 0.1912622069
| 11> C -0.8491873513 0.6826318193 -0.4309349336
| 12> C -0.0240058745 -0.4005026974 0.2726908009
| 13> H -0.0046672683 -0.1777945435 1.3448851326
| 14> C -0.5976582294 -1.7973473785 0.0542773557
| 15> C 1.4243391481 -0.3513042004 -0.2254194998
| 16> O 2.0082225459 0.8805254966 0.1515878255
| 17> H -2.7269893783 1.7291632566 -0.2966299579
| 18> H -2.8463821253 0.0144304306 0.0837143956
| 19> H -2.1287075618 1.1287503069 1.249985419
| 20> H -0.2849411944 1.6161416348 -0.3787602332
| 21> H -0.9621385801 0.416485352 -1.4846396788
| 22> H -1.6020557088 -1.8644643807 0.4603979578
| 23> H 0.0195397657 -2.5443755198 0.5477616975
| 24> H -0.6353552386 -2.0276842405 -1.008203979
| 25> H 1.437095879 -0.460732882 -1.3186965181
| 26> H 1.988864792 -1.1846734344 0.2150827787
| 27> H 2.9165306307 0.9163410315 -0.1751966973
| 28> *
| 29>
| 30>                          ****END OF INPUT****

CARTESIAN COORDINATES (ANGSTROEM)
---------------------------------
  C     -2.223324    0.898226    0.191262
  C     -0.849187    0.682632   -0.430935
  C     -0.024006   -0.400503    0.272691
  H     -0.004667   -0.177795    1.344885
  C     -0.597658   -1.797347    0.054277
  C      1.424339   -0.351304   -0.225419
  O      2.008223    0.880525    0.151588
  H     -2.726989    1.729163   -0.296630
  H     -2.846382    0.014430    0.083714
  H     -2.128708    1.128750    1.249985
  H     -0.284941    1.616142   -0.378760
  H     -0.962139    0.416485   -1.484640
  H     -1.602056   -1.864464    0.460398
  H      0.019540   -2.544376    0.547762
  H     -0.635355   -2.027684   -1.008204
  H      1.437096   -0.460733   -1.318697
  H      1.988865   -1.184673    0.215083
  H      2.916531    0.916341   -0.175197

 Total Charge           Charge          ....    0
 Multiplicity           Mult            ....    1
 Number of Electrons    NEL             ....   50
 Basis Dimension        Dim             ....  179

ORBITAL ENERGIES
----------------

  NO   OCC          E(Eh)            E(eV)
   0   2.0000     -18.948683      -515.6199
   1   2.0000     -10.064985      -273.8822
   2   2.0000     -10.024900      -272.7914
   3   2.0000     -10.013727      -272.4874
   4   2.0000     -10.008889      -272.3557
   5   2.0000     -10.007033      -272.3052
   6   2.0000      -0.984098       -26.7787
   7   2.0000      -0.768164       -20.9028
   8   2.0000      -0.691635       -18.8204
   9   2.0000      -0.635034       -17.2801
  10   2.0000      -0.582762       -15.8578
  11   2.0000      -0.518063       -14.0972
  12   2.0000      -0.476987       -12.9795
  13   2.0000      -0.427537       -11.6339
  14   2.0000      -0.411943       -11.2095
  15   2.0000      -0.403987       -10.9930
  16   2.0000      -0.368914       -10.0387
  17   2.0000      -0.347349        -9.4519
  18   2.0000      -0.340246        -9.2586
  19   2.0000      -0.326325        -8.8798
  20   2.0000      -0.320305        -8.7159
  21   2.0000      -0.286316        -7.7910
  22   2.0000      -0.284228        -7.7342
  23   2.0000      -0.273596        -7.4449
  24   2.0000      -0.236722        -6.4415
  25   0.0000       0.076510         2.0819
  26   0.0000       0.098713         2.6861
  27   0.0000       0.122003         3.3199
  28   0.0000       0.136300         3.7089
  29   0.0000       0.138294         3.7632

MULLIKEN ATOMIC CHARGES
-----------------------
   0 C :   -0.543236
   1 C :   -0.247011
   2 C :   -0.031307
   3 H :    0.159000
   4 C :   -0.563925
   5 C :   -0.148110
   6 O :   -0.517149
   7 H :    0.156597
   8 H :    0.158164
   9 H :    0.157208
  10 H :    0.157512
  11 H :    0.148740
  12 H :    0.165435
  13 H :    0.158386
  14 H :    0.165089
  15 H :    0.140425
  16 H :    0.139740
  17 H :    0.344441
Sum of atomic charges:   -0.0000000

LOEWDIN ATOMIC CHARGES
----------------------
   0 C :   -0.430097
   1 C :   -0.309250
   2 C :   -0.220335
   3 H :    0.165072
   4 C :   -0.418486
   5 C :    0.012859
   6 O :   -0.670842
   7 H :    0.152874
   8 H :    0.151931
   9 H :    0.153262
  10 H :    0.163871
  11 H :    0.157735
  12 H :    0.158972
  13 H :    0.158036
  14 H :    0.158992
  15 H :    0.165928
  16 H :    0.164698
  17 H :    0.284781

  Mayer bond orders larger than 0.100000
B(  0-C ,  1-C ) :   0.8893 B(  0-C ,  7-H ) :   0.9708 B(  0-C ,  8-H ) :   0.9794
B(  0-C ,  9-H ) :   0.9875 B(  1-C ,  2-C ) :   0.8978 B(  1-C , 10-H ) :   0.9709
B(  1-C , 11-H ) :   0.9583 B(  2-C ,  3-H ) :   0.9688 B(  2-C ,  4-C ) :   0.8883
B(  2-C ,  5-C ) :   0.9264 B(  4-C , 12-H ) :   0.9686 B(  4-C , 13-H ) :   0.9678
B(  4-C , 14-H ) :   0.9840 B(  5-C ,  6-O ) :   0.9155 B(  5-C , 15-H ) :   0.9682
B(  5-C , 16-H ) :   0.9704 B(  6-O , 17-H ) :   0.8747

Dispersion correction           -0.004323049
FINAL SINGLE POINT ENERGY      -272.903695031044

DIPOLE MOMENT
-------------

Method             : SCF
Type of density    : Electron Density
Multiplicity       :   1
Irrep              :   0
Energy             :  -272.9092252209831031 Eh
Relativity type    :
Basis              : AO
                                X                 Y                 Z
Electronic contribution:      4.880145084       1.702746977       0.293762294
Nuclear contribution   :     -4.500782482      -2.274562980      -0.711035877
                        -----------------------------------------
Total Dipole Moment    :      0.379362602      -0.571816003      -0.417273584
                        -----------------------------------------
Magnitude (a.u.)       :      0.803123134
Magnitude (Debye)      :      2.041376777

Rotational constants in cm-1:             0.156882             0.078816             0.057366
Rotational constants in MHz :          4703.216677          2362.844061          1719.783641

                             ****ORCA TERMINATED NORMALLY****
TOTAL RUN TIME: 0 days 0 hours 0 minutes 26 seconds 618 msec
