                         Program Version 6.0.0  -   RELEASE  -
|  1> ! pbe def2-sv(p) def2/J RI DEFGRID1 loosescf d4 GCP(DFT/SV(P)) printgap
|  2> %output
|  3>     printlevel normal
|  4> end
|  5> * xyz 0 1
|  6> C 2.2745707078 0.9418249266 0.8163902749
|  7> C 1.4214465287 -0.313214773 0.6633958862
|  8> C 0.33253055 -0.1720121527 -0.422767025
|  9> H 0.4785042608 0.784420036 -0.9372522258
| 10> C 0.4913020434 -1.2866308932 -1.4587485073
| 11> C -1.0816751268 -0.1562924668 0.1913719111
| 12> C -1.2688237479 1.0595153199 1.1000390079
| 13> C -2.1756875347 -0.1396949925 -0.8774235333
| 14> H 3.0250953097 0.7991651523 1.5909675782
| 15> H 2.7860519705 1.1678458816 -0.1167710563
| 16> H 1.6616955363 1.79828648 1.0863343264
| 17> H 0.9631051525 -0.5568770203 1.6233904091
| 18> H 2.0789627659 -1.1469252714 0.4097097661
| 19> H -0.1568709505 -1.1279740127 -2.3155029787
| 20> H 1.5173380839 -1.3129911265 -1.8192647129
| 21> H 0.2563828491 -2.2528503875 -1.0166171053
| 22> H -1.2031485986 -1.0652457962 0.7927630978
| 23> H -1.1678892246 1.9764637808 0.5228600886
| 24> H -0.5387800445 1.075897763 1.9037076324
| 25> H -2.2605551856 1.0451772315 1.5469346105
| 26> H -2.2086762801 -1.0742810238 -1.4292038462
| 27> H -2.0085672502 0.6758992284 -1.5779628656
| 28> H -3.1471362844 0.0065200256 -0.4101697213
| 29> *
| 30>
| 31>                          ****END OF INPUT****

CARTESIAN COORDINATES (ANGSTROEM)
---------------------------------
  C      2.274571    0.941825    0.816390
  C      1.421447   -0.313215    0.663396
  C      0.332531   -0.172012   -0.422767
  H      0.478504    0.784420   -0.937252
  C      0.491302   -1.286631   -1.458749
  C     -1.081675   -0.156292    0.191372
  C     -1.268824    1.059515    1.100039
  C     -2.175688   -0.139695   -0.877424
  H      3.025095    0.799165    1.590968
  H      2.786052    1.167846   -0.116771
  H      1.661696    1.798286    1.086334
  H      0.963105   -0.556877    1.623390
  H      2.078963   -1.146925    0.409710
  H     -0.156871   -1.127974   -2.315503
  H      1.517338   -1.312991   -1.819265
  H      0.256383   -2.252850   -1.016617
  H     -1.203149   -1.065246    0.792763
  H     -1.167889    1.976464    0.522860
  H     -0.538780    1.075898    1.903708
  H     -2.260555    1.045177    1.546935
  H     -2.208676   -1.074281   -1.429204
  H     -2.008567    0.675899   -1.577963
  H     -3.147136    0.006520   -0.410170

 Total Charge           Charge          ....    0
 Multiplicity           Mult            ....    1
 Number of Electrons    NEL             ....   58
 Basis Dimension        Dim             ....  130

ORBITAL ENERGIES
----------------

  NO   OCC          E(Eh)            E(eV)
   0   2.0000      -9.889491      -269.1067
   1   2.0000      -9.886966      -269.0380
   2   2.0000      -9.876667      -268.7578
   3   2.0000      -9.869720      -268.5687
   4   2.0000      -9.868145      -268.5259
   5   2.0000      -9.867739      -268.5148
   6   2.0000      -9.867638      -268.5121
   7   2.0000      -0.741316       -20.1722
   8   2.0000      -0.682940       -18.5838
   9   2.0000      -0.643796       -17.5186
  10   2.0000      -0.604769       -16.4566
  11   2.0000      -0.561794       -15.2872
  12   2.0000      -0.523156       -14.2358
  13   2.0000      -0.489724       -13.3261
  14   2.0000      -0.415633       -11.3100
  15   2.0000      -0.403830       -10.9888
  16   2.0000      -0.389608       -10.6018
  17   2.0000      -0.374355       -10.1867
  18   2.0000      -0.361502        -9.8370
  19   2.0000      -0.352953        -9.6043
  20   2.0000      -0.338120        -9.2007
  21   2.0000      -0.331538        -9.0216
  22   2.0000      -0.318313        -8.6617
  23   2.0000      -0.308984        -8.4079
  24   2.0000      -0.294725        -8.0199
  25   2.0000      -0.291480        -7.9316
  26   2.0000      -0.272963        -7.4277
  27   2.0000      -0.263800        -7.1784
  28   2.0000      -0.259329        -7.0567
  29   0.0000       0.036960         1.0057
  30   0.0000       0.057721         1.5707
  31   0.0000       0.060269         1.6400
  32   0.0000       0.065252         1.7756
  33   0.0000       0.090084         2.4513

MULLIKEN ATOMIC CHARGES
-----------------------
   0 C :   -0.292417
   1 C :   -0.142422
   2 C :   -0.133233
   3 H :    0.062895
   4 C :   -0.250917
   5 C :   -0.174551
   6 C :   -0.242926
   7 C :   -0.244784
   8 H :    0.098920
   9 H :    0.101345
  10 H :    0.103749
  11 H :    0.086150
  12 H :    0.077048
  13 H :    0.102370
  14 H :    0.099585
  15 H :    0.095767
  16 H :    0.067388
  17 H :    0.091241
  18 H :    0.105776
  19 H :    0.096826
  20 H :    0.105399
  21 H :    0.092315
  22 H :    0.094478
Sum of atomic charges:    0.0000000

LOEWDIN ATOMIC CHARGES
----------------------
   0 C :   -0.339867
   1 C :   -0.224869
   2 C :   -0.142274
   3 H :    0.110942
   4 C :   -0.330480
   5 C :   -0.149039
   6 C :   -0.330155
   7 C :   -0.331147
   8 H :    0.116928
   9 H :    0.116129
  10 H :    0.115187
  11 H :    0.113848
  12 H :    0.114675
  13 H :    0.115654
  14 H :    0.116451
  15 H :    0.116907
  16 H :    0.111664
  17 H :    0.115928
  18 H :    0.116168
  19 H :    0.116797
  20 H :    0.117104
  21 H :    0.116671
  22 H :    0.116778

  Mayer bond orders larger than 0.100000
B(  0-C ,  1-C ) :   1.1571 B(  0-C ,  8-H ) :   0.9505 B(  0-C ,  9-H ) :   0.9533
B(  0-C , 10-H ) :   0.9499 B(  1-C ,  2-C ) :   1.0387 B(  1-C , 11-H ) :   0.9195
B(  1-C , 12-H ) :   0.9254 B(  2-C ,  3-H ) :   0.9035 B(  2-C ,  4-C ) :   1.1236
B(  2-C ,  5-C ) :   1.0574 B(  4-C , 13-H ) :   0.9402 B(  4-C , 14-H ) :   0.9459
B(  4-C , 15-H ) :   0.9466 B(  5-C ,  6-C ) :   1.1162 B(  5-C ,  7-C ) :   1.1152
B(  5-C , 16-H ) :   0.8931 B(  6-C , 17-H ) :   0.9469 B(  6-C , 18-H ) :   0.9400
B(  6-C , 19-H ) :   0.9480 B(  7-C , 20-H ) :   0.9417 B(  7-C , 21-H ) :   0.9475
B(  7-C , 22-H ) :   0.9487

Dispersion correction           -0.019036727
FINAL SINGLE POINT ENERGY      -275.657102484928

DIPOLE MOMENT
-------------

Method             : SCF
Type of density    : Electron Density
Multiplicity       :   1
Irrep              :   0
Energy             :  -275.7346723389971430 Eh
Relativity type    :
Basis              : AO
                                X                 Y                 Z
Electronic contribution:     -0.070292428      -0.764430610       0.149968989
Nuclear contribution   :      0.070842550       0.743521966      -0.137043811
                        -----------------------------------------
Total Dipole Moment    :      0.000550122      -0.020908645       0.012925178
                        -----------------------------------------
Magnitude (a.u.)       :      0.024587279
Magnitude (Debye)      :      0.062495896

Rotational constants in cm-1:             0.108352             0.063219             0.044436
Rotational constants in MHz :          3248.300406          1895.270667          1332.168266

                             ****ORCA TERMINATED NORMALLY****
TOTAL RUN TIME: 0 days 0 hours 0 minutes 9 seconds 714 msec
