                         Program Version 6.0.0  -   RELEASE  -
|  1> ! r2scan-3c def2/J RI DEFGRID2 scfconv6 printgap
|  2> %output
|  3>     printlevel normal
|  4> end
|  5> * xyz 0 1
|  6> C -2.5868048366 0.6938147834 -0.4906609983
|  7> C -1.7406715457 0.1893312042 0.6819205789
|  8> C -0.4304303098 -0.3418535246 0.1604528187
|  9> O -0.1869084529 -1.5148725432 -0.0346250591
| 10> O 0.4204470789 0.6410110054 -0.1016389724
| 11> C 1.7112521331 0.3089648963 -0.6393055977
| 12> C 2.7112749576 0.0326388998 0.4728958992
| 13> H -2.7763094208 -0.1132534337 -1.1944562962
| 14> H -3.5376845906 1.0665875456 -0.1222535603
| 15> H -2.0696097314 1.4969480933 -1.0090357649
| 16> H -2.2577294808 -0.6170915214 1.2004459503
| 17> H -1.5379107651 1.009724969 1.3689890621
| 18> H 1.6048676297 -0.5656418244 -1.2882110008
| 19> H 1.9998349007 1.1830290178 -1.2239998768
| 20> H 3.6896556859 -0.1487270417 0.0401768689
| 21> H 2.7677412212 0.8843382113 1.1453136261
| 22> H 2.4066241598 -0.8455882673 1.0378598504
| 23> *
| 24>
| 25>                          ****END OF INPUT****

CARTESIAN COORDINATES (ANGSTROEM)
---------------------------------
  C     -2.586805    0.693815   -0.490661
  C     -1.740672    0.189331    0.681921
  C     -0.430430   -0.341854    0.160453
  O     -0.186908   -1.514873   -0.034625
  O      0.420447    0.641011   -0.101639
  C      1.711252    0.308965   -0.639306
  C      2.711275    0.032639    0.472896
  H     -2.776309   -0.113253   -1.194456
  H     -3.537685    1.066588   -0.122254
  H     -2.069610    1.496948   -1.009036
  H     -2.257729   -0.617092    1.200446
  H     -1.537911    1.009725    1.368989
  H      1.604868   -0.565642   -1.288211
  H      1.999835    1.183029   -1.224000
  H      3.689656   -0.148727    0.040177
  H      2.767741    0.884338    1.145314
  H      2.406624   -0.845588    1.037860

 Total Charge           Charge          ....    0
 Multiplicity           Mult            ....    1
 Number of Electrons    NEL             ....   56
 Basis Dimension        Dim             ....  193

ORBITAL ENERGIES
----------------

  NO   OCC          E(Eh)            E(eV)
   0   2.0000     -18.996040      -516.9085
   1   2.0000     -18.926852      -515.0258
   2   2.0000     -10.150864      -276.2190
   3   2.0000     -10.091047      -274.5914
   4   2.0000     -10.043019      -273.2844
   5   2.0000     -10.031520      -272.9715
   6   2.0000     -10.028656      -272.8936
   7   2.0000      -1.071101       -29.1461
   8   2.0000      -0.974399       -26.5147
   9   2.0000      -0.766025       -20.8446
  10   2.0000      -0.729680       -19.8556
  11   2.0000      -0.642050       -17.4711
  12   2.0000      -0.598713       -16.2918
  13   2.0000      -0.523833       -14.2542
  14   2.0000      -0.472862       -12.8672
  15   2.0000      -0.450532       -12.2596
  16   2.0000      -0.436254       -11.8711
  17   2.0000      -0.413997       -11.2654
  18   2.0000      -0.407281       -11.0827
  19   2.0000      -0.385541       -10.4911
  20   2.0000      -0.362809        -9.8725
  21   2.0000      -0.356271        -9.6946
  22   2.0000      -0.338083        -9.1997
  23   2.0000      -0.328071        -8.9273
  24   2.0000      -0.326384        -8.8814
  25   2.0000      -0.305658        -8.3174
  26   2.0000      -0.270253        -7.3540
  27   2.0000      -0.232934        -6.3385
  28   0.0000      -0.013998        -0.3809
  29   0.0000       0.074894         2.0380
  30   0.0000       0.091324         2.4851
  31   0.0000       0.121615         3.3093
  32   0.0000       0.122520         3.3340

MULLIKEN ATOMIC CHARGES
-----------------------
   0 C :   -0.473345
   1 C :   -0.295918
   2 C :    0.417994
   3 O :   -0.431442
   4 O :   -0.183578
   5 C :   -0.137257
   6 C :   -0.465045
   7 H :    0.157570
   8 H :    0.153555
   9 H :    0.158428
  10 H :    0.162384
  11 H :    0.152521
  12 H :    0.168324
  13 H :    0.147033
  14 H :    0.146611
  15 H :    0.151072
  16 H :    0.171092
Sum of atomic charges:   -0.0000000

LOEWDIN ATOMIC CHARGES
----------------------
   0 C :   -0.392392
   1 C :   -0.236247
   2 C :    0.356265
   3 O :   -0.432846
   4 O :   -0.597311
   5 C :    0.027322
   6 C :   -0.390012
   7 H :    0.158874
   8 H :    0.152929
   9 H :    0.158516
  10 H :    0.174177
  11 H :    0.174038
  12 H :    0.188602
  13 H :    0.177161
  14 H :    0.159068
  15 H :    0.156930
  16 H :    0.164924

  Mayer bond orders larger than 0.100000
B(  0-C ,  1-C ) :   0.8960 B(  0-C ,  7-H ) :   0.9740 B(  0-C ,  8-H ) :   0.9710
B(  0-C ,  9-H ) :   0.9773 B(  1-C ,  2-C ) :   0.9554 B(  1-C , 10-H ) :   0.9779
B(  1-C , 11-H ) :   0.9698 B(  2-C ,  3-O ) :   1.8413 B(  2-C ,  4-O ) :   1.0413
B(  4-O ,  5-C ) :   0.8180 B(  5-C ,  6-C ) :   0.9395 B(  5-C , 12-H ) :   0.9655
B(  5-C , 13-H ) :   0.9609 B(  6-C , 14-H ) :   0.9658 B(  6-C , 15-H ) :   0.9737
B(  6-C , 16-H ) :   0.9712

Dispersion correction           -0.003997193
FINAL SINGLE POINT ENERGY      -346.935995721720

DIPOLE MOMENT
-------------

Method             : SCF
Type of density    : Electron Density
Multiplicity       :   1
Irrep              :   0
Energy             :  -346.9423855481897476 Eh
Relativity type    :
Basis              : AO
                                X                 Y                 Z
Electronic contribution:     -0.131263315      -2.330087797       0.049500566
Nuclear contribution   :      0.275042755       3.130209723      -0.044398355
                        -----------------------------------------
Total Dipole Moment    :      0.143779440       0.800121926       0.005102211
                        -----------------------------------------
Magnitude (a.u.)       :      0.812953662
Magnitude (Debye)      :      2.066363992

Rotational constants in cm-1:             0.192870             0.049697             0.045120
Rotational constants in MHz :          5782.107885          1489.888520          1352.649031

                             ****ORCA TERMINATED NORMALLY****
TOTAL RUN TIME: 0 days 0 hours 0 minutes 21 seconds 99 msec
