                         Program Version 6.0.0  -   RELEASE  -
|  1> ! r2scan-3c def2/J RI DEFGRID2 scfconv6 printgap
|  2> %output
|  3>     printlevel normal
|  4> end
|  5> %cpcm
|  6>     smd true
|  7>     smdsolvent "water"
|  8> end
|  9> * xyz 0 1
| 10> C -2.5868048366 0.6938147834 -0.4906609983
| 11> C -1.7406715457 0.1893312042 0.6819205789
| 12> C -0.4304303098 -0.3418535246 0.1604528187
| 13> O -0.1869084529 -1.5148725432 -0.0346250591
| 14> O 0.4204470789 0.6410110054 -0.1016389724
| 15> C 1.7112521331 0.3089648963 -0.6393055977
| 16> C 2.7112749576 0.0326388998 0.4728958992
| 17> H -2.7763094208 -0.1132534337 -1.1944562962
| 18> H -3.5376845906 1.0665875456 -0.1222535603
| 19> H -2.0696097314 1.4969480933 -1.0090357649
| 20> H -2.2577294808 -0.6170915214 1.2004459503
| 21> H -1.5379107651 1.009724969 1.3689890621
| 22> H 1.6048676297 -0.5656418244 -1.2882110008
| 23> H 1.9998349007 1.1830290178 -1.2239998768
| 24> H 3.6896556859 -0.1487270417 0.0401768689
| 25> H 2.7677412212 0.8843382113 1.1453136261
| 26> H 2.4066241598 -0.8455882673 1.0378598504
| 27> *
| 28>
| 29>                          ****END OF INPUT****

CARTESIAN COORDINATES (ANGSTROEM)
---------------------------------
  C     -2.586805    0.693815   -0.490661
  C     -1.740672    0.189331    0.681921
  C     -0.430430   -0.341854    0.160453
  O     -0.186908   -1.514873   -0.034625
  O      0.420447    0.641011   -0.101639
  C      1.711252    0.308965   -0.639306
  C      2.711275    0.032639    0.472896
  H     -2.776309   -0.113253   -1.194456
  H     -3.537685    1.066588   -0.122254
  H     -2.069610    1.496948   -1.009036
  H     -2.257729   -0.617092    1.200446
  H     -1.537911    1.009725    1.368989
  H      1.604868   -0.565642   -1.288211
  H      1.999835    1.183029   -1.224000
  H      3.689656   -0.148727    0.040177
  H      2.767741    0.884338    1.145314
  H      2.406624   -0.845588    1.037860

 Total Charge           Charge          ....    0
 Multiplicity           Mult            ....    1
 Number of Electrons    NEL             ....   56
 Basis Dimension        Dim             ....  193

ORBITAL ENERGIES
----------------

  NO   OCC          E(Eh)            E(eV)
   0   2.0000     -19.001829      -517.0661
   1   2.0000     -18.943153      -515.4694
   2   2.0000     -10.161803      -276.5167
   3   2.0000     -10.083209      -274.3781
   4   2.0000     -10.037311      -273.1291
   5   2.0000     -10.022155      -272.7167
   6   2.0000     -10.018234      -272.6100
   7   2.0000      -1.078612       -29.3505
   8   2.0000      -0.988525       -26.8991
   9   2.0000      -0.761916       -20.7328
  10   2.0000      -0.722160       -19.6510
  11   2.0000      -0.636906       -17.3311
  12   2.0000      -0.592532       -16.1236
  13   2.0000      -0.521727       -14.1969
  14   2.0000      -0.471700       -12.8356
  15   2.0000      -0.460033       -12.5181
  16   2.0000      -0.437262       -11.8985
  17   2.0000      -0.411685       -11.2025
  18   2.0000      -0.405223       -11.0267
  19   2.0000      -0.381350       -10.3771
  20   2.0000      -0.355994        -9.6871
  21   2.0000      -0.349893        -9.5211
  22   2.0000      -0.335128        -9.1193
  23   2.0000      -0.326715        -8.8904
  24   2.0000      -0.318369        -8.6633
  25   2.0000      -0.303785        -8.2664
  26   2.0000      -0.277280        -7.5452
  27   2.0000      -0.249100        -6.7783
  28   0.0000      -0.022484        -0.6118
  29   0.0000       0.077914         2.1202
  30   0.0000       0.098497         2.6802
  31   0.0000       0.130598         3.5538
  32   0.0000       0.133064         3.6208

MULLIKEN ATOMIC CHARGES
-----------------------
   0 C :   -0.494557
   1 C :   -0.312073
   2 C :    0.455530
   3 O :   -0.516160
   4 O :   -0.200334
   5 C :   -0.142482
   6 C :   -0.490660
   7 H :    0.164374
   8 H :    0.172839
   9 H :    0.166874
  10 H :    0.173409
  11 H :    0.175932
  12 H :    0.171324
  13 H :    0.173464
  14 H :    0.169960
  15 H :    0.165269
  16 H :    0.167289
Sum of atomic charges:   -0.0000000

LOEWDIN ATOMIC CHARGES
----------------------
   0 C :   -0.393811
   1 C :   -0.233572
   2 C :    0.365497
   3 O :   -0.493511
   4 O :   -0.598449
   5 C :    0.032185
   6 C :   -0.392981
   7 H :    0.160613
   8 H :    0.160311
   9 H :    0.161090
  10 H :    0.178729
  11 H :    0.183899
  12 H :    0.189602
  13 H :    0.188709
  14 H :    0.167697
  15 H :    0.161876
  16 H :    0.162118

  Mayer bond orders larger than 0.100000
B(  0-C ,  1-C ) :   0.8871 B(  0-C ,  7-H ) :   0.9707 B(  0-C ,  8-H ) :   0.9660
B(  0-C ,  9-H ) :   0.9738 B(  1-C ,  2-C ) :   0.9550 B(  1-C , 10-H ) :   0.9740
B(  1-C , 11-H ) :   0.9603 B(  2-C ,  3-O ) :   1.7695 B(  2-C ,  4-O ) :   1.0686
B(  4-O ,  5-C ) :   0.7999 B(  5-C ,  6-C ) :   0.9379 B(  5-C , 12-H ) :   0.9621
B(  5-C , 13-H ) :   0.9516 B(  6-C , 14-H ) :   0.9607 B(  6-C , 15-H ) :   0.9699
B(  6-C , 16-H ) :   0.9689

Dispersion correction           -0.003997193
FINAL SINGLE POINT ENERGY      -346.941073018693

DIPOLE MOMENT
-------------

Method             : SCF
Type of density    : Electron Density
Multiplicity       :   1
Irrep              :   0
Energy             :  -346.9474628451627041 Eh
Relativity type    :
Basis              : AO
                                X                 Y                 Z
Electronic contribution:     -0.098817729      -1.975626769       0.051434216
Nuclear contribution   :      0.275042755       3.130209723      -0.044398355
                        -----------------------------------------
Total Dipole Moment    :      0.176225026       1.154582955       0.007035861
                        -----------------------------------------
Magnitude (a.u.)       :      1.167975412
Magnitude (Debye)      :      2.968757566

Rotational constants in cm-1:             0.192870             0.049697             0.045120
Rotational constants in MHz :          5782.107885          1489.888520          1352.649031

                             ****ORCA TERMINATED NORMALLY****
TOTAL RUN TIME: 0 days 0 hours 0 minutes 26 seconds 736 msec
