                         Program Version 6.0.0  -   RELEASE  -
|  1> ! pbe def2-sv(p) def2/J RI DEFGRID1 loosescf d4 GCP(DFT/SV(P)) printgap
|  2> %output
|  3>     printlevel normal
|  4> end
|  5> * xyz 0 1
|  6> C -1.8679215572 0.8132453166 0.1473331757
|  7> C -1.1674051064 -0.4053893525 -0.4467730982
|  8> C 0.0343492206 -0.8919495027 0.3806304665
|  9> O 1.2978100336 -0.4932389145 -0.1228638673
| 10> C 1.5894783424 0.8817127342 0.0128669124
| 11> H -1.1967955427 1.6647201922 0.2198368469
| 12> H -2.7128579799 1.0961159425 -0.4757503691
| 13> H -2.2392424002 0.5835393925 1.1435657167
| 14> H -0.8170013496 -0.1852290189 -1.4571016009
| 15> H -1.8885429938 -1.2202288717 -0.5202240975
| 16> H -0.0662961043 -0.5614874171 1.4244423797
| 17> H 0.0868243831 -1.982676838 0.3630488914
| 18> H 0.9765546545 1.4916771669 -0.6569587701
| 19> H 2.637237438 0.9932551985 -0.257899362
| 20> H 1.4390987228 1.2115971171 1.0465033025
| 21> *
| 22>
| 23>                          ****END OF INPUT****

CARTESIAN COORDINATES (ANGSTROEM)
---------------------------------
  C     -1.867922    0.813245    0.147333
  C     -1.167405   -0.405389   -0.446773
  C      0.034349   -0.891950    0.380630
  O      1.297810   -0.493239   -0.122864
  C      1.589478    0.881713    0.012867
  H     -1.196796    1.664720    0.219837
  H     -2.712858    1.096116   -0.475750
  H     -2.239242    0.583539    1.143566
  H     -0.817001   -0.185229   -1.457102
  H     -1.888543   -1.220229   -0.520224
  H     -0.066296   -0.561487    1.424442
  H      0.086824   -1.982677    0.363049
  H      0.976555    1.491677   -0.656959
  H      2.637237    0.993255   -0.257899
  H      1.439099    1.211597    1.046503

 Total Charge           Charge          ....    0
 Multiplicity           Mult            ....    1
 Number of Electrons    NEL             ....   42
 Basis Dimension        Dim             ....   90

ORBITAL ENERGIES
----------------

  NO   OCC          E(Eh)            E(eV)
   0   2.0000     -18.745711      -510.0967
   1   2.0000      -9.925176      -270.0778
   2   2.0000      -9.920989      -269.9638
   3   2.0000      -9.884070      -268.9592
   4   2.0000      -9.877068      -268.7687
   5   2.0000      -0.924966       -25.1696
   6   2.0000      -0.701635       -19.0925
   7   2.0000      -0.638451       -17.3731
   8   2.0000      -0.571768       -15.5586
   9   2.0000      -0.519356       -14.1324
  10   2.0000      -0.439282       -11.9535
  11   2.0000      -0.428107       -11.6494
  12   2.0000      -0.403739       -10.9863
  13   2.0000      -0.377727       -10.2785
  14   2.0000      -0.361693        -9.8422
  15   2.0000      -0.350033        -9.5249
  16   2.0000      -0.324822        -8.8389
  17   2.0000      -0.303948        -8.2708
  18   2.0000      -0.293125        -7.9763
  19   2.0000      -0.253368        -6.8945
  20   2.0000      -0.199228        -5.4213
  21   0.0000       0.036789         1.0011
  22   0.0000       0.065567         1.7842
  23   0.0000       0.067375         1.8334
  24   0.0000       0.082248         2.2381
  25   0.0000       0.101645         2.7659

MULLIKEN ATOMIC CHARGES
-----------------------
   0 C :   -0.296889
   1 C :   -0.215487
   2 C :    0.017553
   3 O :   -0.341316
   4 C :   -0.112550
   5 H :    0.104732
   6 H :    0.104986
   7 H :    0.103063
   8 H :    0.101583
   9 H :    0.089487
  10 H :    0.067443
  11 H :    0.086347
  12 H :    0.096335
  13 H :    0.112393
  14 H :    0.082321
Sum of atomic charges:   -0.0000000

LOEWDIN ATOMIC CHARGES
----------------------
   0 C :   -0.344342
   1 C :   -0.260600
   2 C :   -0.110961
   3 O :   -0.182888
   4 C :   -0.209168
   5 H :    0.115342
   6 H :    0.120241
   7 H :    0.117198
   8 H :    0.123545
   9 H :    0.121470
  10 H :    0.093163
  11 H :    0.111877
  12 H :    0.094978
  13 H :    0.114854
  14 H :    0.095290

  Mayer bond orders larger than 0.100000
B(  0-C ,  1-C ) :   1.1476 B(  0-C ,  5-H ) :   0.9544 B(  0-C ,  6-H ) :   0.9519
B(  0-C ,  7-H ) :   0.9528 B(  1-C ,  2-C ) :   1.0731 B(  1-C ,  8-H ) :   0.9237
B(  1-C ,  9-H ) :   0.9252 B(  2-C ,  3-O ) :   1.0496 B(  2-C , 10-H ) :   0.9256
B(  2-C , 11-H ) :   0.9368 B(  3-O ,  4-C ) :   1.0278 B(  4-C , 12-H ) :   0.9355
B(  4-C , 13-H ) :   0.9618 B(  4-C , 14-H ) :   0.9383

Dispersion correction           -0.009456742
FINAL SINGLE POINT ENERGY      -233.079542610907

DIPOLE MOMENT
-------------

Method             : SCF
Type of density    : Electron Density
Multiplicity       :   1
Irrep              :   0
Energy             :  -233.1383482085883259 Eh
Relativity type    :
Basis              : AO
                                X                 Y                 Z
Electronic contribution:      3.206090257      -2.596903050      -0.636371682
Nuclear contribution   :     -3.527928919       2.892812172       0.776349810
                        -----------------------------------------
Total Dipole Moment    :     -0.321838662       0.295909122       0.139978128
                        -----------------------------------------
Magnitude (a.u.)       :      0.459060137
Magnitude (Debye)      :      1.166838139

Rotational constants in cm-1:             0.281930             0.107739             0.088051
Rotational constants in MHz :          8452.060464          3229.932406          2639.701088

                             ****ORCA TERMINATED NORMALLY****
TOTAL RUN TIME: 0 days 0 hours 0 minutes 6 seconds 670 msec
