                         Program Version 6.0.0  -   RELEASE  -
|  1> ! pbe def2-sv(p) def2/J RI DEFGRID1 loosescf d4 GCP(DFT/SV(P)) printgap
|  2> %output
|  3>     printlevel normal
|  4> end
|  5> * xyz 0 1
|  6> C -2.7010956829 -1.1120487735 -0.0037647435
|  7> C -2.3770571705 0.3706589873 -0.1430499151
|  8> C -0.9117959611 0.6543546536 -0.4806751342
|  9> C 0.0697846312 0.2467653692 0.6286107066
| 10> C 0.7288059125 -1.1137898101 0.367400634
| 11> C 1.9352050395 -0.8214177069 -0.542283754
| 12> C 2.1671402167 0.6973802994 -0.4677702968
| 13> C 1.287811737 1.1734384197 0.687842612
| 14> H -3.7656271197 -1.2483662538 0.1737360742
| 15> H -2.435796661 -1.6471073706 -0.913113457
| 16> H -2.1587897409 -1.5510470228 0.8294103661
| 17> H -3.000703107 0.7941594035 -0.9343398191
| 18> H -2.6345580055 0.8837600449 0.7868604421
| 19> H -0.6522141641 0.1426300052 -1.4085631982
| 20> H -0.8171393585 1.7276610472 -0.6621152757
| 21> H -0.4608860911 0.2511831747 1.5846387547
| 22> H 1.070481502 -1.5357606744 1.3139115466
| 23> H 0.0441600916 -1.8251881612 -0.0883364714
| 24> H 2.8127147409 -1.3706046171 -0.2025274468
| 25> H 1.7350034492 -1.1295370127 -1.5681484735
| 26> H 3.2159722241 0.9446723353 -0.3097760125
| 27> H 1.8468267902 1.1749107214 -1.394014023
| 28> H 1.8084308928 1.025732194 1.6358085724
| 29> H 1.0230686444 2.2267319095 0.6046974812
| 30> *
| 31>
| 32>                          ****END OF INPUT****

CARTESIAN COORDINATES (ANGSTROEM)
---------------------------------
  C     -2.701096   -1.112049   -0.003765
  C     -2.377057    0.370659   -0.143050
  C     -0.911796    0.654355   -0.480675
  C      0.069785    0.246765    0.628611
  C      0.728806   -1.113790    0.367401
  C      1.935205   -0.821418   -0.542284
  C      2.167140    0.697380   -0.467770
  C      1.287812    1.173438    0.687843
  H     -3.765627   -1.248366    0.173736
  H     -2.435797   -1.647107   -0.913113
  H     -2.158790   -1.551047    0.829410
  H     -3.000703    0.794159   -0.934340
  H     -2.634558    0.883760    0.786860
  H     -0.652214    0.142630   -1.408563
  H     -0.817139    1.727661   -0.662115
  H     -0.460886    0.251183    1.584639
  H      1.070482   -1.535761    1.313912
  H      0.044160   -1.825188   -0.088336
  H      2.812715   -1.370605   -0.202527
  H      1.735003   -1.129537   -1.568148
  H      3.215972    0.944672   -0.309776
  H      1.846827    1.174911   -1.394014
  H      1.808431    1.025732    1.635809
  H      1.023069    2.226732    0.604697

 Total Charge           Charge          ....    0
 Multiplicity           Mult            ....    1
 Number of Electrons    NEL             ....   64
 Basis Dimension        Dim             ....  144

ORBITAL ENERGIES
----------------

  NO   OCC          E(Eh)            E(eV)
   0   2.0000      -9.883231      -268.9364
   1   2.0000      -9.880513      -268.8624
   2   2.0000      -9.876227      -268.7458
   3   2.0000      -9.874450      -268.6974
   4   2.0000      -9.874093      -268.6877
   5   2.0000      -9.873690      -268.6768
   6   2.0000      -9.873356      -268.6677
   7   2.0000      -9.869781      -268.5704
   8   2.0000      -0.759536       -20.6680
   9   2.0000      -0.702095       -19.1050
  10   2.0000      -0.639611       -17.4047
  11   2.0000      -0.628764       -17.1095
  12   2.0000      -0.591717       -16.1014
  13   2.0000      -0.520796       -14.1716
  14   2.0000      -0.493673       -13.4335
  15   2.0000      -0.479950       -13.0601
  16   2.0000      -0.434511       -11.8236
  17   2.0000      -0.421660       -11.4739
  18   2.0000      -0.400536       -10.8991
  19   2.0000      -0.390982       -10.6392
  20   2.0000      -0.361300        -9.8315
  21   2.0000      -0.356333        -9.6963
  22   2.0000      -0.343138        -9.3373
  23   2.0000      -0.313759        -8.5378
  24   2.0000      -0.302399        -8.2287
  25   2.0000      -0.293897        -7.9973
  26   2.0000      -0.290932        -7.9167
  27   2.0000      -0.288371        -7.8470
  28   2.0000      -0.277428        -7.5492
  29   2.0000      -0.270294        -7.3551
  30   2.0000      -0.261858        -7.1255
  31   2.0000      -0.258930        -7.0458
  32   0.0000       0.028865         0.7855
  33   0.0000       0.041125         1.1191
  34   0.0000       0.055716         1.5161
  35   0.0000       0.070338         1.9140
  36   0.0000       0.083185         2.2636

MULLIKEN ATOMIC CHARGES
-----------------------
   0 C :   -0.291320
   1 C :   -0.180176
   2 C :   -0.118555
   3 C :   -0.202885
   4 C :   -0.122248
   5 C :   -0.152996
   6 C :   -0.161035
   7 C :   -0.126303
   8 H :    0.101256
   9 H :    0.099279
  10 H :    0.115366
  11 H :    0.081933
  12 H :    0.085158
  13 H :    0.078338
  14 H :    0.076896
  15 H :    0.068646
  16 H :    0.073904
  17 H :    0.086251
  18 H :    0.080545
  19 H :    0.080642
  20 H :    0.083985
  21 H :    0.082734
  22 H :    0.075748
  23 H :    0.084836
Sum of atomic charges:    0.0000000

LOEWDIN ATOMIC CHARGES
----------------------
   0 C :   -0.344393
   1 C :   -0.229994
   2 C :   -0.217695
   3 C :   -0.147881
   4 C :   -0.222118
   5 C :   -0.231659
   6 C :   -0.230645
   7 C :   -0.218009
   8 H :    0.118561
   9 H :    0.115752
  10 H :    0.118055
  11 H :    0.114015
  12 H :    0.113171
  13 H :    0.113898
  14 H :    0.114215
  15 H :    0.111657
  16 H :    0.115460
  17 H :    0.115127
  18 H :    0.118250
  19 H :    0.116310
  20 H :    0.116437
  21 H :    0.115798
  22 H :    0.113374
  23 H :    0.112315

  Mayer bond orders larger than 0.100000
B(  0-C ,  1-C ) :   1.1571 B(  0-C ,  8-H ) :   0.9498 B(  0-C ,  9-H ) :   0.9503
B(  0-C , 10-H ) :   0.9463 B(  1-C ,  2-C ) :   1.1414 B(  1-C , 11-H ) :   0.9254
B(  1-C , 12-H ) :   0.9252 B(  2-C ,  3-C ) :   1.0435 B(  2-C , 13-H ) :   0.9166
B(  2-C , 14-H ) :   0.9184 B(  3-C ,  4-C ) :   1.0944 B(  3-C ,  7-C ) :   1.0757
B(  3-C , 15-H ) :   0.9082 B(  4-C ,  5-C ) :   1.1555 B(  4-C , 16-H ) :   0.9141
B(  4-C , 17-H ) :   0.9181 B(  5-C ,  6-C ) :   1.1598 B(  5-C , 18-H ) :   0.9228
B(  5-C , 19-H ) :   0.9231 B(  6-C ,  7-C ) :   1.1435 B(  6-C , 20-H ) :   0.9268
B(  6-C , 21-H ) :   0.9184 B(  7-C , 22-H ) :   0.9213 B(  7-C , 23-H ) :   0.9229

Dispersion correction           -0.021512341
FINAL SINGLE POINT ENERGY      -313.689559736038

DIPOLE MOMENT
-------------

Method             : SCF
Type of density    : Electron Density
Multiplicity       :   1
Irrep              :   0
Energy             :  -313.7703350506304787 Eh
Relativity type    :
Basis              : AO
                                X                 Y                 Z
Electronic contribution:      2.194594280       1.073447213       0.529657426
Nuclear contribution   :     -2.222560696      -1.065912960      -0.517744918
                        -----------------------------------------
Total Dipole Moment    :     -0.027966416       0.007534252       0.011912508
                        -----------------------------------------
Magnitude (a.u.)       :      0.031317618
Magnitude (Debye)      :      0.079603059

Rotational constants in cm-1:             0.128869             0.041274             0.036443
Rotational constants in MHz :          3863.405079          1237.360170          1092.539149

                             ****ORCA TERMINATED NORMALLY****
TOTAL RUN TIME: 0 days 0 hours 0 minutes 10 seconds 872 msec
