                         Program Version 6.0.0  -   RELEASE  -
|  1> ! r2scan-3c def2/J RI DEFGRID2 scfconv6 printgap
|  2> %output
|  3>     printlevel normal
|  4> end
|  5> %cpcm
|  6>     smd true
|  7>     smdsolvent "water"
|  8> end
|  9> * xyz 0 1
| 10> C 2.3469037378 0.3082398245 0.1214309082
| 11> C 0.882812626 0.7275532334 0.0840397993
| 12> C -0.0495211641 -0.4379097842 -0.1202373137
| 13> O 0.3337583424 -1.5924489593 -0.0945691955
| 14> C -1.4975327464 -0.1063211657 -0.3949344768
| 15> C -2.0574192555 1.0864061892 0.3737978912
| 16> H 2.9837174429 1.1682456937 0.307051909
| 17> H 2.5066903078 -0.4271997177 0.9063202914
| 18> H 2.6343112593 -0.1468020768 -0.823522144
| 19> H 0.6079229096 1.2019085649 1.028651526
| 20> H 0.7095784667 1.4541892795 -0.7110130003
| 21> H -2.0873197479 -1.002930327 -0.1930389064
| 22> H -1.5646347889 0.0894863384 -1.4691606021
| 23> H -1.5603937167 2.0096041142 0.0926009886
| 24> H -1.9453775605 0.9375087205 1.4448419958
| 25> H -3.1167159977 1.1902541315 0.1546138789
| 26> *
| 27>
| 28>                          ****END OF INPUT****

CARTESIAN COORDINATES (ANGSTROEM)
---------------------------------
  C      2.346904    0.308240    0.121431
  C      0.882813    0.727553    0.084040
  C     -0.049521   -0.437910   -0.120237
  O      0.333758   -1.592449   -0.094569
  C     -1.497533   -0.106321   -0.394934
  C     -2.057419    1.086406    0.373798
  H      2.983717    1.168246    0.307052
  H      2.506690   -0.427200    0.906320
  H      2.634311   -0.146802   -0.823522
  H      0.607923    1.201909    1.028652
  H      0.709578    1.454189   -0.711013
  H     -2.087320   -1.002930   -0.193039
  H     -1.564635    0.089486   -1.469161
  H     -1.560394    2.009604    0.092601
  H     -1.945378    0.937509    1.444842
  H     -3.116716    1.190254    0.154614

 Total Charge           Charge          ....    0
 Multiplicity           Mult            ....    1
 Number of Electrons    NEL             ....   48
 Basis Dimension        Dim             ....  169

ORBITAL ENERGIES
----------------

  NO   OCC          E(Eh)            E(eV)
   0   2.0000     -18.945138      -515.5234
   1   2.0000     -10.121020      -275.4070
   2   2.0000     -10.030092      -272.9327
   3   2.0000     -10.029889      -272.9271
   4   2.0000     -10.017261      -272.5835
   5   2.0000     -10.013580      -272.4834
   6   2.0000      -1.013324       -27.5739
   7   2.0000      -0.758989       -20.6531
   8   2.0000      -0.724020       -19.7016
   9   2.0000      -0.626385       -17.0448
  10   2.0000      -0.590753       -16.0752
  11   2.0000      -0.486493       -13.2382
  12   2.0000      -0.444042       -12.0830
  13   2.0000      -0.432402       -11.7663
  14   2.0000      -0.420711       -11.4481
  15   2.0000      -0.401547       -10.9266
  16   2.0000      -0.363166        -9.8822
  17   2.0000      -0.347375        -9.4526
  18   2.0000      -0.344780        -9.3819
  19   2.0000      -0.324904        -8.8411
  20   2.0000      -0.320187        -8.7127
  21   2.0000      -0.311216        -8.4686
  22   2.0000      -0.305676        -8.3179
  23   2.0000      -0.221310        -6.0221
  24   0.0000      -0.045161        -1.2289
  25   0.0000       0.090292         2.4570
  26   0.0000       0.112717         3.0672
  27   0.0000       0.133262         3.6262
  28   0.0000       0.147408         4.0112

MULLIKEN ATOMIC CHARGES
-----------------------
   0 C :   -0.547837
   1 C :   -0.244098
   2 C :    0.317657
   3 O :   -0.464195
   4 C :   -0.299987
   5 C :   -0.501221
   6 H :    0.162599
   7 H :    0.162474
   8 H :    0.165003
   9 H :    0.193758
  10 H :    0.189606
  11 H :    0.173161
  12 H :    0.191749
  13 H :    0.165314
  14 H :    0.170594
  15 H :    0.165423
Sum of atomic charges:    0.0000000

LOEWDIN ATOMIC CHARGES
----------------------
   0 C :   -0.414065
   1 C :   -0.282981
   2 C :    0.243933
   3 O :   -0.548655
   4 C :   -0.281108
   5 C :   -0.415597
   6 H :    0.156611
   7 H :    0.160565
   8 H :    0.159588
   9 H :    0.191903
  10 H :    0.186085
  11 H :    0.176840
  12 H :    0.190573
  13 H :    0.158707
  14 H :    0.158457
  15 H :    0.159144

  Mayer bond orders larger than 0.100000
B(  0-C ,  1-C ) :   0.8823 B(  0-C ,  6-H ) :   0.9680 B(  0-C ,  7-H ) :   0.9790
B(  0-C ,  8-H ) :   0.9817 B(  1-C ,  2-C ) :   0.9324 B(  1-C ,  9-H ) :   0.9088
B(  1-C , 10-H ) :   0.9351 B(  2-C ,  3-O ) :   1.8412 B(  2-C ,  4-C ) :   0.9529
B(  4-C ,  5-C ) :   0.8608 B(  4-C , 11-H ) :   0.9901 B(  4-C , 12-H ) :   0.9291
B(  5-C , 13-H ) :   0.9607 B(  5-C , 14-H ) :   0.9826 B(  5-C , 15-H ) :   0.9629

Dispersion correction           -0.003739535
FINAL SINGLE POINT ENERGY      -271.710191995786

DIPOLE MOMENT
-------------

Method             : SCF
Type of density    : Electron Density
Multiplicity       :   1
Irrep              :   0
Energy             :  -271.7138582721518105 Eh
Relativity type    :
Basis              : AO
                                X                 Y                 Z
Electronic contribution:      0.212090352      -4.378410080      -0.741357502
Nuclear contribution   :     -0.775803543       6.050293617       0.690351166
                        -----------------------------------------
Total Dipole Moment    :     -0.563713191       1.671883537      -0.051006336
                        -----------------------------------------
Magnitude (a.u.)       :      1.765097382
Magnitude (Debye)      :      4.486520996

Rotational constants in cm-1:             0.196333             0.078867             0.060064
Rotational constants in MHz :          5885.929462          2364.365721          1800.685847

                             ****ORCA TERMINATED NORMALLY****
TOTAL RUN TIME: 0 days 0 hours 0 minutes 18 seconds 956 msec
