                         Program Version 6.0.0  -   RELEASE  -
|  1> ! pbe def2-sv(p) def2/J RI DEFGRID1 loosescf d4 GCP(DFT/SV(P)) printgap
|  2> %output
|  3>     printlevel normal
|  4> end
|  5> * xyz 0 1
|  6> C -1.6526572663 -0.623690832 1.3049291961
|  7> C -1.2179833813 -0.474380292 -0.1517285391
|  8> C -2.3925878596 0.0297322812 -0.9936033292
|  9> C 0.0319137545 0.4169362583 -0.3285208844
| 10> C -0.1817530984 1.8136268458 0.2613678752
| 11> C 1.3159745029 -0.2209378871 0.2467923388
| 12> C 1.5724815389 -1.6234665031 -0.3088699354
| 13> C 2.5383730423 0.6505715837 -0.0529858694
| 14> H -2.4910697487 -1.3140206444 1.3705885269
| 15> H -0.8445747733 -1.0150325632 1.9170631068
| 16> H -1.9690242447 0.3315478715 1.7149400759
| 17> H -0.9679395676 -1.4676139754 -0.5349759567
| 18> H -2.7896415872 0.9646896291 -0.6067871583
| 19> H -3.1967760343 -0.7027241307 -0.9813659862
| 20> H -2.0876342414 0.184678021 -2.0261127712
| 21> H 0.184113919 0.5264657565 -1.4098562791
| 22> H -1.1635627611 2.1968190236 0.0004898498
| 23> H 0.553685956 2.5118154793 -0.1275850198
| 24> H -0.0950523438 1.7913168106 1.3449955971
| 25> H 1.2137444598 -0.2935458823 1.3348417156
| 26> H 2.5585416654 -1.9672358577 -0.0040481716
| 27> H 0.8459729269 -2.3424732465 0.0586726712
| 28> H 1.5365183275 -1.6136779327 -1.3962854658
| 29> H 2.4786541133 1.6099273489 0.4514507342
| 30> H 2.6265422928 0.8236272854 -1.1236462351
| 31> H 3.4435109995 0.1521115126 0.2871699067
| 32> *
| 33>
| 34>                          ****END OF INPUT****

CARTESIAN COORDINATES (ANGSTROEM)
---------------------------------
  C     -1.652657   -0.623691    1.304929
  C     -1.217983   -0.474380   -0.151729
  C     -2.392588    0.029732   -0.993603
  C      0.031914    0.416936   -0.328521
  C     -0.181753    1.813627    0.261368
  C      1.315975   -0.220938    0.246792
  C      1.572482   -1.623467   -0.308870
  C      2.538373    0.650572   -0.052986
  H     -2.491070   -1.314021    1.370589
  H     -0.844575   -1.015033    1.917063
  H     -1.969024    0.331548    1.714940
  H     -0.967940   -1.467614   -0.534976
  H     -2.789642    0.964690   -0.606787
  H     -3.196776   -0.702724   -0.981366
  H     -2.087634    0.184678   -2.026113
  H      0.184114    0.526466   -1.409856
  H     -1.163563    2.196819    0.000490
  H      0.553686    2.511815   -0.127585
  H     -0.095052    1.791317    1.344996
  H      1.213744   -0.293546    1.334842
  H      2.558542   -1.967236   -0.004048
  H      0.845973   -2.342473    0.058673
  H      1.536518   -1.613678   -1.396285
  H      2.478654    1.609927    0.451451
  H      2.626542    0.823627   -1.123646
  H      3.443511    0.152112    0.287170

 Total Charge           Charge          ....    0
 Multiplicity           Mult            ....    1
 Number of Electrons    NEL             ....   66
 Basis Dimension        Dim             ....  148

ORBITAL ENERGIES
----------------

  NO   OCC          E(Eh)            E(eV)
   0   2.0000      -9.889039      -269.0944
   1   2.0000      -9.887273      -269.0464
   2   2.0000      -9.887065      -269.0407
   3   2.0000      -9.868085      -268.5243
   4   2.0000      -9.867989      -268.5216
   5   2.0000      -9.867600      -268.5110
   6   2.0000      -9.867524      -268.5090
   7   2.0000      -9.866785      -268.4889
   8   2.0000      -0.746476       -20.3127
   9   2.0000      -0.696849       -18.9622
  10   2.0000      -0.645215       -17.5572
  11   2.0000      -0.606884       -16.5142
  12   2.0000      -0.604702       -16.4548
  13   2.0000      -0.562672       -15.3111
  14   2.0000      -0.510065       -13.8796
  15   2.0000      -0.471708       -12.8358
  16   2.0000      -0.427336       -11.6284
  17   2.0000      -0.404437       -11.0053
  18   2.0000      -0.392385       -10.6773
  19   2.0000      -0.384253       -10.4560
  20   2.0000      -0.363123        -9.8811
  21   2.0000      -0.354659        -9.6508
  22   2.0000      -0.345786        -9.4093
  23   2.0000      -0.337529        -9.1846
  24   2.0000      -0.330865        -9.0033
  25   2.0000      -0.323144        -8.7932
  26   2.0000      -0.311391        -8.4734
  27   2.0000      -0.300677        -8.1818
  28   2.0000      -0.295323        -8.0362
  29   2.0000      -0.286250        -7.7893
  30   2.0000      -0.269104        -7.3227
  31   2.0000      -0.259194        -7.0530
  32   2.0000      -0.255874        -6.9627
  33   0.0000       0.031052         0.8450
  34   0.0000       0.055462         1.5092
  35   0.0000       0.058449         1.5905
  36   0.0000       0.066855         1.8192
  37   0.0000       0.087279         2.3750

MULLIKEN ATOMIC CHARGES
-----------------------
   0 C :   -0.259625
   1 C :   -0.154083
   2 C :   -0.240801
   3 C :   -0.108522
   4 C :   -0.257248
   5 C :   -0.160888
   6 C :   -0.247634
   7 C :   -0.242646
   8 H :    0.096060
   9 H :    0.104895
  10 H :    0.098316
  11 H :    0.070575
  12 H :    0.099330
  13 H :    0.094518
  14 H :    0.093992
  15 H :    0.053943
  16 H :    0.098648
  17 H :    0.104480
  18 H :    0.099731
  19 H :    0.070810
  20 H :    0.094154
  21 H :    0.111075
  22 H :    0.092099
  23 H :    0.103675
  24 H :    0.090192
  25 H :    0.094953
Sum of atomic charges:   -0.0000000

LOEWDIN ATOMIC CHARGES
----------------------
   0 C :   -0.330654
   1 C :   -0.152774
   2 C :   -0.328602
   3 C :   -0.134147
   4 C :   -0.332704
   5 C :   -0.150443
   6 C :   -0.331642
   7 C :   -0.328809
   8 H :    0.118367
   9 H :    0.116103
  10 H :    0.117358
  11 H :    0.115018
  12 H :    0.113890
  13 H :    0.117483
  14 H :    0.115610
  15 H :    0.110130
  16 H :    0.117007
  17 H :    0.119562
  18 H :    0.117948
  19 H :    0.111978
  20 H :    0.116968
  21 H :    0.116604
  22 H :    0.117130
  23 H :    0.116723
  24 H :    0.116019
  25 H :    0.115878

  Mayer bond orders larger than 0.100000
B(  0-C ,  1-C ) :   1.1045 B(  0-C ,  8-H ) :   0.9493 B(  0-C ,  9-H ) :   0.9456
B(  0-C , 10-H ) :   0.9433 B(  1-C ,  2-C ) :   1.1151 B(  1-C ,  3-C ) :   1.0543
B(  1-C , 11-H ) :   0.8874 B(  2-C , 12-H ) :   0.9418 B(  2-C , 13-H ) :   0.9481
B(  2-C , 14-H ) :   0.9485 B(  3-C ,  4-C ) :   1.1034 B(  3-C ,  5-C ) :   1.0471
B(  3-C , 15-H ) :   0.8857 B(  4-C , 16-H ) :   0.9429 B(  4-C , 17-H ) :   0.9396
B(  4-C , 18-H ) :   0.9414 B(  5-C ,  6-C ) :   1.1177 B(  5-C ,  7-C ) :   1.1154
B(  5-C , 19-H ) :   0.8877 B(  6-C , 20-H ) :   0.9466 B(  6-C , 21-H ) :   0.9386
B(  6-C , 22-H ) :   0.9475 B(  7-C , 23-H ) :   0.9430 B(  7-C , 24-H ) :   0.9485
B(  7-C , 25-H ) :   0.9482

Dispersion correction           -0.023486885
FINAL SINGLE POINT ENERGY      -314.871314480665

DIPOLE MOMENT
-------------

Method             : SCF
Type of density    : Electron Density
Multiplicity       :   1
Irrep              :   0
Energy             :  -314.9583687393226228 Eh
Relativity type    :
Basis              : AO
                                X                 Y                 Z
Electronic contribution:      0.163431146      -0.387168869      -0.240455055
Nuclear contribution   :     -0.153849729       0.353381570       0.252880662
                        -----------------------------------------
Total Dipole Moment    :      0.009581418      -0.033787300       0.012425607
                        -----------------------------------------
Magnitude (a.u.)       :      0.037252931
Magnitude (Debye)      :      0.094689426

Rotational constants in cm-1:             0.092040             0.044343             0.038046
Rotational constants in MHz :          2759.289732          1329.379353          1140.588885

                             ****ORCA TERMINATED NORMALLY****
TOTAL RUN TIME: 0 days 0 hours 0 minutes 11 seconds 814 msec
