                         Program Version 6.0.0  -   RELEASE  -
|  1> ! r2scan-3c def2/J RI DEFGRID2 scfconv6 printgap
|  2> %output
|  3>     printlevel normal
|  4> end
|  5> * xyz 0 1
|  6> C -2.6985312794 -0.9381177606 -0.8085606648
|  7> C -1.8935024814 -0.2412197609 0.2865448805
|  8> C -2.8371649176 0.5282861741 1.2098681173
|  9> C -0.8502802607 0.7104931899 -0.3152228696
| 10> C 0.3665290453 0.0011559181 -0.9274713027
| 11> C 1.651350435 -0.0016757274 -0.0758828469
| 12> C 2.6982547493 -0.850111126 -0.8078136531
| 13> C 2.2012157902 1.4187204027 0.0798652116
| 14> C 1.4044584532 -0.611715592 1.3050632278
| 15> H -2.0475122234 -1.4785076822 -1.4910834358
| 16> H -3.263392352 -0.2068618388 -1.38339834
| 17> H -3.3991734622 -1.6471978552 -0.373250597
| 18> H -1.3782558401 -1.0038020257 0.8782720673
| 19> H -3.3414465731 1.3203130645 0.659881419
| 20> H -3.5922600883 -0.1356759734 1.6243205205
| 21> H -2.2889288501 0.9789251351 2.0344246222
| 22> H -1.3446093392 1.3092080143 -1.0834979469
| 23> H -0.5203247599 1.4031647884 0.4591687933
| 24> H 0.610347489 0.4711040226 -1.8828355657
| 25> H 0.1026124996 -1.0362061161 -1.1417528483
| 26> H 2.8951162598 -0.4458290236 -1.798323075
| 27> H 3.633275632 -0.8642739952 -0.2524042279
| 28> H 2.3521482442 -1.8753686953 -0.9193912468
| 29> H 3.1398357829 1.3996666356 0.6292614058
| 30> H 2.3836861287 1.8652557631 -0.8950232643
| 31> H 1.5077634627 2.0557043902 0.6225093248
| 32> H 0.6898626073 -0.022369552 1.8727237899
| 33> H 2.334625032 -0.6499836461 1.8682524374
| 34> H 1.0221953544 -1.6257390563 1.2110076706
| 35> *
| 36>
| 37>                          ****END OF INPUT****

CARTESIAN COORDINATES (ANGSTROEM)
---------------------------------
  C     -2.698531   -0.938118   -0.808561
  C     -1.893502   -0.241220    0.286545
  C     -2.837165    0.528286    1.209868
  C     -0.850280    0.710493   -0.315223
  C      0.366529    0.001156   -0.927471
  C      1.651350   -0.001676   -0.075883
  C      2.698255   -0.850111   -0.807814
  C      2.201216    1.418720    0.079865
  C      1.404458   -0.611716    1.305063
  H     -2.047512   -1.478508   -1.491083
  H     -3.263392   -0.206862   -1.383398
  H     -3.399173   -1.647198   -0.373251
  H     -1.378256   -1.003802    0.878272
  H     -3.341447    1.320313    0.659881
  H     -3.592260   -0.135676    1.624321
  H     -2.288929    0.978925    2.034425
  H     -1.344609    1.309208   -1.083498
  H     -0.520325    1.403165    0.459169
  H      0.610347    0.471104   -1.882836
  H      0.102612   -1.036206   -1.141753
  H      2.895116   -0.445829   -1.798323
  H      3.633276   -0.864274   -0.252404
  H      2.352148   -1.875369   -0.919391
  H      3.139836    1.399667    0.629261
  H      2.383686    1.865256   -0.895023
  H      1.507763    2.055704    0.622509
  H      0.689863   -0.022370    1.872724
  H      2.334625   -0.649984    1.868252
  H      1.022195   -1.625739    1.211008

 Total Charge           Charge          ....    0
 Multiplicity           Mult            ....    1
 Number of Electrons    NEL             ....   74
 Basis Dimension        Dim             ....  271

ORBITAL ENERGIES
----------------

  NO   OCC          E(Eh)            E(eV)
   0   2.0000     -10.039092      -273.1776
   1   2.0000     -10.029066      -272.9048
   2   2.0000     -10.018229      -272.6099
   3   2.0000     -10.017977      -272.6030
   4   2.0000     -10.012313      -272.4489
   5   2.0000     -10.012224      -272.4465
   6   2.0000     -10.012154      -272.4446
   7   2.0000     -10.011738      -272.4332
   8   2.0000     -10.011566      -272.4286
   9   2.0000      -0.795480       -21.6461
  10   2.0000      -0.765381       -20.8271
  11   2.0000      -0.685636       -18.6571
  12   2.0000      -0.650203       -17.6929
  13   2.0000      -0.649629       -17.6773
  14   2.0000      -0.646464       -17.5912
  15   2.0000      -0.593319       -16.1450
  16   2.0000      -0.524732       -14.2787
  17   2.0000      -0.493697       -13.4342
  18   2.0000      -0.439974       -11.9723
  19   2.0000      -0.425655       -11.5827
  20   2.0000      -0.418755       -11.3949
  21   2.0000      -0.403341       -10.9755
  22   2.0000      -0.396254       -10.7826
  23   2.0000      -0.378223       -10.2920
  24   2.0000      -0.368928       -10.0390
  25   2.0000      -0.358472        -9.7545
  26   2.0000      -0.351749        -9.5716
  27   2.0000      -0.342123        -9.3096
  28   2.0000      -0.330857        -9.0031
  29   2.0000      -0.325103        -8.8465
  30   2.0000      -0.323808        -8.8113
  31   2.0000      -0.302558        -8.2330
  32   2.0000      -0.298010        -8.1093
  33   2.0000      -0.290723        -7.9110
  34   2.0000      -0.277371        -7.5476
  35   2.0000      -0.272615        -7.4182
  36   2.0000      -0.270348        -7.3566
  37   0.0000       0.074980         2.0403
  38   0.0000       0.090268         2.4563
  39   0.0000       0.103917         2.8277
  40   0.0000       0.114900         3.1266
  41   0.0000       0.115790         3.1508

MULLIKEN ATOMIC CHARGES
-----------------------
   0 C :   -0.501062
   1 C :   -0.042708
   2 C :   -0.481537
   3 C :   -0.290284
   4 C :   -0.320353
   5 C :    0.124704
   6 C :   -0.488285
   7 C :   -0.498635
   8 C :   -0.525977
   9 H :    0.141735
  10 H :    0.149534
  11 H :    0.146960
  12 H :    0.152816
  13 H :    0.146063
  14 H :    0.146414
  15 H :    0.145660
  16 H :    0.151879
  17 H :    0.145619
  18 H :    0.159611
  19 H :    0.150544
  20 H :    0.151155
  21 H :    0.154671
  22 H :    0.152943
  23 H :    0.152674
  24 H :    0.153622
  25 H :    0.150262
  26 H :    0.161773
  27 H :    0.152072
  28 H :    0.158132
Sum of atomic charges:    0.0000000

LOEWDIN ATOMIC CHARGES
----------------------
   0 C :   -0.416870
   1 C :   -0.249961
   2 C :   -0.418239
   3 C :   -0.302278
   4 C :   -0.292572
   5 C :   -0.212030
   6 C :   -0.409522
   7 C :   -0.407279
   8 C :   -0.409311
   9 H :    0.151783
  10 H :    0.152926
  11 H :    0.152341
  12 H :    0.156692
  13 H :    0.153982
  14 H :    0.152178
  15 H :    0.151396
  16 H :    0.160272
  17 H :    0.159142
  18 H :    0.161156
  19 H :    0.162545
  20 H :    0.156485
  21 H :    0.155048
  22 H :    0.155483
  23 H :    0.156160
  24 H :    0.156888
  25 H :    0.153659
  26 H :    0.157002
  27 H :    0.156404
  28 H :    0.156520

  Mayer bond orders larger than 0.100000
B(  0-C ,  1-C ) :   0.9228 B(  0-C ,  9-H ) :   0.9692 B(  0-C , 10-H ) :   0.9904
B(  0-C , 11-H ) :   0.9747 B(  1-C ,  2-C ) :   0.8943 B(  1-C ,  3-C ) :   0.8728
B(  1-C , 12-H ) :   0.9611 B(  2-C , 13-H ) :   0.9811 B(  2-C , 14-H ) :   0.9787
B(  2-C , 15-H ) :   0.9830 B(  3-C ,  4-C ) :   0.8322 B(  3-C , 16-H ) :   0.9726
B(  3-C , 17-H ) :   0.9909 B(  4-C ,  5-C ) :   0.8979 B(  4-C , 18-H ) :   0.9793
B(  4-C , 19-H ) :   0.9898 B(  5-C ,  6-C ) :   0.9359 B(  5-C ,  7-C ) :   0.9477
B(  5-C ,  8-C ) :   0.9017 B(  6-C , 20-H ) :   0.9737 B(  6-C , 21-H ) :   0.9802
B(  6-C , 22-H ) :   0.9800 B(  7-C , 23-H ) :   0.9753 B(  7-C , 24-H ) :   0.9771
B(  7-C , 25-H ) :   0.9685 B(  8-C , 26-H ) :   0.9698 B(  8-C , 27-H ) :   0.9714
B(  8-C , 28-H ) :   0.9780

Dispersion correction           -0.009160650
FINAL SINGLE POINT ENERGY      -354.887054036057

DIPOLE MOMENT
-------------

Method             : SCF
Type of density    : Electron Density
Multiplicity       :   1
Irrep              :   0
Energy             :  -354.8920835168064514 Eh
Relativity type    :
Basis              : AO
                                X                 Y                 Z
Electronic contribution:      0.492880644       0.165698049      -0.598664012
Nuclear contribution   :     -0.473241637      -0.176818773       0.599355449
                        -----------------------------------------
Total Dipole Moment    :      0.019639007      -0.011120724       0.000691437
                        -----------------------------------------
Magnitude (a.u.)       :      0.022579619
Magnitude (Debye)      :      0.057392830

Rotational constants in cm-1:             0.090643             0.026803             0.025277
Rotational constants in MHz :          2717.420733           803.528943           757.798060

                             ****ORCA TERMINATED NORMALLY****
TOTAL RUN TIME: 0 days 0 hours 0 minutes 34 seconds 65 msec
