                         Program Version 6.0.0  -   RELEASE  -
|  1> ! r2scan-3c def2/J RI DEFGRID2 scfconv6 printgap
|  2> %output
|  3>     printlevel normal
|  4> end
|  5> %cpcm
|  6>     smd true
|  7>     smdsolvent "water"
|  8> end
|  9> * xyz 0 1
| 10> C -2.6985312794 -0.9381177606 -0.8085606648
| 11> C -1.8935024814 -0.2412197609 0.2865448805
| 12> C -2.8371649176 0.5282861741 1.2098681173
| 13> C -0.8502802607 0.7104931899 -0.3152228696
| 14> C 0.3665290453 0.0011559181 -0.9274713027
| 15> C 1.651350435 -0.0016757274 -0.0758828469
| 16> C 2.6982547493 -0.850111126 -0.8078136531
| 17> C 2.2012157902 1.4187204027 0.0798652116
| 18> C 1.4044584532 -0.611715592 1.3050632278
| 19> H -2.0475122234 -1.4785076822 -1.4910834358
| 20> H -3.263392352 -0.2068618388 -1.38339834
| 21> H -3.3991734622 -1.6471978552 -0.373250597
| 22> H -1.3782558401 -1.0038020257 0.8782720673
| 23> H -3.3414465731 1.3203130645 0.659881419
| 24> H -3.5922600883 -0.1356759734 1.6243205205
| 25> H -2.2889288501 0.9789251351 2.0344246222
| 26> H -1.3446093392 1.3092080143 -1.0834979469
| 27> H -0.5203247599 1.4031647884 0.4591687933
| 28> H 0.610347489 0.4711040226 -1.8828355657
| 29> H 0.1026124996 -1.0362061161 -1.1417528483
| 30> H 2.8951162598 -0.4458290236 -1.798323075
| 31> H 3.633275632 -0.8642739952 -0.2524042279
| 32> H 2.3521482442 -1.8753686953 -0.9193912468
| 33> H 3.1398357829 1.3996666356 0.6292614058
| 34> H 2.3836861287 1.8652557631 -0.8950232643
| 35> H 1.5077634627 2.0557043902 0.6225093248
| 36> H 0.6898626073 -0.022369552 1.8727237899
| 37> H 2.334625032 -0.6499836461 1.8682524374
| 38> H 1.0221953544 -1.6257390563 1.2110076706
| 39> *
| 40>
| 41>                          ****END OF INPUT****

CARTESIAN COORDINATES (ANGSTROEM)
---------------------------------
  C     -2.698531   -0.938118   -0.808561
  C     -1.893502   -0.241220    0.286545
  C     -2.837165    0.528286    1.209868
  C     -0.850280    0.710493   -0.315223
  C      0.366529    0.001156   -0.927471
  C      1.651350   -0.001676   -0.075883
  C      2.698255   -0.850111   -0.807814
  C      2.201216    1.418720    0.079865
  C      1.404458   -0.611716    1.305063
  H     -2.047512   -1.478508   -1.491083
  H     -3.263392   -0.206862   -1.383398
  H     -3.399173   -1.647198   -0.373251
  H     -1.378256   -1.003802    0.878272
  H     -3.341447    1.320313    0.659881
  H     -3.592260   -0.135676    1.624321
  H     -2.288929    0.978925    2.034425
  H     -1.344609    1.309208   -1.083498
  H     -0.520325    1.403165    0.459169
  H      0.610347    0.471104   -1.882836
  H      0.102612   -1.036206   -1.141753
  H      2.895116   -0.445829   -1.798323
  H      3.633276   -0.864274   -0.252404
  H      2.352148   -1.875369   -0.919391
  H      3.139836    1.399667    0.629261
  H      2.383686    1.865256   -0.895023
  H      1.507763    2.055704    0.622509
  H      0.689863   -0.022370    1.872724
  H      2.334625   -0.649984    1.868252
  H      1.022195   -1.625739    1.211008

 Total Charge           Charge          ....    0
 Multiplicity           Mult            ....    1
 Number of Electrons    NEL             ....   74
 Basis Dimension        Dim             ....  271

ORBITAL ENERGIES
----------------

  NO   OCC          E(Eh)            E(eV)
   0   2.0000     -10.031191      -272.9626
   1   2.0000     -10.021299      -272.6934
   2   2.0000     -10.009244      -272.3654
   3   2.0000     -10.009019      -272.3592
   4   2.0000     -10.004642      -272.2401
   5   2.0000     -10.004434      -272.2345
   6   2.0000     -10.003483      -272.2086
   7   2.0000     -10.003348      -272.2049
   8   2.0000     -10.003292      -272.2034
   9   2.0000      -0.787101       -21.4181
  10   2.0000      -0.757493       -20.6124
  11   2.0000      -0.677564       -18.4375
  12   2.0000      -0.642304       -17.4780
  13   2.0000      -0.641912       -17.4673
  14   2.0000      -0.639362       -17.3979
  15   2.0000      -0.585318       -15.9273
  16   2.0000      -0.517077       -14.0704
  17   2.0000      -0.485814       -13.2197
  18   2.0000      -0.431547       -11.7430
  19   2.0000      -0.417431       -11.3589
  20   2.0000      -0.410615       -11.1734
  21   2.0000      -0.395576       -10.7642
  22   2.0000      -0.388201       -10.5635
  23   2.0000      -0.370384       -10.0787
  24   2.0000      -0.360861        -9.8195
  25   2.0000      -0.350514        -9.5380
  26   2.0000      -0.344368        -9.3707
  27   2.0000      -0.333762        -9.0821
  28   2.0000      -0.322586        -8.7780
  29   2.0000      -0.316932        -8.6242
  30   2.0000      -0.315580        -8.5874
  31   2.0000      -0.294664        -8.0182
  32   2.0000      -0.290313        -7.8998
  33   2.0000      -0.282707        -7.6929
  34   2.0000      -0.268994        -7.3197
  35   2.0000      -0.264298        -7.1919
  36   2.0000      -0.262098        -7.1320
  37   0.0000       0.084278         2.2933
  38   0.0000       0.098677         2.6851
  39   0.0000       0.113069         3.0768
  40   0.0000       0.122271         3.3272
  41   0.0000       0.123502         3.3607

MULLIKEN ATOMIC CHARGES
-----------------------
   0 C :   -0.549510
   1 C :   -0.017578
   2 C :   -0.528753
   3 C :   -0.311729
   4 C :   -0.348399
   5 C :    0.184058
   6 C :   -0.541241
   7 C :   -0.553950
   8 C :   -0.570731
   9 H :    0.153642
  10 H :    0.160758
  11 H :    0.157579
  12 H :    0.157553
  13 H :    0.156407
  14 H :    0.156848
  15 H :    0.157713
  16 H :    0.159790
  17 H :    0.158562
  18 H :    0.167802
  19 H :    0.162335
  20 H :    0.161973
  21 H :    0.166213
  22 H :    0.164569
  23 H :    0.164077
  24 H :    0.164634
  25 H :    0.163946
  26 H :    0.171985
  27 H :    0.162692
  28 H :    0.168758
Sum of atomic charges:    0.0000000

LOEWDIN ATOMIC CHARGES
----------------------
   0 C :   -0.426151
   1 C :   -0.247533
   2 C :   -0.427601
   3 C :   -0.305821
   4 C :   -0.296013
   5 C :   -0.206952
   6 C :   -0.418855
   7 C :   -0.416775
   8 C :   -0.417176
   9 H :    0.154339
  10 H :    0.155139
  11 H :    0.154388
  12 H :    0.158145
  13 H :    0.155915
  14 H :    0.154145
  15 H :    0.154086
  16 H :    0.161434
  17 H :    0.162738
  18 H :    0.162626
  19 H :    0.165360
  20 H :    0.158410
  21 H :    0.157473
  22 H :    0.157816
  23 H :    0.158460
  24 H :    0.158893
  25 H :    0.156695
  26 H :    0.159616
  27 H :    0.158142
  28 H :    0.159058

  Mayer bond orders larger than 0.100000
B(  0-C ,  1-C ) :   0.9104 B(  0-C ,  9-H ) :   0.9679 B(  0-C , 10-H ) :   0.9886
B(  0-C , 11-H ) :   0.9727 B(  1-C ,  2-C ) :   0.8821 B(  1-C ,  3-C ) :   0.8679
B(  1-C , 12-H ) :   0.9630 B(  2-C , 13-H ) :   0.9802 B(  2-C , 14-H ) :   0.9768
B(  2-C , 15-H ) :   0.9803 B(  3-C ,  4-C ) :   0.8297 B(  3-C , 16-H ) :   0.9737
B(  3-C , 17-H ) :   0.9883 B(  4-C ,  5-C ) :   0.8939 B(  4-C , 18-H ) :   0.9803
B(  4-C , 19-H ) :   0.9878 B(  5-C ,  6-C ) :   0.9171 B(  5-C ,  7-C ) :   0.9310
B(  5-C ,  8-C ) :   0.8930 B(  6-C , 20-H ) :   0.9734 B(  6-C , 21-H ) :   0.9786
B(  6-C , 22-H ) :   0.9788 B(  7-C , 23-H ) :   0.9742 B(  7-C , 24-H ) :   0.9760
B(  7-C , 25-H ) :   0.9674 B(  8-C , 26-H ) :   0.9683 B(  8-C , 27-H ) :   0.9712
B(  8-C , 28-H ) :   0.9751

Dispersion correction           -0.009160650
FINAL SINGLE POINT ENERGY      -354.882730231312

DIPOLE MOMENT
-------------

Method             : SCF
Type of density    : Electron Density
Multiplicity       :   1
Irrep              :   0
Energy             :  -354.8877597120612108 Eh
Relativity type    :
Basis              : AO
                                X                 Y                 Z
Electronic contribution:      0.497609305       0.160800850      -0.587029611
Nuclear contribution   :     -0.473241637      -0.176818773       0.599355449
                        -----------------------------------------
Total Dipole Moment    :      0.024367668      -0.016017923       0.012325838
                        -----------------------------------------
Magnitude (a.u.)       :      0.031658859
Magnitude (Debye)      :      0.080470426

Rotational constants in cm-1:             0.090643             0.026803             0.025277
Rotational constants in MHz :          2717.420733           803.528943           757.798060

                             ****ORCA TERMINATED NORMALLY****
TOTAL RUN TIME: 0 days 0 hours 0 minutes 44 seconds 410 msec
