                         Program Version 6.0.0  -   RELEASE  -
|  1> ! pbe def2-sv(p) def2/J RI DEFGRID1 loosescf d4 GCP(DFT/SV(P)) printgap
|  2> %output
|  3>     printlevel normal
|  4> end
|  5> * xyz 0 1
|  6> C 4.966583775 0.5500510498 -1.0169845791
|  7> C 4.510655978 0.0230392511 0.3463532708
|  8> C 3.0626681278 -0.4146278503 0.2851721752
|  9> O 2.730977697 -1.5886257354 0.2270711061
| 10> N 2.1912583146 0.630425082 0.2769404291
| 11> C 0.8033974576 0.6230205892 0.1830238477
| 12> C 0.1357267497 1.8499484723 0.1837263141
| 13> C -1.239751351 1.9012813836 0.0940115003
| 14> C -1.9750874254 0.7288549412 0.0018051256
| 15> C -1.3158164564 -0.4936275301 5.30769e-05
| 16> C 0.0633734029 -0.5533468493 0.0896988185
| 17> Cl -2.2178154819 -1.9703534934 -0.1145159364
| 18> Cl -3.7038169239 0.7932634685 -0.1094685945
| 19> H 4.8384436305 -0.2175996938 -1.7764401234
| 20> H 6.0180746175 0.8190008038 -0.9734264511
| 21> H 4.3960593638 1.4256607904 -1.3137839617
| 22> H 4.6364326679 0.7922618379 1.108179692
| 23> H 5.1086124738 -0.846297948 0.6199839169
| 24> H 2.6004064332 1.5550468594 0.3352877461
| 25> H 0.6941343821 2.7693314598 0.2549846333
| 26> H -1.7556450925 2.8467984065 0.094730426
| 27> H 0.5625974381 -1.5077562101 0.0875816083
| 28> *
| 29>
| 30>                          ****END OF INPUT****

CARTESIAN COORDINATES (ANGSTROEM)
---------------------------------
  C      4.966584    0.550051   -1.016985
  C      4.510656    0.023039    0.346353
  C      3.062668   -0.414628    0.285172
  O      2.730978   -1.588626    0.227071
  N      2.191258    0.630425    0.276940
  C      0.803397    0.623021    0.183024
  C      0.135727    1.849948    0.183726
  C     -1.239751    1.901281    0.094012
  C     -1.975087    0.728855    0.001805
  C     -1.315816   -0.493628    0.000053
  C      0.063373   -0.553347    0.089699
  Cl    -2.217815   -1.970353   -0.114516
  Cl    -3.703817    0.793263   -0.109469
  H      4.838444   -0.217600   -1.776440
  H      6.018075    0.819001   -0.973426
  H      4.396059    1.425661   -1.313784
  H      4.636433    0.792262    1.108180
  H      5.108612   -0.846298    0.619984
  H      2.600406    1.555047    0.335288
  H      0.694134    2.769331    0.254985
  H     -1.755645    2.846798    0.094730
  H      0.562597   -1.507756    0.087582

 Total Charge           Charge          ....    0
 Multiplicity           Mult            ....    1
 Number of Electrons    NEL             ....  112
 Basis Dimension        Dim             ....  208

ORBITAL ENERGIES
----------------

  NO   OCC          E(Eh)            E(eV)
   0   2.0000    -100.641713     -2738.6002
   1   2.0000    -100.640913     -2738.5785
   2   2.0000     -18.729453      -509.6543
   3   2.0000     -14.051351      -382.3567
   4   2.0000      -9.997613      -272.0489
   5   2.0000      -9.960563      -271.0407
   6   2.0000      -9.959721      -271.0178
   7   2.0000      -9.956143      -270.9204
   8   2.0000      -9.916411      -269.8393
   9   2.0000      -9.915431      -269.8126
  10   2.0000      -9.907277      -269.5907
  11   2.0000      -9.905187      -269.5339
  12   2.0000      -9.899839      -269.3883
  13   2.0000      -9.177508      -249.7327
  14   2.0000      -9.176704      -249.7108
  15   2.0000      -7.009065      -190.7263
  16   2.0000      -7.008291      -190.7053
  17   2.0000      -6.997483      -190.4112
  18   2.0000      -6.996754      -190.3913
  19   2.0000      -6.996720      -190.3904
  20   2.0000      -6.995824      -190.3661
  21   2.0000      -0.951315       -25.8866
  22   2.0000      -0.874449       -23.7950
  23   2.0000      -0.833126       -22.6705
  24   2.0000      -0.778617       -21.1872
  25   2.0000      -0.765346       -20.8261
  26   2.0000      -0.720286       -19.6000
  27   2.0000      -0.680863       -18.5272
  28   2.0000      -0.666534       -18.1373
  29   2.0000      -0.602099       -16.3839
  30   2.0000      -0.581308       -15.8182
  31   2.0000      -0.558546       -15.1988
  32   2.0000      -0.534674       -14.5492
  33   2.0000      -0.499225       -13.5846
  34   2.0000      -0.452777       -12.3207
  35   2.0000      -0.447787       -12.1849
  36   2.0000      -0.434855       -11.8330
  37   2.0000      -0.415694       -11.3116
  38   2.0000      -0.410772       -11.1777
  39   2.0000      -0.403286       -10.9740
  40   2.0000      -0.396540       -10.7904
  41   2.0000      -0.380595       -10.3565
  42   2.0000      -0.369132       -10.0446
  43   2.0000      -0.359146        -9.7729
  44   2.0000      -0.346044        -9.4163
  45   2.0000      -0.339877        -9.2485
  46   2.0000      -0.337957        -9.1963
  47   2.0000      -0.326305        -8.8792
  48   2.0000      -0.309125        -8.4117
  49   2.0000      -0.303020        -8.2456
  50   2.0000      -0.280148        -7.6232
  51   2.0000      -0.263935        -7.1820
  52   2.0000      -0.257110        -6.9963
  53   2.0000      -0.230923        -6.2837
  54   2.0000      -0.210849        -5.7375
  55   2.0000      -0.202510        -5.5106
  56   0.0000      -0.057870        -1.5747
  57   0.0000      -0.053765        -1.4630
  58   0.0000      -0.013330        -0.3627
  59   0.0000      -0.006589        -0.1793
  60   0.0000       0.004371         0.1189

MULLIKEN ATOMIC CHARGES
-----------------------
   0 C :   -0.294936
   1 C :   -0.183681
   2 C :    0.082441
   3 O :   -0.201877
   4 N :   -0.195203
   5 C :    0.209017
   6 C :   -0.130609
   7 C :   -0.112828
   8 C :    0.090329
   9 C :    0.088773
  10 C :   -0.191281
  11 Cl:   -0.051811
  12 Cl:   -0.062498
  13 H :    0.124512
  14 H :    0.121782
  15 H :    0.099081
  16 H :    0.100868
  17 H :    0.110411
  18 H :    0.232461
  19 H :    0.037561
  20 H :    0.054509
  21 H :    0.072979
Sum of atomic charges:    0.0000000

LOEWDIN ATOMIC CHARGES
----------------------
   0 C :   -0.334163
   1 C :   -0.254743
   2 C :    0.032609
   3 O :   -0.173855
   4 N :   -0.103356
   5 C :    0.006258
   6 C :   -0.148452
   7 C :   -0.128437
   8 C :   -0.166431
   9 C :   -0.143696
  10 C :   -0.153957
  11 Cl:    0.144892
  12 Cl:    0.135820
  13 H :    0.130860
  14 H :    0.127072
  15 H :    0.113747
  16 H :    0.124618
  17 H :    0.139113
  18 H :    0.240339
  19 H :    0.125363
  20 H :    0.135409
  21 H :    0.150987

  Mayer bond orders larger than 0.100000
B(  0-C ,  1-C ) :   1.1365 B(  0-C , 13-H ) :   0.9507 B(  0-C , 14-H ) :   0.9494
B(  0-C , 15-H ) :   0.9542 B(  1-C ,  2-C ) :   1.0231 B(  1-C , 16-H ) :   0.9115
B(  1-C , 17-H ) :   0.9039 B(  2-C ,  3-O ) :   2.0492 B(  2-C ,  4-N ) :   1.1419
B(  4-N ,  5-C ) :   1.0966 B(  4-N , 18-H ) :   0.8381 B(  5-C ,  6-C ) :   1.2932
B(  5-C , 10-C ) :   1.3367 B(  6-C ,  7-C ) :   1.3689 B(  6-C , 19-H ) :   0.9588
B(  7-C ,  8-C ) :   1.3752 B(  7-C , 20-H ) :   0.9627 B(  8-C ,  9-C ) :   1.4116
B(  8-C , 12-Cl) :   1.0286 B(  9-C , 10-C ) :   1.3252 B(  9-C , 11-Cl) :   1.0450
B( 10-C , 21-H ) :   0.9482

Dispersion correction           -0.027879678
FINAL SINGLE POINT ENERGY     -1397.094107785999

DIPOLE MOMENT
-------------

Method             : SCF
Type of density    : Electron Density
Multiplicity       :   1
Irrep              :   0
Energy             : -1397.1544319314889435 Eh
Relativity type    :
Basis              : AO
                                X                 Y                 Z
Electronic contribution:    -32.163604004      -7.138789731       1.212564517
Nuclear contribution   :     33.424206024       8.724167610      -1.160756990
                        -----------------------------------------
Total Dipole Moment    :      1.260602020       1.585377878       0.051807527
                        -----------------------------------------
Magnitude (a.u.)       :      2.026135358
Magnitude (Debye)      :      5.150026802

Rotational constants in cm-1:             0.046203             0.009582             0.008138
Rotational constants in MHz :          1385.129163           287.247434           243.959062

                             ****ORCA TERMINATED NORMALLY****
TOTAL RUN TIME: 0 days 0 hours 0 minutes 14 seconds 519 msec
