                         Program Version 6.0.0  -   RELEASE  -
|  1> ! r2scan-3c def2/J RI DEFGRID2 scfconv6 printgap
|  2> %output
|  3>     printlevel normal
|  4> end
|  5> * xyz 0 1
|  6> C 2.4592633056 0.9174810669 -0.1440521936
|  7> C 1.1964128827 0.1666441146 0.2678731359
|  8> C 1.4147579226 -1.3413395643 0.1739784805
|  9> C 0.0177690203 0.595021083 -0.6259697771
| 10> C -1.2769918845 0.017046867 -0.1290431559
| 11> O -1.9485727384 -0.8028430944 -0.7206732927
| 12> O -1.6263150803 0.4963871506 1.054948521
| 13> H 3.2940416926 0.6165859223 0.4833483211
| 14> H 2.3210513163 1.9905664147 -0.0416719027
| 15> H 2.7099471386 0.6972250358 -1.1789153505
| 16> H 0.9486634836 0.4278415474 1.30180235
| 17> H 0.510762008 -1.8832470714 0.4449597083
| 18> H 1.6842548221 -1.6215675612 -0.8419607742
| 19> H 2.2150858687 -1.6508608471 0.8411474132
| 20> H 0.1793425405 0.2621553266 -1.6510215027
| 21> H -0.070796074 1.6817772029 -0.6014419089
| 22> H -2.4622586577 0.1154651276 1.3860181402
| 23> *
| 24>
| 25>                          ****END OF INPUT****

CARTESIAN COORDINATES (ANGSTROEM)
---------------------------------
  C      2.459263    0.917481   -0.144052
  C      1.196413    0.166644    0.267873
  C      1.414758   -1.341340    0.173978
  C      0.017769    0.595021   -0.625970
  C     -1.276992    0.017047   -0.129043
  O     -1.948573   -0.802843   -0.720673
  O     -1.626315    0.496387    1.054949
  H      3.294042    0.616586    0.483348
  H      2.321051    1.990566   -0.041672
  H      2.709947    0.697225   -1.178915
  H      0.948663    0.427842    1.301802
  H      0.510762   -1.883247    0.444960
  H      1.684255   -1.621568   -0.841961
  H      2.215086   -1.650861    0.841147
  H      0.179343    0.262155   -1.651022
  H     -0.070796    1.681777   -0.601442
  H     -2.462259    0.115465    1.386018

 Total Charge           Charge          ....    0
 Multiplicity           Mult            ....    1
 Number of Electrons    NEL             ....   56
 Basis Dimension        Dim             ....  193

ORBITAL ENERGIES
----------------

  NO   OCC          E(Eh)            E(eV)
   0   2.0000     -19.003495      -517.1114
   1   2.0000     -18.933062      -515.1948
   2   2.0000     -10.160567      -276.4831
   3   2.0000     -10.048788      -273.4414
   4   2.0000     -10.044874      -273.3349
   5   2.0000     -10.023946      -272.7654
   6   2.0000     -10.020594      -272.6742
   7   2.0000      -1.078101       -29.3366
   8   2.0000      -0.977298       -26.5936
   9   2.0000      -0.790880       -21.5209
  10   2.0000      -0.699971       -19.0472
  11   2.0000      -0.657923       -17.9030
  12   2.0000      -0.596441       -16.2300
  13   2.0000      -0.544124       -14.8064
  14   2.0000      -0.461317       -12.5531
  15   2.0000      -0.453819       -12.3490
  16   2.0000      -0.440750       -11.9934
  17   2.0000      -0.425708       -11.5841
  18   2.0000      -0.391907       -10.6643
  19   2.0000      -0.379128       -10.3166
  20   2.0000      -0.366430        -9.9711
  21   2.0000      -0.359636        -9.7862
  22   2.0000      -0.344824        -9.3831
  23   2.0000      -0.314969        -8.5708
  24   2.0000      -0.309857        -8.4316
  25   2.0000      -0.306556        -8.3418
  26   2.0000      -0.289324        -7.8729
  27   2.0000      -0.236348        -6.4314
  28   0.0000      -0.021512        -0.5854
  29   0.0000       0.053521         1.4564
  30   0.0000       0.094997         2.5850
  31   0.0000       0.114935         3.1275
  32   0.0000       0.127602         3.4722

MULLIKEN ATOMIC CHARGES
-----------------------
   0 C :   -0.469325
   1 C :   -0.040811
   2 C :   -0.497149
   3 C :   -0.290084
   4 C :    0.307342
   5 O :   -0.394087
   6 O :   -0.345457
   7 H :    0.151381
   8 H :    0.146501
   9 H :    0.149135
  10 H :    0.161994
  11 H :    0.157381
  12 H :    0.154563
  13 H :    0.148598
  14 H :    0.170633
  15 H :    0.158880
  16 H :    0.330505
Sum of atomic charges:    0.0000000

LOEWDIN ATOMIC CHARGES
----------------------
   0 C :   -0.411054
   1 C :   -0.227581
   2 C :   -0.405305
   3 C :   -0.228837
   4 C :    0.332148
   5 O :   -0.420534
   6 O :   -0.407219
   7 H :    0.155952
   8 H :    0.153679
   9 H :    0.155139
  10 H :    0.166826
  11 H :    0.161471
  12 H :    0.156897
  13 H :    0.154619
  14 H :    0.182026
  15 H :    0.182114
  16 H :    0.299659

  Mayer bond orders larger than 0.100000
B(  0-C ,  1-C ) :   0.8934 B(  0-C ,  7-H ) :   0.9744 B(  0-C ,  8-H ) :   0.9795
B(  0-C ,  9-H ) :   0.9829 B(  1-C ,  2-C ) :   0.9233 B(  1-C ,  3-C ) :   0.8832
B(  1-C , 10-H ) :   0.9539 B(  2-C , 11-H ) :   0.9592 B(  2-C , 12-H ) :   0.9837
B(  2-C , 13-H ) :   0.9722 B(  3-C ,  4-C ) :   1.0021 B(  3-C , 14-H ) :   0.9812
B(  3-C , 15-H ) :   0.9448 B(  4-C ,  5-O ) :   1.9452 B(  4-C ,  6-O ) :   1.0208
B(  6-O , 16-H ) :   0.8596

Dispersion correction           -0.004376603
FINAL SINGLE POINT ENERGY      -346.949280660535

DIPOLE MOMENT
-------------

Method             : SCF
Type of density    : Electron Density
Multiplicity       :   1
Irrep              :   0
Energy             :  -346.9540626809677519 Eh
Relativity type    :
Basis              : AO
                                X                 Y                 Z
Electronic contribution:    -10.138579430      -0.115333302       0.411201609
Nuclear contribution   :     10.576520863       0.592075516       0.138423899
                        -----------------------------------------
Total Dipole Moment    :      0.437941433       0.476742214       0.549625508
                        -----------------------------------------
Magnitude (a.u.)       :      0.849213776
Magnitude (Debye)      :      2.158529876

Rotational constants in cm-1:             0.155947             0.053068             0.048839
Rotational constants in MHz :          4675.163075          1590.935864          1464.155138

                             ****ORCA TERMINATED NORMALLY****
TOTAL RUN TIME: 0 days 0 hours 0 minutes 26 seconds 629 msec
