                         Program Version 6.0.0  -   RELEASE  -
|  1> ! r2scan-3c def2/J RI DEFGRID2 scfconv6 printgap
|  2> %output
|  3>     printlevel normal
|  4> end
|  5> %cpcm
|  6>     smd true
|  7>     smdsolvent "water"
|  8> end
|  9> * xyz 0 1
| 10> C -3.3410035145 -0.0145009561 0.0131297952
| 11> C -2.0029495737 0.6377483654 0.3368105307
| 12> C -0.845307041 -0.209709 -0.1704464508
| 13> O 0.3811041205 0.4698668843 0.1331500863
| 14> C 1.519866748 -0.1797028834 -0.0743146525
| 15> O 1.5653878959 -1.3147025168 -0.5050670873
| 16> C 2.7118372281 0.6539836253 0.2861425528
| 17> H -4.1553874775 0.6011030538 0.3830891068
| 18> H -3.4570280277 -0.1339075016 -1.0610623787
| 19> H -3.4095662057 -0.9953790238 0.476673188
| 20> H -1.8974996516 0.7657627051 1.4147244236
| 21> H -1.9421423437 1.6226845589 -0.1272788842
| 22> H -0.8274164034 -1.1968029864 0.3041282305
| 23> H -0.9024558068 -0.3564782272 -1.2544408393
| 24> H 3.3485019205 0.7568808854 -0.5888446392
| 25> H 3.2836412829 0.1400542701 1.0545031849
| 26> H 2.3886637426 1.6269855239 0.6389918105
| 27> *
| 28>
| 29>                          ****END OF INPUT****

CARTESIAN COORDINATES (ANGSTROEM)
---------------------------------
  C     -3.341004   -0.014501    0.013130
  C     -2.002950    0.637748    0.336811
  C     -0.845307   -0.209709   -0.170446
  O      0.381104    0.469867    0.133150
  C      1.519867   -0.179703   -0.074315
  O      1.565388   -1.314703   -0.505067
  C      2.711837    0.653984    0.286143
  H     -4.155387    0.601103    0.383089
  H     -3.457028   -0.133908   -1.061062
  H     -3.409566   -0.995379    0.476673
  H     -1.897500    0.765763    1.414724
  H     -1.942142    1.622685   -0.127279
  H     -0.827416   -1.196803    0.304128
  H     -0.902456   -0.356478   -1.254441
  H      3.348502    0.756881   -0.588845
  H      3.283641    0.140054    1.054503
  H      2.388664    1.626986    0.638992

 Total Charge           Charge          ....    0
 Multiplicity           Mult            ....    1
 Number of Electrons    NEL             ....   56
 Basis Dimension        Dim             ....  193

ORBITAL ENERGIES
----------------

  NO   OCC          E(Eh)            E(eV)
   0   2.0000     -19.003609      -517.1145
   1   2.0000     -18.943092      -515.4677
   2   2.0000     -10.165376      -276.6139
   3   2.0000     -10.081268      -274.3252
   4   2.0000     -10.030410      -272.9413
   5   2.0000     -10.026482      -272.8344
   6   2.0000     -10.014132      -272.4984
   7   2.0000      -1.079967       -29.3874
   8   2.0000      -0.988371       -26.8949
   9   2.0000      -0.762996       -20.7622
  10   2.0000      -0.716807       -19.5053
  11   2.0000      -0.653815       -17.7912
  12   2.0000      -0.563648       -15.3376
  13   2.0000      -0.536705       -14.6045
  14   2.0000      -0.467223       -12.7138
  15   2.0000      -0.461994       -12.5715
  16   2.0000      -0.446866       -12.1598
  17   2.0000      -0.421377       -11.4662
  18   2.0000      -0.389573       -10.6008
  19   2.0000      -0.377352       -10.2683
  20   2.0000      -0.374205       -10.1826
  21   2.0000      -0.338738        -9.2175
  22   2.0000      -0.335848        -9.1389
  23   2.0000      -0.331743        -9.0272
  24   2.0000      -0.305893        -8.3238
  25   2.0000      -0.302152        -8.2220
  26   2.0000      -0.278095        -7.5673
  27   2.0000      -0.252938        -6.8828
  28   0.0000      -0.021912        -0.5962
  29   0.0000       0.075928         2.0661
  30   0.0000       0.098052         2.6681
  31   0.0000       0.129510         3.5241
  32   0.0000       0.141175         3.8416

MULLIKEN ATOMIC CHARGES
-----------------------
   0 C :   -0.505488
   1 C :   -0.216602
   2 C :   -0.206312
   3 O :   -0.177467
   4 C :    0.462836
   5 O :   -0.510515
   6 C :   -0.556004
   7 H :    0.163712
   8 H :    0.156946
   9 H :    0.157071
  10 H :    0.153942
  11 H :    0.153524
  12 H :    0.170344
  13 H :    0.170026
  14 H :    0.197941
  15 H :    0.198016
  16 H :    0.188030
Sum of atomic charges:   -0.0000000

LOEWDIN ATOMIC CHARGES
----------------------
   0 C :   -0.422472
   1 C :   -0.281150
   2 C :    0.040972
   3 O :   -0.603328
   4 C :    0.363711
   5 O :   -0.493831
   6 C :   -0.334638
   7 H :    0.157941
   8 H :    0.156104
   9 H :    0.156120
  10 H :    0.162626
  11 H :    0.162941
  12 H :    0.187935
  13 H :    0.186065
  14 H :    0.189512
  15 H :    0.189637
  16 H :    0.181854

  Mayer bond orders larger than 0.100000
B(  0-C ,  1-C ) :   0.9015 B(  0-C ,  7-H ) :   0.9663 B(  0-C ,  8-H ) :   0.9753
B(  0-C ,  9-H ) :   0.9754 B(  1-C ,  2-C ) :   0.9414 B(  1-C , 10-H ) :   0.9654
B(  1-C , 11-H ) :   0.9615 B(  2-C ,  3-O ) :   0.8079 B(  2-C , 12-H ) :   0.9529
B(  2-C , 13-H ) :   0.9434 B(  3-O ,  4-C ) :   1.0968 B(  4-C ,  5-O ) :   1.7454
B(  4-C ,  6-C ) :   0.9401 B(  6-C , 14-H ) :   0.9421 B(  6-C , 15-H ) :   0.9407
B(  6-C , 16-H ) :   0.9781

Dispersion correction           -0.003791027
FINAL SINGLE POINT ENERGY      -346.942721448637

DIPOLE MOMENT
-------------

Method             : SCF
Type of density    : Electron Density
Multiplicity       :   1
Irrep              :   0
Energy             :  -346.9492925465040685 Eh
Relativity type    :
Basis              : AO
                                X                 Y                 Z
Electronic contribution:      6.548178237      -1.624341259      -0.771935835
Nuclear contribution   :     -7.073713089       2.643334922       1.158266555
                        -----------------------------------------
Total Dipole Moment    :     -0.525534852       1.018993663       0.386330721
                        -----------------------------------------
Magnitude (a.u.)       :      1.209870403
Magnitude (Debye)      :      3.075246169

Rotational constants in cm-1:             0.261111             0.038820             0.034702
Rotational constants in MHz :          7827.921912          1163.781182          1040.333636

                             ****ORCA TERMINATED NORMALLY****
TOTAL RUN TIME: 0 days 0 hours 0 minutes 27 seconds 542 msec
