                         Program Version 6.0.0  -   RELEASE  -
|  1> ! r2scan-3c def2/J RI DEFGRID2 scfconv6 printgap
|  2> %output
|  3>     printlevel normal
|  4> end
|  5> * xyz 0 1
|  6> C 2.7738707694 -0.0807551336 -0.2638928729
|  7> C 1.3526672475 -0.0588652653 -0.8144486619
|  8> C 0.3138115938 -0.2151392093 0.3004660517
|  9> H 0.6270313348 -1.0544611168 0.9448934997
| 10> C -1.0935045525 -0.5436370877 -0.2476683619
| 11> C -2.0690975846 -0.8281469699 0.8960110522
| 12> C -1.6291634788 0.5831355222 -1.1285824178
| 13> O 0.3305243197 0.9826996382 1.0574772166
| 14> H 3.4918710282 0.0875654054 -1.0621212464
| 15> H 2.9895503063 -1.0402785811 0.2011995966
| 16> H 2.8910336798 0.7010874714 0.4822564217
| 17> H 1.1764674195 0.8948048345 -1.3120581747
| 18> H 1.2212716528 -0.8636836957 -1.538693509
| 19> H -0.9937584047 -1.454194918 -0.8478455161
| 20> H -1.6622799344 -1.5746865651 1.5752475963
| 21> H -2.2842842649 0.0803516534 1.4540886941
| 22> H -3.0078578554 -1.2051646991 0.4980771886
| 23> H -1.5514405646 1.5321970213 -0.6026463783
| 24> H -2.6727169294 0.4037892075 -1.3745927373
| 25> H -1.0656472359 0.655007162 -2.0544317789
| 26> H -0.2182075524 0.8641283977 1.8430166743
| 27> *
| 28>
| 29>                          ****END OF INPUT****

CARTESIAN COORDINATES (ANGSTROEM)
---------------------------------
  C      2.773871   -0.080755   -0.263893
  C      1.352667   -0.058865   -0.814449
  C      0.313812   -0.215139    0.300466
  H      0.627031   -1.054461    0.944893
  C     -1.093505   -0.543637   -0.247668
  C     -2.069098   -0.828147    0.896011
  C     -1.629163    0.583136   -1.128582
  O      0.330524    0.982700    1.057477
  H      3.491871    0.087565   -1.062121
  H      2.989550   -1.040279    0.201200
  H      2.891034    0.701087    0.482256
  H      1.176467    0.894805   -1.312058
  H      1.221272   -0.863684   -1.538694
  H     -0.993758   -1.454195   -0.847846
  H     -1.662280   -1.574687    1.575248
  H     -2.284284    0.080352    1.454089
  H     -3.007858   -1.205165    0.498077
  H     -1.551441    1.532197   -0.602646
  H     -2.672717    0.403789   -1.374593
  H     -1.065647    0.655007   -2.054432
  H     -0.218208    0.864128    1.843017

 Total Charge           Charge          ....    0
 Multiplicity           Mult            ....    1
 Number of Electrons    NEL             ....   58
 Basis Dimension        Dim             ....  208

ORBITAL ENERGIES
----------------

  NO   OCC          E(Eh)            E(eV)
   0   2.0000     -18.946521      -515.5611
   1   2.0000     -10.075865      -274.1782
   2   2.0000     -10.032844      -273.0076
   3   2.0000     -10.021651      -272.7030
   4   2.0000     -10.021456      -272.6977
   5   2.0000     -10.011053      -272.4146
   6   2.0000     -10.010216      -272.3918
   7   2.0000      -0.985195       -26.8085
   8   2.0000      -0.770694       -20.9717
   9   2.0000      -0.730376       -19.8745
  10   2.0000      -0.652066       -17.7436
  11   2.0000      -0.636477       -17.3194
  12   2.0000      -0.559486       -15.2244
  13   2.0000      -0.529101       -14.3976
  14   2.0000      -0.476284       -12.9603
  15   2.0000      -0.443794       -12.0762
  16   2.0000      -0.410584       -11.1725
  17   2.0000      -0.397265       -10.8101
  18   2.0000      -0.391413       -10.6509
  19   2.0000      -0.368068       -10.0156
  20   2.0000      -0.354949        -9.6587
  21   2.0000      -0.341559        -9.2943
  22   2.0000      -0.332181        -9.0391
  23   2.0000      -0.315699        -8.5906
  24   2.0000      -0.308615        -8.3979
  25   2.0000      -0.304902        -8.2968
  26   2.0000      -0.296769        -8.0755
  27   2.0000      -0.272989        -7.4284
  28   2.0000      -0.232592        -6.3292
  29   0.0000       0.054920         1.4945
  30   0.0000       0.100025         2.7218
  31   0.0000       0.114168         3.1067
  32   0.0000       0.120536         3.2799
  33   0.0000       0.127988         3.4827

MULLIKEN ATOMIC CHARGES
-----------------------
   0 C :   -0.509590
   1 C :   -0.259446
   2 C :    0.023669
   3 H :    0.134642
   4 C :    0.041175
   5 C :   -0.549104
   6 C :   -0.553278
   7 O :   -0.451725
   8 H :    0.145046
   9 H :    0.139917
  10 H :    0.169335
  11 H :    0.154586
  12 H :    0.139581
  13 H :    0.146806
  14 H :    0.152435
  15 H :    0.146574
  16 H :    0.156297
  17 H :    0.181222
  18 H :    0.142955
  19 H :    0.153280
  20 H :    0.295624
Sum of atomic charges:    0.0000000

LOEWDIN ATOMIC CHARGES
----------------------
   0 C :   -0.418527
   1 C :   -0.278356
   2 C :    0.059109
   3 H :    0.165856
   4 C :   -0.229288
   5 C :   -0.419491
   6 C :   -0.412013
   7 O :   -0.619525
   8 H :    0.149197
   9 H :    0.148919
  10 H :    0.162279
  11 H :    0.167543
  12 H :    0.158343
  13 H :    0.160478
  14 H :    0.154385
  15 H :    0.150977
  16 H :    0.157129
  17 H :    0.166181
  18 H :    0.152080
  19 H :    0.155699
  20 H :    0.269024

  Mayer bond orders larger than 0.100000
B(  0-C ,  1-C ) :   0.9044 B(  0-C ,  8-H ) :   0.9753 B(  0-C ,  9-H ) :   0.9854
B(  0-C , 10-H ) :   0.9783 B(  1-C ,  2-C ) :   0.9409 B(  1-C , 11-H ) :   0.9672
B(  1-C , 12-H ) :   0.9762 B(  2-C ,  3-H ) :   0.9745 B(  2-C ,  4-C ) :   0.8783
B(  2-C ,  7-O ) :   0.8363 B(  4-C ,  5-C ) :   0.8705 B(  4-C ,  6-C ) :   0.8810
B(  4-C , 13-H ) :   0.9615 B(  5-C , 14-H ) :   0.9801 B(  5-C , 15-H ) :   0.9886
B(  5-C , 16-H ) :   0.9714 B(  6-C , 17-H ) :   0.9829 B(  6-C , 18-H ) :   0.9731
B(  6-C , 19-H ) :   0.9719 B(  7-O , 20-H ) :   0.8962

Dispersion correction           -0.005599266
FINAL SINGLE POINT ENERGY      -312.203634991917

DIPOLE MOMENT
-------------

Method             : SCF
Type of density    : Electron Density
Multiplicity       :   1
Irrep              :   0
Energy             :  -312.2091651927286762 Eh
Relativity type    :
Basis              : AO
                                X                 Y                 Z
Electronic contribution:      0.685948005       1.387109944       1.776831148
Nuclear contribution   :     -0.988579301      -1.836917784      -1.667005429
                        -----------------------------------------
Total Dipole Moment    :     -0.302631296      -0.449807840       0.109825719
                        -----------------------------------------
Magnitude (a.u.)       :      0.553149602
Magnitude (Debye)      :      1.405994553

Rotational constants in cm-1:             0.142161             0.051952             0.047623
Rotational constants in MHz :          4261.888011          1557.495950          1427.702596

                             ****ORCA TERMINATED NORMALLY****
TOTAL RUN TIME: 0 days 0 hours 0 minutes 28 seconds 179 msec
