                         Program Version 6.0.0  -   RELEASE  -
|  1> ! r2scan-3c def2/J RI DEFGRID2 scfconv6 printgap
|  2> %output
|  3>     printlevel normal
|  4> end
|  5> %cpcm
|  6>     smd true
|  7>     smdsolvent "water"
|  8> end
|  9> * xyz 0 1
| 10> C 2.7738707694 -0.0807551336 -0.2638928729
| 11> C 1.3526672475 -0.0588652653 -0.8144486619
| 12> C 0.3138115938 -0.2151392093 0.3004660517
| 13> H 0.6270313348 -1.0544611168 0.9448934997
| 14> C -1.0935045525 -0.5436370877 -0.2476683619
| 15> C -2.0690975846 -0.8281469699 0.8960110522
| 16> C -1.6291634788 0.5831355222 -1.1285824178
| 17> O 0.3305243197 0.9826996382 1.0574772166
| 18> H 3.4918710282 0.0875654054 -1.0621212464
| 19> H 2.9895503063 -1.0402785811 0.2011995966
| 20> H 2.8910336798 0.7010874714 0.4822564217
| 21> H 1.1764674195 0.8948048345 -1.3120581747
| 22> H 1.2212716528 -0.8636836957 -1.538693509
| 23> H -0.9937584047 -1.454194918 -0.8478455161
| 24> H -1.6622799344 -1.5746865651 1.5752475963
| 25> H -2.2842842649 0.0803516534 1.4540886941
| 26> H -3.0078578554 -1.2051646991 0.4980771886
| 27> H -1.5514405646 1.5321970213 -0.6026463783
| 28> H -2.6727169294 0.4037892075 -1.3745927373
| 29> H -1.0656472359 0.655007162 -2.0544317789
| 30> H -0.2182075524 0.8641283977 1.8430166743
| 31> *
| 32>
| 33>                          ****END OF INPUT****

CARTESIAN COORDINATES (ANGSTROEM)
---------------------------------
  C      2.773871   -0.080755   -0.263893
  C      1.352667   -0.058865   -0.814449
  C      0.313812   -0.215139    0.300466
  H      0.627031   -1.054461    0.944893
  C     -1.093505   -0.543637   -0.247668
  C     -2.069098   -0.828147    0.896011
  C     -1.629163    0.583136   -1.128582
  O      0.330524    0.982700    1.057477
  H      3.491871    0.087565   -1.062121
  H      2.989550   -1.040279    0.201200
  H      2.891034    0.701087    0.482256
  H      1.176467    0.894805   -1.312058
  H      1.221272   -0.863684   -1.538694
  H     -0.993758   -1.454195   -0.847846
  H     -1.662280   -1.574687    1.575248
  H     -2.284284    0.080352    1.454089
  H     -3.007858   -1.205165    0.498077
  H     -1.551441    1.532197   -0.602646
  H     -2.672717    0.403789   -1.374593
  H     -1.065647    0.655007   -2.054432
  H     -0.218208    0.864128    1.843017

 Total Charge           Charge          ....    0
 Multiplicity           Mult            ....    1
 Number of Electrons    NEL             ....   58
 Basis Dimension        Dim             ....  208

ORBITAL ENERGIES
----------------

  NO   OCC          E(Eh)            E(eV)
   0   2.0000     -18.948538      -515.6159
   1   2.0000     -10.070206      -274.0242
   2   2.0000     -10.024181      -272.7718
   3   2.0000     -10.016458      -272.5617
   4   2.0000     -10.007977      -272.3309
   5   2.0000     -10.007966      -272.3306
   6   2.0000     -10.005642      -272.2674
   7   2.0000      -0.986202       -26.8359
   8   2.0000      -0.763561       -20.7776
   9   2.0000      -0.725369       -19.7383
  10   2.0000      -0.643073       -17.4989
  11   2.0000      -0.632464       -17.2102
  12   2.0000      -0.553854       -15.0711
  13   2.0000      -0.524103       -14.2616
  14   2.0000      -0.471595       -12.8328
  15   2.0000      -0.437347       -11.9008
  16   2.0000      -0.402498       -10.9525
  17   2.0000      -0.392587       -10.6828
  18   2.0000      -0.388724       -10.5777
  19   2.0000      -0.361578        -9.8390
  20   2.0000      -0.346755        -9.4357
  21   2.0000      -0.337153        -9.1744
  22   2.0000      -0.330100        -8.9825
  23   2.0000      -0.310950        -8.4614
  24   2.0000      -0.305027        -8.3002
  25   2.0000      -0.299302        -8.1444
  26   2.0000      -0.289622        -7.8810
  27   2.0000      -0.268720        -7.3122
  28   2.0000      -0.233757        -6.3609
  29   0.0000       0.071162         1.9364
  30   0.0000       0.110703         3.0124
  31   0.0000       0.119033         3.2390
  32   0.0000       0.128147         3.4871
  33   0.0000       0.136438         3.7127

MULLIKEN ATOMIC CHARGES
-----------------------
   0 C :   -0.539288
   1 C :   -0.271712
   2 C :    0.032897
   3 H :    0.149904
   4 C :    0.037702
   5 C :   -0.570012
   6 C :   -0.595859
   7 O :   -0.533191
   8 H :    0.158830
   9 H :    0.157747
  10 H :    0.159541
  11 H :    0.159323
  12 H :    0.158482
  13 H :    0.160478
  14 H :    0.161830
  15 H :    0.161733
  16 H :    0.165884
  17 H :    0.173392
  18 H :    0.158367
  19 H :    0.165257
  20 H :    0.348694
Sum of atomic charges:    0.0000000

LOEWDIN ATOMIC CHARGES
----------------------
   0 C :   -0.427008
   1 C :   -0.281598
   2 C :    0.060283
   3 H :    0.173891
   4 C :   -0.225393
   5 C :   -0.423552
   6 C :   -0.420682
   7 O :   -0.653493
   8 H :    0.153113
   9 H :    0.154146
  10 H :    0.156650
  11 H :    0.166541
  12 H :    0.165542
  13 H :    0.165794
  14 H :    0.158492
  15 H :    0.156938
  16 H :    0.158236
  17 H :    0.161458
  18 H :    0.156519
  19 H :    0.157893
  20 H :    0.286230

  Mayer bond orders larger than 0.100000
B(  0-C ,  1-C ) :   0.8952 B(  0-C ,  8-H ) :   0.9726 B(  0-C ,  9-H ) :   0.9819
B(  0-C , 10-H ) :   0.9793 B(  1-C ,  2-C ) :   0.9352 B(  1-C , 11-H ) :   0.9678
B(  1-C , 12-H ) :   0.9701 B(  2-C ,  3-H ) :   0.9674 B(  2-C ,  4-C ) :   0.8951
B(  2-C ,  7-O ) :   0.8225 B(  4-C ,  5-C ) :   0.8811 B(  4-C ,  6-C ) :   0.8653
B(  4-C , 13-H ) :   0.9604 B(  5-C , 14-H ) :   0.9749 B(  5-C , 15-H ) :   0.9808
B(  5-C , 16-H ) :   0.9712 B(  6-C , 17-H ) :   0.9859 B(  6-C , 18-H ) :   0.9706
B(  6-C , 19-H ) :   0.9701 B(  7-O , 20-H ) :   0.8708

Dispersion correction           -0.005599266
FINAL SINGLE POINT ENERGY      -312.208219657434

DIPOLE MOMENT
-------------

Method             : SCF
Type of density    : Electron Density
Multiplicity       :   1
Irrep              :   0
Energy             :  -312.2137498582460466 Eh
Relativity type    :
Basis              : AO
                                X                 Y                 Z
Electronic contribution:      0.555100835       1.105102508       1.822226825
Nuclear contribution   :     -0.988579301      -1.836917784      -1.667005429
                        -----------------------------------------
Total Dipole Moment    :     -0.433478466      -0.731815276       0.155221396
                        -----------------------------------------
Magnitude (a.u.)       :      0.864610236
Magnitude (Debye)      :      2.197664569

Rotational constants in cm-1:             0.142161             0.051952             0.047623
Rotational constants in MHz :          4261.888011          1557.495950          1427.702596

                             ****ORCA TERMINATED NORMALLY****
TOTAL RUN TIME: 0 days 0 hours 0 minutes 33 seconds 256 msec
