                         Program Version 6.0.0  -   RELEASE  -
|  1> ! pbe def2-sv(p) def2/J RI DEFGRID1 loosescf d4 GCP(DFT/SV(P)) printgap
|  2> %output
|  3>     printlevel normal
|  4> end
|  5> * xyz 0 1
|  6> C -2.3153794126 -0.1205041858 -1.0262544084
|  7> C -1.7697234122 0.6650398396 0.1606212627
|  8> C -0.5923983087 0.0126960459 0.8909227587
|  9> C 0.7650018287 -0.0929874119 0.1584693787
| 10> C 1.0983843629 1.1845096376 -0.6176724606
| 11> C 0.8386575653 -1.3130706664 -0.7613241415
| 12> O 1.7792906466 -0.3277446883 1.1421411746
| 13> H -3.2673153006 0.3014438138 -1.3412149562
| 14> H -2.4747619828 -1.1613810049 -0.7554831876
| 15> H -1.6382973961 -0.0818322876 -1.8748394441
| 16> H -1.4960805569 1.6696944545 -0.1632848965
| 17> H -2.5720715134 0.7706993149 0.8953645882
| 18> H -0.4169854822 0.5973561882 1.7993127403
| 19> H -0.8797120266 -0.9915884751 1.210526844
| 20> H 2.1286044763 1.1340590426 -0.9634264905
| 21> H 0.9862577385 2.0603673343 0.0182731403
| 22> H 0.4495968624 1.289820243 -1.4809206944
| 23> H 0.1274719463 -1.2397697559 -1.5743004882
| 24> H 0.6383658997 -2.2140383345 -0.1874163017
| 25> H 1.843390026 -1.3885174586 -1.1700246533
| 26> H 1.8683284379 0.4560152739 1.7005654896
| 27> *
| 28>
| 29>                          ****END OF INPUT****

CARTESIAN COORDINATES (ANGSTROEM)
---------------------------------
  C     -2.315379   -0.120504   -1.026254
  C     -1.769723    0.665040    0.160621
  C     -0.592398    0.012696    0.890923
  C      0.765002   -0.092987    0.158469
  C      1.098384    1.184510   -0.617672
  C      0.838658   -1.313071   -0.761324
  O      1.779291   -0.327745    1.142141
  H     -3.267315    0.301444   -1.341215
  H     -2.474762   -1.161381   -0.755483
  H     -1.638297   -0.081832   -1.874839
  H     -1.496081    1.669694   -0.163285
  H     -2.572072    0.770699    0.895365
  H     -0.416985    0.597356    1.799313
  H     -0.879712   -0.991588    1.210527
  H      2.128604    1.134059   -0.963426
  H      0.986258    2.060367    0.018273
  H      0.449597    1.289820   -1.480921
  H      0.127472   -1.239770   -1.574300
  H      0.638366   -2.214038   -0.187416
  H      1.843390   -1.388517   -1.170025
  H      1.868328    0.456015    1.700565

 Total Charge           Charge          ....    0
 Multiplicity           Mult            ....    1
 Number of Electrons    NEL             ....   58
 Basis Dimension        Dim             ....  126

ORBITAL ENERGIES
----------------

  NO   OCC          E(Eh)            E(eV)
   0   2.0000     -18.732053      -509.7251
   1   2.0000      -9.944137      -270.5937
   2   2.0000      -9.885853      -269.0077
   3   2.0000      -9.880069      -268.8503
   4   2.0000      -9.875003      -268.7125
   5   2.0000      -9.874114      -268.6883
   6   2.0000      -9.866812      -268.4896
   7   2.0000      -0.910927       -24.7876
   8   2.0000      -0.722607       -19.6631
   9   2.0000      -0.677053       -18.4236
  10   2.0000      -0.617252       -16.7963
  11   2.0000      -0.613424       -16.6921
  12   2.0000      -0.533773       -14.5247
  13   2.0000      -0.496963       -13.5230
  14   2.0000      -0.442581       -12.0432
  15   2.0000      -0.411045       -11.1851
  16   2.0000      -0.402499       -10.9526
  17   2.0000      -0.385053       -10.4778
  18   2.0000      -0.375799       -10.2260
  19   2.0000      -0.354387        -9.6434
  20   2.0000      -0.340807        -9.2738
  21   2.0000      -0.330206        -8.9854
  22   2.0000      -0.321968        -8.7612
  23   2.0000      -0.308759        -8.4018
  24   2.0000      -0.300385        -8.1739
  25   2.0000      -0.288550        -7.8518
  26   2.0000      -0.281391        -7.6571
  27   2.0000      -0.260372        -7.0851
  28   2.0000      -0.207176        -5.6375
  29   0.0000       0.022197         0.6040
  30   0.0000       0.053397         1.4530
  31   0.0000       0.060635         1.6500
  32   0.0000       0.072611         1.9758
  33   0.0000       0.077941         2.1209

MULLIKEN ATOMIC CHARGES
-----------------------
   0 C :   -0.289514
   1 C :   -0.178613
   2 C :   -0.107236
   3 C :   -0.054560
   4 C :   -0.239387
   5 C :   -0.210078
   6 O :   -0.427084
   7 H :    0.101376
   8 H :    0.099986
   9 H :    0.118501
  10 H :    0.085907
  11 H :    0.084019
  12 H :    0.056949
  13 H :    0.079730
  14 H :    0.105752
  15 H :    0.087433
  16 H :    0.102680
  17 H :    0.096495
  18 H :    0.099591
  19 H :    0.099561
  20 H :    0.288491
Sum of atomic charges:   -0.0000000

LOEWDIN ATOMIC CHARGES
----------------------
   0 C :   -0.344244
   1 C :   -0.236610
   2 C :   -0.226056
   3 C :   -0.011683
   4 C :   -0.341032
   5 C :   -0.327871
   6 O :   -0.325225
   7 H :    0.120264
   8 H :    0.118418
   9 H :    0.114823
  10 H :    0.114528
  11 H :    0.118913
  12 H :    0.110416
  13 H :    0.117550
  14 H :    0.123127
  15 H :    0.113125
  16 H :    0.121948
  17 H :    0.119294
  18 H :    0.122342
  19 H :    0.122510
  20 H :    0.275461

  Mayer bond orders larger than 0.100000
B(  0-C ,  1-C ) :   1.1660 B(  0-C ,  7-H ) :   0.9473 B(  0-C ,  8-H ) :   0.9518
B(  0-C ,  9-H ) :   0.9391 B(  1-C ,  2-C ) :   1.1205 B(  1-C , 10-H ) :   0.9124
B(  1-C , 11-H ) :   0.9178 B(  2-C ,  3-C ) :   1.0369 B(  2-C , 12-H ) :   0.9038
B(  2-C , 13-H ) :   0.9134 B(  3-C ,  4-C ) :   1.0950 B(  3-C ,  5-C ) :   1.0858
B(  3-C ,  6-O ) :   1.0052 B(  4-C , 14-H ) :   0.9397 B(  4-C , 15-H ) :   0.9403
B(  4-C , 16-H ) :   0.9268 B(  5-C , 17-H ) :   0.9351 B(  5-C , 18-H ) :   0.9389
B(  5-C , 19-H ) :   0.9415 B(  6-O , 20-H ) :   0.8537

Dispersion correction           -0.017293586
FINAL SINGLE POINT ENERGY      -311.517799393221

DIPOLE MOMENT
-------------

Method             : SCF
Type of density    : Electron Density
Multiplicity       :   1
Irrep              :   0
Energy             :  -311.5967394190328150 Eh
Relativity type    :
Basis              : AO
                                X                 Y                 Z
Electronic contribution:      4.063107713      -0.610312190       3.604883646
Nuclear contribution   :     -4.385973067       1.123116643      -3.629567902
                        -----------------------------------------
Total Dipole Moment    :     -0.322865354       0.512804454      -0.024684256
                        -----------------------------------------
Magnitude (a.u.)       :      0.606481457
Magnitude (Debye)      :      1.541553353

Rotational constants in cm-1:             0.127829             0.056176             0.053625
Rotational constants in MHz :          3832.222339          1684.111116          1607.643257

                             ****ORCA TERMINATED NORMALLY****
TOTAL RUN TIME: 0 days 0 hours 0 minutes 8 seconds 519 msec
