                         Program Version 6.0.0  -   RELEASE  -
|  1> ! pbe def2-sv(p) def2/J RI DEFGRID1 loosescf d4 GCP(DFT/SV(P)) printgap
|  2> %output
|  3>     printlevel normal
|  4> end
|  5> * xyz 0 1
|  6> C -2.6125913609 -0.3493482093 0.1715893673
|  7> C -1.6509727791 -1.268723768 -0.2128399289
|  8> C -0.3427401573 -0.8659188363 -0.4125711024
|  9> C 0.0267673023 0.4608989417 -0.2229173855
| 10> C -0.9438015556 1.3734604077 0.1709436865
| 11> C -2.2549666543 0.9739496681 0.3635348839
| 12> C 1.4509334595 0.8996102793 -0.4266683711
| 13> C 2.4370889169 0.1565198173 0.4902059807
| 14> O 2.7299141141 -1.1570574739 0.0686012734
| 15> H -3.6347734609 -0.6631769557 0.322486238
| 16> H -1.9216083584 -2.3039904408 -0.3599210581
| 17> H 0.4041582401 -1.5901921128 -0.6995188379
| 18> H -0.6723130597 2.4079867677 0.3262221084
| 19> H -2.9982481403 1.6969858754 0.6658567295
| 20> H 1.7416414374 0.7283639597 -1.4664337033
| 21> H 1.5338115704 1.9675802747 -0.2225019023
| 22> H 3.3655252129 0.7374633302 0.5699228093
| 23> H 2.0086091951 0.0530120164 1.4901240314
| 24> H 3.1984966744 -1.1175124146 -0.7770835512
| 25> *
| 26>
| 27>                          ****END OF INPUT****

CARTESIAN COORDINATES (ANGSTROEM)
---------------------------------
  C     -2.612591   -0.349348    0.171589
  C     -1.650973   -1.268724   -0.212840
  C     -0.342740   -0.865919   -0.412571
  C      0.026767    0.460899   -0.222917
  C     -0.943802    1.373460    0.170944
  C     -2.254967    0.973950    0.363535
  C      1.450933    0.899610   -0.426668
  C      2.437089    0.156520    0.490206
  O      2.729914   -1.157057    0.068601
  H     -3.634773   -0.663177    0.322486
  H     -1.921608   -2.303990   -0.359921
  H      0.404158   -1.590192   -0.699519
  H     -0.672313    2.407987    0.326222
  H     -2.998248    1.696986    0.665857
  H      1.741641    0.728364   -1.466434
  H      1.533812    1.967580   -0.222502
  H      3.365525    0.737463    0.569923
  H      2.008609    0.053012    1.490124
  H      3.198497   -1.117512   -0.777084

 Total Charge           Charge          ....    0
 Multiplicity           Mult            ....    1
 Number of Electrons    NEL             ....   66
 Basis Dimension        Dim             ....  146

ORBITAL ENERGIES
----------------

  NO   OCC          E(Eh)            E(eV)
   0   2.0000     -18.749031      -510.1871
   1   2.0000      -9.935423      -270.3566
   2   2.0000      -9.897958      -269.3371
   3   2.0000      -9.893935      -269.2277
   4   2.0000      -9.886115      -269.0149
   5   2.0000      -9.885815      -269.0067
   6   2.0000      -9.885448      -268.9967
   7   2.0000      -9.884553      -268.9724
   8   2.0000      -9.881925      -268.9008
   9   2.0000      -0.925603       -25.1869
  10   2.0000      -0.773590       -21.0505
  11   2.0000      -0.705090       -19.1865
  12   2.0000      -0.663571       -18.0567
  13   2.0000      -0.640645       -17.4328
  14   2.0000      -0.570189       -15.5156
  15   2.0000      -0.537650       -14.6302
  16   2.0000      -0.517900       -14.0928
  17   2.0000      -0.469360       -12.7719
  18   2.0000      -0.442405       -12.0385
  19   2.0000      -0.416324       -11.3287
  20   2.0000      -0.408499       -11.1158
  21   2.0000      -0.392672       -10.6851
  22   2.0000      -0.373593       -10.1660
  23   2.0000      -0.366341        -9.9686
  24   2.0000      -0.351877        -9.5751
  25   2.0000      -0.337771        -9.1912
  26   2.0000      -0.317994        -8.6531
  27   2.0000      -0.297956        -8.1078
  28   2.0000      -0.293002        -7.9730
  29   2.0000      -0.275033        -7.4840
  30   2.0000      -0.228263        -6.2113
  31   2.0000      -0.222982        -6.0677
  32   2.0000      -0.210145        -5.7183
  33   0.0000      -0.030504        -0.8301
  34   0.0000      -0.028065        -0.7637
  35   0.0000       0.025043         0.6814
  36   0.0000       0.050063         1.3623
  37   0.0000       0.062950         1.7130

MULLIKEN ATOMIC CHARGES
-----------------------
   0 C :   -0.048749
   1 C :   -0.047118
   2 C :   -0.108938
   3 C :    0.058246
   4 C :   -0.120241
   5 C :   -0.049500
   6 C :   -0.128068
   7 C :    0.004808
   8 O :   -0.424082
   9 H :    0.050058
  10 H :    0.049869
  11 H :    0.041647
  12 H :    0.035053
  13 H :    0.048362
  14 H :    0.088277
  15 H :    0.076156
  16 H :    0.077869
  17 H :    0.100997
  18 H :    0.295353
Sum of atomic charges:   -0.0000000

LOEWDIN ATOMIC CHARGES
----------------------
   0 C :   -0.128929
   1 C :   -0.120816
   2 C :   -0.122547
   3 C :   -0.044240
   4 C :   -0.127675
   5 C :   -0.123540
   6 C :   -0.232607
   7 C :   -0.117614
   8 O :   -0.332233
   9 H :    0.121574
  10 H :    0.122381
  11 H :    0.122172
  12 H :    0.118681
  13 H :    0.121934
  14 H :    0.124006
  15 H :    0.123635
  16 H :    0.096465
  17 H :    0.118559
  18 H :    0.280793

  Mayer bond orders larger than 0.100000
B(  0-C ,  1-C ) :   1.3733 B(  0-C ,  5-C ) :   1.3859 B(  0-C ,  9-H ) :   0.9654
B(  1-C ,  2-C ) :   1.3738 B(  1-C , 10-H ) :   0.9647 B(  2-C ,  3-C ) :   1.3923
B(  2-C , 11-H ) :   0.9522 B(  3-C ,  4-C ) :   1.3994 B(  3-C ,  6-C ) :   1.0732
B(  4-C ,  5-C ) :   1.3726 B(  4-C , 12-H ) :   0.9580 B(  5-C , 13-H ) :   0.9627
B(  6-C ,  7-C ) :   1.0725 B(  6-C , 14-H ) :   0.9026 B(  6-C , 15-H ) :   0.8961
B(  7-C ,  8-O ) :   1.0574 B(  7-C , 16-H ) :   0.9270 B(  7-C , 17-H ) :   0.9310
B(  8-O , 18-H ) :   0.8501

Dispersion correction           -0.018772129
FINAL SINGLE POINT ENERGY      -385.218493237537

DIPOLE MOMENT
-------------

Method             : SCF
Type of density    : Electron Density
Multiplicity       :   1
Irrep              :   0
Energy             :  -385.2809243606861287 Eh
Relativity type    :
Basis              : AO
                                X                 Y                 Z
Electronic contribution:     -2.508913983      -1.365787151      -0.223877739
Nuclear contribution   :      2.878698699       1.780871740      -0.140503390
                        -----------------------------------------
Total Dipole Moment    :      0.369784716       0.415084590      -0.364381129
                        -----------------------------------------
Magnitude (a.u.)       :      0.664687566
Magnitude (Debye)      :      1.689501525

Rotational constants in cm-1:             0.124087             0.035088             0.028861
Rotational constants in MHz :          3720.041719          1051.918324           865.225311

                             ****ORCA TERMINATED NORMALLY****
TOTAL RUN TIME: 0 days 0 hours 0 minutes 8 seconds 123 msec
