                         Program Version 6.0.0  -   RELEASE  -
|  1> ! r2scan-3c def2/J RI DEFGRID2 scfconv6 printgap
|  2> %output
|  3>     printlevel normal
|  4> end
|  5> * xyz 0 1
|  6> C -1.178906924 0.1403438799 -0.4965225317
|  7> C -0.0507009974 0.4961392589 0.4887147606
|  8> C 0.9558736001 -0.6600939404 0.5913940143
|  9> O 1.6560418388 -0.8536564082 -0.6117230973
| 10> O 0.6748425029 1.6328458698 0.0689445889
| 11> O -2.0450402118 -0.8426475521 0.0145527536
| 12> H -0.7389765458 -0.2848844662 -1.4018914504
| 13> H -1.7364790316 1.0467250563 -0.7687050803
| 14> H -0.4800937735 0.6658854465 1.4884500695
| 15> H 0.4195655803 -1.5885845227 0.7947631786
| 16> H 1.6563078209 -0.4544645483 1.4115510196
| 17> H 2.0430412776 -0.0009156075 -0.863039902
| 18> H 0.084721408 2.3943874465 -0.0087599827
| 19> H -2.5235439856 -0.489506801 0.7782693142
| 20> *
| 21>
| 22>                          ****END OF INPUT****

CARTESIAN COORDINATES (ANGSTROEM)
---------------------------------
  C     -1.178907    0.140344   -0.496523
  C     -0.050701    0.496139    0.488715
  C      0.955874   -0.660094    0.591394
  O      1.656042   -0.853656   -0.611723
  O      0.674843    1.632846    0.068945
  O     -2.045040   -0.842648    0.014553
  H     -0.738977   -0.284884   -1.401891
  H     -1.736479    1.046725   -0.768705
  H     -0.480094    0.665885    1.488450
  H      0.419566   -1.588585    0.794763
  H      1.656308   -0.454465    1.411551
  H      2.043041   -0.000916   -0.863040
  H      0.084721    2.394387   -0.008760
  H     -2.523544   -0.489507    0.778269

 Total Charge           Charge          ....    0
 Multiplicity           Mult            ....    1
 Number of Electrons    NEL             ....   50
 Basis Dimension        Dim             ....  169

ORBITAL ENERGIES
----------------

  NO   OCC          E(Eh)            E(eV)
   0   2.0000     -18.968991      -516.1725
   1   2.0000     -18.959688      -515.9193
   2   2.0000     -18.944735      -515.5124
   3   2.0000     -10.090602      -274.5792
   4   2.0000     -10.080221      -274.2967
   5   2.0000     -10.074175      -274.1322
   6   2.0000      -1.012871       -27.5616
   7   2.0000      -0.994445       -27.0602
   8   2.0000      -0.978842       -26.6356
   9   2.0000      -0.725228       -19.7344
  10   2.0000      -0.646038       -17.5796
  11   2.0000      -0.578002       -15.7282
  12   2.0000      -0.509163       -13.8550
  13   2.0000      -0.484161       -13.1747
  14   2.0000      -0.459987       -12.5169
  15   2.0000      -0.445704       -12.1282
  16   2.0000      -0.393147       -10.6981
  17   2.0000      -0.382893       -10.4191
  18   2.0000      -0.376642       -10.2489
  19   2.0000      -0.342768        -9.3272
  20   2.0000      -0.310131        -8.4391
  21   2.0000      -0.295949        -8.0532
  22   2.0000      -0.267028        -7.2662
  23   2.0000      -0.245081        -6.6690
  24   2.0000      -0.230069        -6.2605
  25   0.0000       0.035579         0.9682
  26   0.0000       0.047231         1.2852
  27   0.0000       0.093547         2.5455
  28   0.0000       0.116230         3.1628
  29   0.0000       0.126839         3.4515

MULLIKEN ATOMIC CHARGES
-----------------------
   0 C :   -0.249616
   1 C :    0.129160
   2 C :   -0.187415
   3 O :   -0.436713
   4 O :   -0.448315
   5 O :   -0.412043
   6 H :    0.173582
   7 H :    0.119621
   8 H :    0.119169
   9 H :    0.152876
  10 H :    0.137923
  11 H :    0.314408
  12 H :    0.291619
  13 H :    0.295745
Sum of atomic charges:   -0.0000000

LOEWDIN ATOMIC CHARGES
----------------------
   0 C :    0.022311
   1 C :    0.067843
   2 C :    0.030865
   3 O :   -0.596804
   4 O :   -0.603541
   5 O :   -0.605870
   6 H :    0.195332
   7 H :    0.154964
   8 H :    0.165621
   9 H :    0.190793
  10 H :    0.163231
  11 H :    0.276462
  12 H :    0.273034
  13 H :    0.265760

  Mayer bond orders larger than 0.100000
B(  0-C ,  1-C ) :   0.8880 B(  0-C ,  5-O ) :   0.9918 B(  0-C ,  6-H ) :   0.9658
B(  0-C ,  7-H ) :   0.9850 B(  1-C ,  2-C ) :   0.9439 B(  1-C ,  4-O ) :   0.8631
B(  1-C ,  8-H ) :   0.9419 B(  2-C ,  3-O ) :   0.9954 B(  2-C ,  9-H ) :   0.9600
B(  2-C , 10-H ) :   0.9720 B(  3-O , 11-H ) :   0.8742 B(  4-O , 12-H ) :   0.8967
B(  5-O , 13-H ) :   0.8941

Dispersion correction           -0.003057079
FINAL SINGLE POINT ENERGY      -344.723337459545

DIPOLE MOMENT
-------------

Method             : SCF
Type of density    : Electron Density
Multiplicity       :   1
Irrep              :   0
Energy             :  -344.7308410506170162 Eh
Relativity type    :
Basis              : AO
                                X                 Y                 Z
Electronic contribution:      0.608340953      -0.111227296      -0.729547077
Nuclear contribution   :     -1.192354868       1.208027182       1.334340843
                        -----------------------------------------
Total Dipole Moment    :     -0.584013915       1.096799886       0.604793767
                        -----------------------------------------
Magnitude (a.u.)       :      1.381961556
Magnitude (Debye)      :      3.512667120

Rotational constants in cm-1:             0.156147             0.089211             0.067903
Rotational constants in MHz :          4681.162867          2674.478049          2035.683158

                             ****ORCA TERMINATED NORMALLY****
TOTAL RUN TIME: 0 days 0 hours 0 minutes 20 seconds 790 msec
