                         Program Version 6.0.0  -   RELEASE  -
|  1> ! r2scan-3c def2/J RI DEFGRID2 scfconv6 printgap
|  2> %output
|  3>     printlevel normal
|  4> end
|  5> %cpcm
|  6>     smd true
|  7>     smdsolvent "water"
|  8> end
|  9> * xyz 0 1
| 10> C -1.178906924 0.1403438799 -0.4965225317
| 11> C -0.0507009974 0.4961392589 0.4887147606
| 12> C 0.9558736001 -0.6600939404 0.5913940143
| 13> O 1.6560418388 -0.8536564082 -0.6117230973
| 14> O 0.6748425029 1.6328458698 0.0689445889
| 15> O -2.0450402118 -0.8426475521 0.0145527536
| 16> H -0.7389765458 -0.2848844662 -1.4018914504
| 17> H -1.7364790316 1.0467250563 -0.7687050803
| 18> H -0.4800937735 0.6658854465 1.4884500695
| 19> H 0.4195655803 -1.5885845227 0.7947631786
| 20> H 1.6563078209 -0.4544645483 1.4115510196
| 21> H 2.0430412776 -0.0009156075 -0.863039902
| 22> H 0.084721408 2.3943874465 -0.0087599827
| 23> H -2.5235439856 -0.489506801 0.7782693142
| 24> *
| 25>
| 26>                          ****END OF INPUT****

CARTESIAN COORDINATES (ANGSTROEM)
---------------------------------
  C     -1.178907    0.140344   -0.496523
  C     -0.050701    0.496139    0.488715
  C      0.955874   -0.660094    0.591394
  O      1.656042   -0.853656   -0.611723
  O      0.674843    1.632846    0.068945
  O     -2.045040   -0.842648    0.014553
  H     -0.738977   -0.284884   -1.401891
  H     -1.736479    1.046725   -0.768705
  H     -0.480094    0.665885    1.488450
  H      0.419566   -1.588585    0.794763
  H      1.656308   -0.454465    1.411551
  H      2.043041   -0.000916   -0.863040
  H      0.084721    2.394387   -0.008760
  H     -2.523544   -0.489507    0.778269

 Total Charge           Charge          ....    0
 Multiplicity           Mult            ....    1
 Number of Electrons    NEL             ....   50
 Basis Dimension        Dim             ....  169

ORBITAL ENERGIES
----------------

  NO   OCC          E(Eh)            E(eV)
   0   2.0000     -18.958996      -515.9005
   1   2.0000     -18.955922      -515.8168
   2   2.0000     -18.953666      -515.7555
   3   2.0000     -10.079625      -274.2805
   4   2.0000     -10.071222      -274.0519
   5   2.0000     -10.070475      -274.0316
   6   2.0000      -1.007033       -27.4028
   7   2.0000      -0.990216       -26.9451
   8   2.0000      -0.981430       -26.7061
   9   2.0000      -0.717617       -19.5273
  10   2.0000      -0.640058       -17.4169
  11   2.0000      -0.572049       -15.5662
  12   2.0000      -0.498759       -13.5719
  13   2.0000      -0.477459       -12.9923
  14   2.0000      -0.455271       -12.3886
  15   2.0000      -0.440953       -11.9989
  16   2.0000      -0.393673       -10.7124
  17   2.0000      -0.382308       -10.4031
  18   2.0000      -0.371388       -10.1060
  19   2.0000      -0.340087        -9.2542
  20   2.0000      -0.307712        -8.3733
  21   2.0000      -0.299979        -8.1628
  22   2.0000      -0.262439        -7.1413
  23   2.0000      -0.247643        -6.7387
  24   2.0000      -0.229798        -6.2531
  25   0.0000       0.054146         1.4734
  26   0.0000       0.069332         1.8866
  27   0.0000       0.108419         2.9502
  28   0.0000       0.129832         3.5329
  29   0.0000       0.141700         3.8558

MULLIKEN ATOMIC CHARGES
-----------------------
   0 C :   -0.246990
   1 C :    0.130271
   2 C :   -0.196596
   3 O :   -0.507670
   4 O :   -0.514490
   5 O :   -0.495435
   6 H :    0.164007
   7 H :    0.150285
   8 H :    0.150900
   9 H :    0.159371
  10 H :    0.153182
  11 H :    0.353277
  12 H :    0.346159
  13 H :    0.353729
Sum of atomic charges:   -0.0000000

LOEWDIN ATOMIC CHARGES
----------------------
   0 C :    0.023320
   1 C :    0.076145
   2 C :    0.026300
   3 O :   -0.635939
   4 O :   -0.620879
   5 O :   -0.638651
   6 H :    0.188718
   7 H :    0.170441
   8 H :    0.181046
   9 H :    0.191789
  10 H :    0.170555
  11 H :    0.288252
  12 H :    0.292339
  13 H :    0.286564

  Mayer bond orders larger than 0.100000
B(  0-C ,  1-C ) :   0.9015 B(  0-C ,  5-O ) :   0.9835 B(  0-C ,  6-H ) :   0.9712
B(  0-C ,  7-H ) :   0.9710 B(  1-C ,  2-C ) :   0.9479 B(  1-C ,  4-O ) :   0.8685
B(  1-C ,  8-H ) :   0.9353 B(  2-C ,  3-O ) :   0.9673 B(  2-C ,  9-H ) :   0.9610
B(  2-C , 10-H ) :   0.9643 B(  3-O , 11-H ) :   0.8545 B(  4-O , 12-H ) :   0.8710
B(  5-O , 13-H ) :   0.8651

Dispersion correction           -0.003057079
FINAL SINGLE POINT ENERGY      -344.744384143638

DIPOLE MOMENT
-------------

Method             : SCF
Type of density    : Electron Density
Multiplicity       :   1
Irrep              :   0
Energy             :  -344.7518877347101238 Eh
Relativity type    :
Basis              : AO
                                X                 Y                 Z
Electronic contribution:      0.350479654       0.353326675      -0.435317801
Nuclear contribution   :     -1.192354868       1.208027182       1.334340843
                        -----------------------------------------
Total Dipole Moment    :     -0.841875214       1.561353857       0.899023043
                        -----------------------------------------
Magnitude (a.u.)       :      1.988673471
Magnitude (Debye)      :      5.054806251

Rotational constants in cm-1:             0.156147             0.089211             0.067903
Rotational constants in MHz :          4681.162867          2674.478049          2035.683158

                             ****ORCA TERMINATED NORMALLY****
TOTAL RUN TIME: 0 days 0 hours 0 minutes 24 seconds 39 msec
