                         Program Version 6.0.0  -   RELEASE  -
|  1> ! r2scan-3c def2/J RI DEFGRID2 scfconv6 printgap
|  2> %output
|  3>     printlevel normal
|  4> end
|  5> * xyz 0 1
|  6> C 1.9594437143 0.1731176267 0.7710350349
|  7> C 1.4304156722 -0.68318385 -0.3757651014
|  8> C 0.2496127611 -0.071212999 -1.1352165988
|  9> C -1.0628411485 0.1390762196 -0.3551787266
| 10> H -1.858961256 0.2971730067 -1.0943567946
| 11> C -1.4424301322 -1.053445285 0.5217133405
| 12> O -1.0639859091 1.3502512149 0.382413256
| 13> H 2.916965329 -0.2144577714 1.1123672936
| 14> H 1.2819396574 0.1653395311 1.6216710268
| 15> H 2.1052862676 1.2004132267 0.4448053788
| 16> H 2.2357968042 -0.8250084117 -1.1004010467
| 17> H 1.1571470141 -1.6704090412 -0.0010417533
| 18> H 0.5453768582 0.9018938836 -1.5352914029
| 19> H 0.0233623604 -0.721117628 -1.9827424356
| 20> H -1.4808176054 -1.9567089919 -0.0797777775
| 21> H -0.7234112087 -1.1912661049 1.3249293089
| 22> H -2.4213237392 -0.8822429041 0.9630606264
| 23> H -0.4077623658 1.2859360964 1.0896206151
| 24> *
| 25>
| 26>                          ****END OF INPUT****

CARTESIAN COORDINATES (ANGSTROEM)
---------------------------------
  C      1.959444    0.173118    0.771035
  C      1.430416   -0.683184   -0.375765
  C      0.249613   -0.071213   -1.135217
  C     -1.062841    0.139076   -0.355179
  H     -1.858961    0.297173   -1.094357
  C     -1.442430   -1.053445    0.521713
  O     -1.063986    1.350251    0.382413
  H      2.916965   -0.214458    1.112367
  H      1.281940    0.165340    1.621671
  H      2.105286    1.200413    0.444805
  H      2.235797   -0.825008   -1.100401
  H      1.157147   -1.670409   -0.001042
  H      0.545377    0.901894   -1.535291
  H      0.023362   -0.721118   -1.982742
  H     -1.480818   -1.956709   -0.079778
  H     -0.723411   -1.191266    1.324929
  H     -2.421324   -0.882243    0.963061
  H     -0.407762    1.285936    1.089621

 Total Charge           Charge          ....    0
 Multiplicity           Mult            ....    1
 Number of Electrons    NEL             ....   50
 Basis Dimension        Dim             ....  179

ORBITAL ENERGIES
----------------

  NO   OCC          E(Eh)            E(eV)
   0   2.0000     -18.939839      -515.3792
   1   2.0000     -10.078513      -274.2503
   2   2.0000     -10.030511      -272.9441
   3   2.0000     -10.025685      -272.8128
   4   2.0000     -10.023330      -272.7487
   5   2.0000     -10.019241      -272.6374
   6   2.0000      -0.978975       -26.6393
   7   2.0000      -0.764691       -20.8083
   8   2.0000      -0.712638       -19.3919
   9   2.0000      -0.655639       -17.8408
  10   2.0000      -0.589449       -16.0397
  11   2.0000      -0.537960       -14.6386
  12   2.0000      -0.458633       -12.4800
  13   2.0000      -0.440782       -11.9943
  14   2.0000      -0.413840       -11.2612
  15   2.0000      -0.394953       -10.7472
  16   2.0000      -0.389718       -10.6048
  17   2.0000      -0.374654       -10.1949
  18   2.0000      -0.344383        -9.3711
  19   2.0000      -0.333058        -9.0630
  20   2.0000      -0.332279        -9.0418
  21   2.0000      -0.305866        -8.3230
  22   2.0000      -0.300032        -8.1643
  23   2.0000      -0.272717        -7.4210
  24   2.0000      -0.229652        -6.2491
  25   0.0000       0.060003         1.6328
  26   0.0000       0.095825         2.6075
  27   0.0000       0.102577         2.7913
  28   0.0000       0.123253         3.3539
  29   0.0000       0.128831         3.5057

MULLIKEN ATOMIC CHARGES
-----------------------
   0 C :   -0.485843
   1 C :   -0.259334
   2 C :   -0.278236
   3 C :   -0.017389
   4 H :    0.142634
   5 C :   -0.486136
   6 O :   -0.406064
   7 H :    0.150890
   8 H :    0.127677
   9 H :    0.163096
  10 H :    0.145125
  11 H :    0.149672
  12 H :    0.160026
  13 H :    0.142506
  14 H :    0.150463
  15 H :    0.144969
  16 H :    0.161815
  17 H :    0.294129
Sum of atomic charges:    0.0000000

LOEWDIN ATOMIC CHARGES
----------------------
   0 C :   -0.429070
   1 C :   -0.315991
   2 C :   -0.294181
   3 C :    0.041982
   4 H :    0.181418
   5 C :   -0.400305
   6 O :   -0.608309
   7 H :    0.153118
   8 H :    0.140333
   9 H :    0.154503
  10 H :    0.154829
  11 H :    0.153982
  12 H :    0.168023
  13 H :    0.161171
  14 H :    0.158676
  15 H :    0.153392
  16 H :    0.161612
  17 H :    0.264817

  Mayer bond orders larger than 0.100000
B(  0-C ,  1-C ) :   0.8826 B(  0-C ,  7-H ) :   0.9675 B(  0-C ,  8-H ) :   0.9724
B(  0-C ,  9-H ) :   0.9826 B(  1-C ,  2-C ) :   0.8979 B(  1-C , 10-H ) :   0.9682
B(  1-C , 11-H ) :   0.9744 B(  2-C ,  3-C ) :   0.8944 B(  2-C , 12-H ) :   0.9897
B(  2-C , 13-H ) :   0.9663 B(  3-C ,  4-H ) :   0.9689 B(  3-C ,  5-C ) :   0.9280
B(  3-C ,  6-O ) :   0.9524 B(  5-C , 14-H ) :   0.9745 B(  5-C , 15-H ) :   0.9656
B(  5-C , 16-H ) :   0.9672 B(  6-O , 17-H ) :   0.8825

Dispersion correction           -0.004506917
FINAL SINGLE POINT ENERGY      -272.899731889487

DIPOLE MOMENT
-------------

Method             : SCF
Type of density    : Electron Density
Multiplicity       :   1
Irrep              :   0
Energy             :  -272.9050262722270190 Eh
Relativity type    :
Basis              : AO
                                X                 Y                 Z
Electronic contribution:     -2.715718328       2.823871649      -0.687067434
Nuclear contribution   :      3.149197017      -3.367159326       0.721346779
                        -----------------------------------------
Total Dipole Moment    :      0.433478689      -0.543287677       0.034279345
                        -----------------------------------------
Magnitude (a.u.)       :      0.695873801
Magnitude (Debye)      :      1.768770636

Rotational constants in cm-1:             0.153283             0.080928             0.074051
Rotational constants in MHz :          4595.306001          2426.147024          2220.002535

                             ****ORCA TERMINATED NORMALLY****
TOTAL RUN TIME: 0 days 0 hours 0 minutes 23 seconds 447 msec
