                         Program Version 6.0.0  -   RELEASE  -
|  1> ! r2scan-3c def2/J RI DEFGRID2 scfconv6 printgap
|  2> %output
|  3>     printlevel normal
|  4> end
|  5> %cpcm
|  6>     smd true
|  7>     smdsolvent "water"
|  8> end
|  9> * xyz 0 1
| 10> C 1.9594437143 0.1731176267 0.7710350349
| 11> C 1.4304156722 -0.68318385 -0.3757651014
| 12> C 0.2496127611 -0.071212999 -1.1352165988
| 13> C -1.0628411485 0.1390762196 -0.3551787266
| 14> H -1.858961256 0.2971730067 -1.0943567946
| 15> C -1.4424301322 -1.053445285 0.5217133405
| 16> O -1.0639859091 1.3502512149 0.382413256
| 17> H 2.916965329 -0.2144577714 1.1123672936
| 18> H 1.2819396574 0.1653395311 1.6216710268
| 19> H 2.1052862676 1.2004132267 0.4448053788
| 20> H 2.2357968042 -0.8250084117 -1.1004010467
| 21> H 1.1571470141 -1.6704090412 -0.0010417533
| 22> H 0.5453768582 0.9018938836 -1.5352914029
| 23> H 0.0233623604 -0.721117628 -1.9827424356
| 24> H -1.4808176054 -1.9567089919 -0.0797777775
| 25> H -0.7234112087 -1.1912661049 1.3249293089
| 26> H -2.4213237392 -0.8822429041 0.9630606264
| 27> H -0.4077623658 1.2859360964 1.0896206151
| 28> *
| 29>
| 30>                          ****END OF INPUT****

CARTESIAN COORDINATES (ANGSTROEM)
---------------------------------
  C      1.959444    0.173118    0.771035
  C      1.430416   -0.683184   -0.375765
  C      0.249613   -0.071213   -1.135217
  C     -1.062841    0.139076   -0.355179
  H     -1.858961    0.297173   -1.094357
  C     -1.442430   -1.053445    0.521713
  O     -1.063986    1.350251    0.382413
  H      2.916965   -0.214458    1.112367
  H      1.281940    0.165340    1.621671
  H      2.105286    1.200413    0.444805
  H      2.235797   -0.825008   -1.100401
  H      1.157147   -1.670409   -0.001042
  H      0.545377    0.901894   -1.535291
  H      0.023362   -0.721118   -1.982742
  H     -1.480818   -1.956709   -0.079778
  H     -0.723411   -1.191266    1.324929
  H     -2.421324   -0.882243    0.963061
  H     -0.407762    1.285936    1.089621

 Total Charge           Charge          ....    0
 Multiplicity           Mult            ....    1
 Number of Electrons    NEL             ....   50
 Basis Dimension        Dim             ....  179

ORBITAL ENERGIES
----------------

  NO   OCC          E(Eh)            E(eV)
   0   2.0000     -18.946762      -515.5676
   1   2.0000     -10.074323      -274.1363
   2   2.0000     -10.017572      -272.5920
   3   2.0000     -10.014750      -272.5152
   4   2.0000     -10.009611      -272.3754
   5   2.0000     -10.009262      -272.3659
   6   2.0000      -0.984518       -26.7901
   7   2.0000      -0.754468       -20.5301
   8   2.0000      -0.703202       -19.1351
   9   2.0000      -0.645078       -17.5535
  10   2.0000      -0.581299       -15.8180
  11   2.0000      -0.530899       -14.4465
  12   2.0000      -0.451848       -12.2954
  13   2.0000      -0.434747       -11.8301
  14   2.0000      -0.404958       -11.0195
  15   2.0000      -0.388367       -10.5680
  16   2.0000      -0.378506       -10.2997
  17   2.0000      -0.365483        -9.9453
  18   2.0000      -0.335343        -9.1251
  19   2.0000      -0.327383        -8.9086
  20   2.0000      -0.321197        -8.7402
  21   2.0000      -0.297888        -8.1059
  22   2.0000      -0.289957        -7.8901
  23   2.0000      -0.268768        -7.3136
  24   2.0000      -0.235179        -6.3995
  25   0.0000       0.073800         2.0082
  26   0.0000       0.108009         2.9391
  27   0.0000       0.114070         3.1040
  28   0.0000       0.132875         3.6157
  29   0.0000       0.139916         3.8073

MULLIKEN ATOMIC CHARGES
-----------------------
   0 C :   -0.528572
   1 C :   -0.254807
   2 C :   -0.306154
   3 C :    0.007403
   4 H :    0.151876
   5 C :   -0.529426
   6 O :   -0.500790
   7 H :    0.158275
   8 H :    0.157041
   9 H :    0.166191
  10 H :    0.152799
  11 H :    0.156665
  12 H :    0.158538
  13 H :    0.157883
  14 H :    0.168215
  15 H :    0.170470
  16 H :    0.162198
  17 H :    0.352193
Sum of atomic charges:    0.0000000

LOEWDIN ATOMIC CHARGES
----------------------
   0 C :   -0.435928
   1 C :   -0.316362
   2 C :   -0.294807
   3 C :    0.041256
   4 H :    0.184116
   5 C :   -0.404621
   6 O :   -0.648404
   7 H :    0.154346
   8 H :    0.150488
   9 H :    0.154856
  10 H :    0.156395
  11 H :    0.156768
  12 H :    0.166321
  13 H :    0.166805
  14 H :    0.165457
  15 H :    0.161900
  16 H :    0.160361
  17 H :    0.281052

  Mayer bond orders larger than 0.100000
B(  0-C ,  1-C ) :   0.8708 B(  0-C ,  7-H ) :   0.9650 B(  0-C ,  8-H ) :   0.9694
B(  0-C ,  9-H ) :   0.9814 B(  1-C ,  2-C ) :   0.8975 B(  1-C , 10-H ) :   0.9693
B(  1-C , 11-H ) :   0.9727 B(  2-C ,  3-C ) :   0.8983 B(  2-C , 12-H ) :   0.9901
B(  2-C , 13-H ) :   0.9639 B(  3-C ,  4-H ) :   0.9667 B(  3-C ,  5-C ) :   0.9224
B(  3-C ,  6-O ) :   0.9305 B(  5-C , 14-H ) :   0.9693 B(  5-C , 15-H ) :   0.9630
B(  5-C , 16-H ) :   0.9649 B(  6-O , 17-H ) :   0.8566

Dispersion correction           -0.004506917
FINAL SINGLE POINT ENERGY      -272.906366775517

DIPOLE MOMENT
-------------

Method             : SCF
Type of density    : Electron Density
Multiplicity       :   1
Irrep              :   0
Energy             :  -272.9116611582571750 Eh
Relativity type    :
Basis              : AO
                                X                 Y                 Z
Electronic contribution:     -2.577747720       2.593160282      -0.621647353
Nuclear contribution   :      3.149197017      -3.367159326       0.721346779
                        -----------------------------------------
Total Dipole Moment    :      0.571449297      -0.773999045       0.099699425
                        -----------------------------------------
Magnitude (a.u.)       :      0.967248053
Magnitude (Debye)      :      2.458549166

Rotational constants in cm-1:             0.153283             0.080928             0.074051
Rotational constants in MHz :          4595.306001          2426.147024          2220.002535

                             ****ORCA TERMINATED NORMALLY****
TOTAL RUN TIME: 0 days 0 hours 0 minutes 27 seconds 459 msec
