                         Program Version 6.0.0  -   RELEASE  -
|  1> ! pbe def2-sv(p) def2/J RI DEFGRID1 loosescf d4 GCP(DFT/SV(P)) printgap
|  2> %output
|  3>     printlevel normal
|  4> end
|  5> * xyz 0 1
|  6> C 2.1170491713 -1.0166272216 -0.419299958
|  7> C 1.7536142664 0.3776902893 0.0774341261
|  8> C 0.3722982551 0.4616446644 0.7286916387
|  9> C -0.8019507994 0.2098372609 -0.2381799479
| 10> H -0.4726957504 0.3996484777 -1.2660368865
| 11> C -1.3520832183 -1.2113099637 -0.1282782054
| 12> O -1.840071614 1.1599102514 -0.0391044568
| 13> H 2.0283090073 -1.7432915932 0.3849963269
| 14> H 3.1429641435 -1.0283377346 -0.7795883851
| 15> H 1.4687419944 -1.3190778053 -1.2372916506
| 16> H 2.4948631406 0.6924297699 0.8155326941
| 17> H 1.7987924335 1.0824758879 -0.7558010909
| 18> H 0.3207987078 -0.2422906437 1.5619385146
| 19> H 0.2530381703 1.4706827164 1.1310327558
| 20> H -2.1840795676 -1.3391099747 -0.8171411253
| 21> H -0.5828342817 -1.9375606414 -0.3672094092
| 22> H -1.7052932137 -1.3986953166 0.8840262998
| 23> H -2.2467684145 0.9978902141 0.8235675151
| 24> *
| 25>
| 26>                          ****END OF INPUT****

CARTESIAN COORDINATES (ANGSTROEM)
---------------------------------
  C      2.117049   -1.016627   -0.419300
  C      1.753614    0.377690    0.077434
  C      0.372298    0.461645    0.728692
  C     -0.801951    0.209837   -0.238180
  H     -0.472696    0.399648   -1.266037
  C     -1.352083   -1.211310   -0.128278
  O     -1.840072    1.159910   -0.039104
  H      2.028309   -1.743292    0.384996
  H      3.142964   -1.028338   -0.779588
  H      1.468742   -1.319078   -1.237292
  H      2.494863    0.692430    0.815533
  H      1.798792    1.082476   -0.755801
  H      0.320799   -0.242291    1.561939
  H      0.253038    1.470683    1.131033
  H     -2.184080   -1.339110   -0.817141
  H     -0.582834   -1.937561   -0.367209
  H     -1.705293   -1.398695    0.884026
  H     -2.246768    0.997890    0.823568

 Total Charge           Charge          ....    0
 Multiplicity           Mult            ....    1
 Number of Electrons    NEL             ....   50
 Basis Dimension        Dim             ....  108

ORBITAL ENERGIES
----------------

  NO   OCC          E(Eh)            E(eV)
   0   2.0000     -18.733942      -509.7765
   1   2.0000      -9.933776      -270.3118
   2   2.0000      -9.885358      -268.9943
   3   2.0000      -9.878458      -268.8065
   4   2.0000      -9.875340      -268.7217
   5   2.0000      -9.875040      -268.7135
   6   2.0000      -0.912327       -24.8257
   7   2.0000      -0.718088       -19.5402
   8   2.0000      -0.664201       -18.0738
   9   2.0000      -0.612885       -16.6775
  10   2.0000      -0.548106       -14.9147
  11   2.0000      -0.516726       -14.0608
  12   2.0000      -0.435254       -11.8439
  13   2.0000      -0.410949       -11.1825
  14   2.0000      -0.406441       -11.0598
  15   2.0000      -0.378540       -10.3006
  16   2.0000      -0.367191        -9.9918
  17   2.0000      -0.350888        -9.5481
  18   2.0000      -0.335806        -9.1377
  19   2.0000      -0.326461        -8.8835
  20   2.0000      -0.298835        -8.1317
  21   2.0000      -0.289793        -7.8857
  22   2.0000      -0.282662        -7.6916
  23   2.0000      -0.262993        -7.1564
  24   2.0000      -0.207070        -5.6347
  25   0.0000       0.032826         0.8932
  26   0.0000       0.044928         1.2226
  27   0.0000       0.062482         1.7002
  28   0.0000       0.072873         1.9830
  29   0.0000       0.089581         2.4376

MULLIKEN ATOMIC CHARGES
-----------------------
   0 C :   -0.293054
   1 C :   -0.194872
   2 C :   -0.142347
   3 C :    0.021580
   4 H :    0.073252
   5 C :   -0.270592
   6 O :   -0.432582
   7 H :    0.099212
   8 H :    0.104462
   9 H :    0.114959
  10 H :    0.085578
  11 H :    0.092768
  12 H :    0.071382
  13 H :    0.082859
  14 H :    0.109661
  15 H :    0.102897
  16 H :    0.087014
  17 H :    0.287824
Sum of atomic charges:   -0.0000000

LOEWDIN ATOMIC CHARGES
----------------------
   0 C :   -0.345154
   1 C :   -0.231161
   2 C :   -0.244645
   3 C :   -0.055725
   4 H :    0.110454
   5 C :   -0.353545
   6 O :   -0.332073
   7 H :    0.116630
   8 H :    0.120638
   9 H :    0.116488
  10 H :    0.116202
  11 H :    0.116331
  12 H :    0.110415
  13 H :    0.119916
  14 H :    0.122322
  15 H :    0.122576
  16 H :    0.113235
  17 H :    0.277096

  Mayer bond orders larger than 0.100000
B(  0-C ,  1-C ) :   1.1549 B(  0-C ,  7-H ) :   0.9523 B(  0-C ,  8-H ) :   0.9494
B(  0-C ,  9-H ) :   0.9451 B(  1-C ,  2-C ) :   1.1278 B(  1-C , 10-H ) :   0.9241
B(  1-C , 11-H ) :   0.9261 B(  2-C ,  3-C ) :   1.0317 B(  2-C , 12-H ) :   0.9155
B(  2-C , 13-H ) :   0.9129 B(  3-C ,  4-H ) :   0.9105 B(  3-C ,  5-C ) :   1.1200
B(  3-C ,  6-O ) :   1.0382 B(  5-C , 14-H ) :   0.9453 B(  5-C , 15-H ) :   0.9302
B(  5-C , 16-H ) :   0.9393 B(  6-O , 17-H ) :   0.8569

Dispersion correction           -0.012837903
FINAL SINGLE POINT ENERGY      -272.301254706469

DIPOLE MOMENT
-------------

Method             : SCF
Type of density    : Electron Density
Multiplicity       :   1
Irrep              :   0
Energy             :  -272.3709180928343585 Eh
Relativity type    :
Basis              : AO
                                X                 Y                 Z
Electronic contribution:     -3.851585318       3.686731044       0.049077771
Nuclear contribution   :      4.021653213      -4.078092655       0.354069502
                        -----------------------------------------
Total Dipole Moment    :      0.170067895      -0.391361611       0.403147273
                        -----------------------------------------
Magnitude (a.u.)       :      0.587038945
Magnitude (Debye)      :      1.492134417

Rotational constants in cm-1:             0.191595             0.070105             0.057347
Rotational constants in MHz :          5743.872157          2101.691551          1719.216142

                             ****ORCA TERMINATED NORMALLY****
TOTAL RUN TIME: 0 days 0 hours 0 minutes 7 seconds 707 msec
