                         Program Version 6.0.0  -   RELEASE  -
|  1> ! r2scan-3c def2/J RI DEFGRID2 scfconv6 printgap
|  2> %output
|  3>     printlevel normal
|  4> end
|  5> * xyz 0 1
|  6> C -2.9474976701 -0.3628324289 -0.1394697643
|  7> C -1.7445300859 0.4979308605 0.2275151597
|  8> C -0.4282945186 -0.2078024218 -0.0890491753
|  9> C 0.7793654172 0.6594362682 0.2828990647
| 10> C 2.0255680949 -0.014216676 -0.0184873851
| 11> C 3.0409275043 -0.5931472609 -0.2768747362
| 12> H -2.9295526714 -1.2987232668 0.4146628578
| 13> H -2.9398166316 -0.5951446827 -1.2021254976
| 14> H -3.8740651263 0.1565458671 0.0924550299
| 15> H -1.7916637242 1.4400098362 -0.3239191532
| 16> H -1.7807186821 0.73491201 1.2935058745
| 17> H -0.3768381615 -1.1506453177 0.4606007557
| 18> H -0.3865953814 -0.4442166283 -1.1549155699
| 19> H 0.7527046118 0.8917853638 1.3511328405
| 20> H 0.7434808162 1.6009871526 -0.2720972851
| 21> H 3.9374632993 -1.0896611539 -0.4988275067
| 22> *
| 23>
| 24>                          ****END OF INPUT****

CARTESIAN COORDINATES (ANGSTROEM)
---------------------------------
  C     -2.947498   -0.362832   -0.139470
  C     -1.744530    0.497931    0.227515
  C     -0.428295   -0.207802   -0.089049
  C      0.779365    0.659436    0.282899
  C      2.025568   -0.014217   -0.018487
  C      3.040928   -0.593147   -0.276875
  H     -2.929553   -1.298723    0.414663
  H     -2.939817   -0.595145   -1.202125
  H     -3.874065    0.156546    0.092455
  H     -1.791664    1.440010   -0.323919
  H     -1.780719    0.734912    1.293506
  H     -0.376838   -1.150645    0.460601
  H     -0.386595   -0.444217   -1.154916
  H      0.752705    0.891785    1.351133
  H      0.743481    1.600987   -0.272097
  H      3.937463   -1.089661   -0.498828

 Total Charge           Charge          ....    0
 Multiplicity           Mult            ....    1
 Number of Electrons    NEL             ....   46
 Basis Dimension        Dim             ....  164

ORBITAL ENERGIES
----------------

  NO   OCC          E(Eh)            E(eV)
   0   2.0000     -10.055685      -273.6291
   1   2.0000     -10.035023      -273.0669
   2   2.0000     -10.031347      -272.9668
   3   2.0000     -10.029381      -272.9133
   4   2.0000     -10.020461      -272.6706
   5   2.0000     -10.014948      -272.5206
   6   2.0000      -0.786084       -21.3904
   7   2.0000      -0.735447       -20.0125
   8   2.0000      -0.683253       -18.5923
   9   2.0000      -0.617101       -16.7922
  10   2.0000      -0.554665       -15.0932
  11   2.0000      -0.496465       -13.5095
  12   2.0000      -0.454642       -12.3714
  13   2.0000      -0.431129       -11.7316
  14   2.0000      -0.407378       -11.0853
  15   2.0000      -0.403067       -10.9680
  16   2.0000      -0.359438        -9.7808
  17   2.0000      -0.338257        -9.2044
  18   2.0000      -0.321798        -8.7566
  19   2.0000      -0.309029        -8.4091
  20   2.0000      -0.302659        -8.2358
  21   2.0000      -0.243037        -6.6134
  22   2.0000      -0.241889        -6.5821
  23   0.0000       0.026237         0.7139
  24   0.0000       0.029812         0.8112
  25   0.0000       0.091618         2.4930
  26   0.0000       0.097549         2.6545
  27   0.0000       0.126709         3.4479

MULLIKEN ATOMIC CHARGES
-----------------------
   0 C :   -0.462842
   1 C :   -0.235621
   2 C :   -0.247911
   3 C :   -0.507380
   4 C :    0.107560
   5 C :   -0.140751
   6 H :    0.142828
   7 H :    0.142770
   8 H :    0.148033
   9 H :    0.135904
  10 H :    0.135906
  11 H :    0.147634
  12 H :    0.147707
  13 H :    0.165149
  14 H :    0.165154
  15 H :    0.155859
Sum of atomic charges:   -0.0000000

LOEWDIN ATOMIC CHARGES
----------------------
   0 C :   -0.422524
   1 C :   -0.316540
   2 C :   -0.289882
   3 C :   -0.277441
   4 C :   -0.080265
   5 C :   -0.220518
   6 H :    0.150663
   7 H :    0.150668
   8 H :    0.151155
   9 H :    0.151532
  10 H :    0.151523
  11 H :    0.160679
  12 H :    0.160679
  13 H :    0.175724
  14 H :    0.175724
  15 H :    0.178822

  Mayer bond orders larger than 0.100000
B(  0-C ,  1-C ) :   0.9067 B(  0-C ,  6-H ) :   0.9823 B(  0-C ,  7-H ) :   0.9823
B(  0-C ,  8-H ) :   0.9738 B(  1-C ,  2-C ) :   0.9141 B(  1-C ,  9-H ) :   0.9744
B(  1-C , 10-H ) :   0.9747 B(  2-C ,  3-C ) :   0.9168 B(  2-C , 11-H ) :   0.9622
B(  2-C , 12-H ) :   0.9621 B(  3-C ,  4-C ) :   1.0223 B(  3-C , 13-H ) :   0.9995
B(  3-C , 14-H ) :   0.9995 B(  4-C ,  5-C ) :   2.5842 B(  5-C , 15-H ) :   1.0598

Dispersion correction           -0.003611552
FINAL SINGLE POINT ENERGY      -234.509571885906

DIPOLE MOMENT
-------------

Method             : SCF
Type of density    : Electron Density
Multiplicity       :   1
Irrep              :   0
Energy             :  -234.5118902703540584 Eh
Relativity type    :
Basis              : AO
                                X                 Y                 Z
Electronic contribution:      7.718050084      -0.111015626      -0.096060306
Nuclear contribution   :     -8.111062955       0.230648862       0.150550691
                        -----------------------------------------
Total Dipole Moment    :     -0.393012870       0.119633236       0.054490385
                        -----------------------------------------
Magnitude (a.u.)       :      0.414415769
Magnitude (Debye)      :      1.053361172

Rotational constants in cm-1:             0.486393             0.045110             0.042592
Rotational constants in MHz :         14581.703714          1352.359092          1276.883549

                             ****ORCA TERMINATED NORMALLY****
TOTAL RUN TIME: 0 days 0 hours 0 minutes 16 seconds 412 msec
