                         Program Version 6.0.0  -   RELEASE  -
|  1> ! r2scan-3c def2/J RI DEFGRID2 scfconv6 printgap
|  2> %output
|  3>     printlevel normal
|  4> end
|  5> %cpcm
|  6>     smd true
|  7>     smdsolvent "water"
|  8> end
|  9> * xyz 0 1
| 10> C -2.9474976701 -0.3628324289 -0.1394697643
| 11> C -1.7445300859 0.4979308605 0.2275151597
| 12> C -0.4282945186 -0.2078024218 -0.0890491753
| 13> C 0.7793654172 0.6594362682 0.2828990647
| 14> C 2.0255680949 -0.014216676 -0.0184873851
| 15> C 3.0409275043 -0.5931472609 -0.2768747362
| 16> H -2.9295526714 -1.2987232668 0.4146628578
| 17> H -2.9398166316 -0.5951446827 -1.2021254976
| 18> H -3.8740651263 0.1565458671 0.0924550299
| 19> H -1.7916637242 1.4400098362 -0.3239191532
| 20> H -1.7807186821 0.73491201 1.2935058745
| 21> H -0.3768381615 -1.1506453177 0.4606007557
| 22> H -0.3865953814 -0.4442166283 -1.1549155699
| 23> H 0.7527046118 0.8917853638 1.3511328405
| 24> H 0.7434808162 1.6009871526 -0.2720972851
| 25> H 3.9374632993 -1.0896611539 -0.4988275067
| 26> *
| 27>
| 28>                          ****END OF INPUT****

CARTESIAN COORDINATES (ANGSTROEM)
---------------------------------
  C     -2.947498   -0.362832   -0.139470
  C     -1.744530    0.497931    0.227515
  C     -0.428295   -0.207802   -0.089049
  C      0.779365    0.659436    0.282899
  C      2.025568   -0.014217   -0.018487
  C      3.040928   -0.593147   -0.276875
  H     -2.929553   -1.298723    0.414663
  H     -2.939817   -0.595145   -1.202125
  H     -3.874065    0.156546    0.092455
  H     -1.791664    1.440010   -0.323919
  H     -1.780719    0.734912    1.293506
  H     -0.376838   -1.150645    0.460601
  H     -0.386595   -0.444217   -1.154916
  H      0.752705    0.891785    1.351133
  H      0.743481    1.600987   -0.272097
  H      3.937463   -1.089661   -0.498828

 Total Charge           Charge          ....    0
 Multiplicity           Mult            ....    1
 Number of Electrons    NEL             ....   46
 Basis Dimension        Dim             ....  164

ORBITAL ENERGIES
----------------

  NO   OCC          E(Eh)            E(eV)
   0   2.0000     -10.047390      -273.4034
   1   2.0000     -10.037106      -273.1235
   2   2.0000     -10.025501      -272.8077
   3   2.0000     -10.019544      -272.6456
   4   2.0000     -10.018971      -272.6301
   5   2.0000     -10.008740      -272.3517
   6   2.0000      -0.779554       -21.2127
   7   2.0000      -0.731740       -19.9117
   8   2.0000      -0.683089       -18.5878
   9   2.0000      -0.609609       -16.5883
  10   2.0000      -0.543834       -14.7985
  11   2.0000      -0.495095       -13.4722
  12   2.0000      -0.443825       -12.0771
  13   2.0000      -0.427022       -11.6199
  14   2.0000      -0.397943       -10.8286
  15   2.0000      -0.392870       -10.6905
  16   2.0000      -0.349993        -9.5238
  17   2.0000      -0.328361        -8.9352
  18   2.0000      -0.313320        -8.5259
  19   2.0000      -0.298332        -8.1180
  20   2.0000      -0.290246        -7.8980
  21   2.0000      -0.250958        -6.8289
  22   2.0000      -0.249281        -6.7833
  23   0.0000       0.021764         0.5922
  24   0.0000       0.025289         0.6881
  25   0.0000       0.094574         2.5735
  26   0.0000       0.109229         2.9723
  27   0.0000       0.132114         3.5950

MULLIKEN ATOMIC CHARGES
-----------------------
   0 C :   -0.506179
   1 C :   -0.250102
   2 C :   -0.259235
   3 C :   -0.500787
   4 C :    0.025704
   5 C :   -0.170799
   6 H :    0.153735
   7 H :    0.153569
   8 H :    0.157783
   9 H :    0.149039
  10 H :    0.148939
  11 H :    0.157321
  12 H :    0.157339
  13 H :    0.190370
  14 H :    0.190469
  15 H :    0.202832
Sum of atomic charges:   -0.0000000

LOEWDIN ATOMIC CHARGES
----------------------
   0 C :   -0.431096
   1 C :   -0.315668
   2 C :   -0.290827
   3 C :   -0.278518
   4 C :   -0.093289
   5 C :   -0.253085
   6 H :    0.152830
   7 H :    0.152789
   8 H :    0.153421
   9 H :    0.155334
  10 H :    0.155301
  11 H :    0.162306
  12 H :    0.162290
  13 H :    0.186056
  14 H :    0.186119
  15 H :    0.196038

  Mayer bond orders larger than 0.100000
B(  0-C ,  1-C ) :   0.8941 B(  0-C ,  6-H ) :   0.9804 B(  0-C ,  7-H ) :   0.9804
B(  0-C ,  8-H ) :   0.9714 B(  1-C ,  2-C ) :   0.9137 B(  1-C ,  9-H ) :   0.9750
B(  1-C , 10-H ) :   0.9752 B(  2-C ,  3-C ) :   0.9050 B(  2-C , 11-H ) :   0.9631
B(  2-C , 12-H ) :   0.9629 B(  3-C ,  4-C ) :   1.0218 B(  3-C , 13-H ) :   0.9872
B(  3-C , 14-H ) :   0.9871 B(  4-C ,  5-C ) :   2.5327 B(  4-C , 15-H ) :  -0.1014
B(  5-C , 15-H ) :   1.0601

Dispersion correction           -0.003611552
FINAL SINGLE POINT ENERGY      -234.510359404920

DIPOLE MOMENT
-------------

Method             : SCF
Type of density    : Electron Density
Multiplicity       :   1
Irrep              :   0
Energy             :  -234.5126777893679844 Eh
Relativity type    :
Basis              : AO
                                X                 Y                 Z
Electronic contribution:      7.598849094      -0.015343828      -0.053731075
Nuclear contribution   :     -8.111062955       0.230648862       0.150550691
                        -----------------------------------------
Total Dipole Moment    :     -0.512213861       0.215305034       0.096819616
                        -----------------------------------------
Magnitude (a.u.)       :      0.563997637
Magnitude (Debye)      :      1.433568066

Rotational constants in cm-1:             0.486393             0.045110             0.042592
Rotational constants in MHz :         14581.703714          1352.359092          1276.883549

                             ****ORCA TERMINATED NORMALLY****
TOTAL RUN TIME: 0 days 0 hours 0 minutes 19 seconds 147 msec
