                         Program Version 6.0.0  -   RELEASE  -
|  1> ! r2scan-3c def2/J RI DEFGRID2 scfconv6 printgap
|  2> %output
|  3>     printlevel normal
|  4> end
|  5> * xyz 0 1
|  6> C 2.2313048369 -0.9799584635 -0.7313351319
|  7> C 1.6060905751 0.3419916091 -0.3036954505
|  8> C 0.3511604373 0.1771528977 0.5663708658
|  9> H 0.62916458 -0.4069410556 1.4619198738
| 10> C -0.8043358129 -0.5700034102 -0.1266531503
| 11> C -1.9456322884 -0.7786845463 0.8686026803
| 12> C -1.3089068508 0.1792628472 -1.3577029205
| 13> O -0.1381948214 1.4443581479 0.9774231998
| 14> H 2.401537777 -1.617021138 0.1338058552
| 15> H 3.1859958912 -0.7970981063 -1.2178442522
| 16> H 1.5909850398 -1.5104088299 -1.4303411453
| 17> H 2.3412919105 0.9046032585 0.2788165371
| 18> H 1.3552795644 0.94132113 -1.1796954189
| 19> H -0.4287409729 -1.5516859398 -0.4293962337
| 20> H -1.6032659986 -1.3464457456 1.731033834
| 21> H -2.3136753661 0.1845528478 1.2125648422
| 22> H -2.7626803634 -1.3201788518 0.3989353572
| 23> H -1.5651299306 1.1997167576 -1.0843352502
| 24> H -2.1957030763 -0.3101681107 -1.7522849395
| 25> H -0.5557127052 0.2028554633 -2.1404295892
| 26> H 0.5689689284 1.926489221 1.4244348598
| 27> *
| 28>
| 29>                          ****END OF INPUT****

CARTESIAN COORDINATES (ANGSTROEM)
---------------------------------
  C      2.231305   -0.979958   -0.731335
  C      1.606091    0.341992   -0.303695
  C      0.351160    0.177153    0.566371
  H      0.629165   -0.406941    1.461920
  C     -0.804336   -0.570003   -0.126653
  C     -1.945632   -0.778685    0.868603
  C     -1.308907    0.179263   -1.357703
  O     -0.138195    1.444358    0.977423
  H      2.401538   -1.617021    0.133806
  H      3.185996   -0.797098   -1.217844
  H      1.590985   -1.510409   -1.430341
  H      2.341292    0.904603    0.278817
  H      1.355280    0.941321   -1.179695
  H     -0.428741   -1.551686   -0.429396
  H     -1.603266   -1.346446    1.731034
  H     -2.313675    0.184553    1.212565
  H     -2.762680   -1.320179    0.398935
  H     -1.565130    1.199717   -1.084335
  H     -2.195703   -0.310168   -1.752285
  H     -0.555713    0.202855   -2.140430
  H      0.568969    1.926489    1.424435

 Total Charge           Charge          ....    0
 Multiplicity           Mult            ....    1
 Number of Electrons    NEL             ....   58
 Basis Dimension        Dim             ....  208

ORBITAL ENERGIES
----------------

  NO   OCC          E(Eh)            E(eV)
   0   2.0000     -18.944803      -515.5143
   1   2.0000     -10.076709      -274.2012
   2   2.0000     -10.029888      -272.9271
   3   2.0000     -10.026952      -272.8472
   4   2.0000     -10.021875      -272.7091
   5   2.0000     -10.008076      -272.3336
   6   2.0000     -10.006853      -272.3003
   7   2.0000      -0.983530       -26.7632
   8   2.0000      -0.770756       -20.9733
   9   2.0000      -0.730346       -19.8737
  10   2.0000      -0.643517       -17.5110
  11   2.0000      -0.636048       -17.3078
  12   2.0000      -0.574283       -15.6270
  13   2.0000      -0.518682       -14.1140
  14   2.0000      -0.480577       -13.0772
  15   2.0000      -0.431106       -11.7310
  16   2.0000      -0.410638       -11.1740
  17   2.0000      -0.402665       -10.9571
  18   2.0000      -0.383171       -10.4266
  19   2.0000      -0.372257       -10.1296
  20   2.0000      -0.353963        -9.6318
  21   2.0000      -0.344575        -9.3764
  22   2.0000      -0.331279        -9.0146
  23   2.0000      -0.318326        -8.6621
  24   2.0000      -0.316393        -8.6095
  25   2.0000      -0.293506        -7.9867
  26   2.0000      -0.290108        -7.8942
  27   2.0000      -0.272467        -7.4142
  28   2.0000      -0.231656        -6.3037
  29   0.0000       0.060599         1.6490
  30   0.0000       0.086410         2.3513
  31   0.0000       0.108388         2.9494
  32   0.0000       0.121218         3.2985
  33   0.0000       0.133217         3.6250

MULLIKEN ATOMIC CHARGES
-----------------------
   0 C :   -0.505812
   1 C :   -0.256919
   2 C :    0.032000
   3 H :    0.135960
   4 C :    0.001345
   5 C :   -0.524919
   6 C :   -0.548778
   7 O :   -0.440947
   8 H :    0.149942
   9 H :    0.149271
  10 H :    0.154571
  11 H :    0.126170
  12 H :    0.161638
  13 H :    0.149829
  14 H :    0.139892
  15 H :    0.176685
  16 H :    0.143853
  17 H :    0.183235
  18 H :    0.143937
  19 H :    0.144869
  20 H :    0.284177
Sum of atomic charges:   -0.0000000

LOEWDIN ATOMIC CHARGES
----------------------
   0 C :   -0.421472
   1 C :   -0.291801
   2 C :    0.058123
   3 H :    0.164742
   4 C :   -0.213799
   5 C :   -0.407497
   6 C :   -0.409220
   7 O :   -0.625166
   8 H :    0.152250
   9 H :    0.152634
  10 H :    0.151197
  11 H :    0.152175
  12 H :    0.162456
  13 H :    0.161013
  14 H :    0.153021
  15 H :    0.168041
  16 H :    0.150368
  17 H :    0.169892
  18 H :    0.152982
  19 H :    0.151678
  20 H :    0.268386

  Mayer bond orders larger than 0.100000
B(  0-C ,  1-C ) :   0.8747 B(  0-C ,  8-H ) :   0.9819 B(  0-C ,  9-H ) :   0.9666
B(  0-C , 10-H ) :   0.9796 B(  1-C ,  2-C ) :   0.9084 B(  1-C , 11-H ) :   0.9661
B(  1-C , 12-H ) :   0.9881 B(  2-C ,  3-H ) :   0.9717 B(  2-C ,  4-C ) :   0.9086
B(  2-C ,  7-O ) :   0.8571 B(  4-C ,  5-C ) :   0.9078 B(  4-C ,  6-C ) :   0.8832
B(  4-C , 13-H ) :   0.9515 B(  5-C , 14-H ) :   0.9738 B(  5-C , 15-H ) :   0.9849
B(  5-C , 16-H ) :   0.9785 B(  6-C , 17-H ) :   0.9816 B(  6-C , 18-H ) :   0.9735
B(  6-C , 19-H ) :   0.9729 B(  7-O , 20-H ) :   0.9027

Dispersion correction           -0.005721331
FINAL SINGLE POINT ENERGY      -312.202855985009

DIPOLE MOMENT
-------------

Method             : SCF
Type of density    : Electron Density
Multiplicity       :   1
Irrep              :   0
Energy             :  -312.2083458236481306 Eh
Relativity type    :
Basis              : AO
                                X                 Y                 Z
Electronic contribution:     -0.024788034       3.117070741       2.486161177
Nuclear contribution   :      0.606174843      -3.262520824      -2.417979429
                        -----------------------------------------
Total Dipole Moment    :      0.581386809      -0.145450083       0.068181748
                        -----------------------------------------
Magnitude (a.u.)       :      0.603170870
Magnitude (Debye)      :      1.533138512

Rotational constants in cm-1:             0.110555             0.060832             0.052694
Rotational constants in MHz :          3314.345570          1823.687061          1579.736628

                             ****ORCA TERMINATED NORMALLY****
TOTAL RUN TIME: 0 days 0 hours 0 minutes 25 seconds 918 msec
