                         Program Version 6.0.0  -   RELEASE  -
|  1> ! pbe def2-sv(p) def2/J RI DEFGRID1 loosescf d4 GCP(DFT/SV(P)) printgap
|  2> %output
|  3>     printlevel normal
|  4> end
|  5> * xyz 0 1
|  6> C -2.6115838086 -0.4801473567 -0.5237741541
|  7> C -1.6418731496 0.691567565 -0.4064493925
|  8> C -0.560488969 0.4777636857 0.6614958766
|  9> C 0.8107616729 -0.0231911674 0.1617893986
| 10> C 1.5164532117 1.0446005816 -0.6820002161
| 11> C 0.7024705118 -1.3303114255 -0.6225589852
| 12> O 1.6150664405 -0.3335916806 1.3028484173
| 13> H -3.3592482265 -0.2732936919 -1.2863479024
| 14> H -3.1249067327 -0.6418812341 0.4215801987
| 15> H -2.0931580855 -1.3957528761 -0.7916230239
| 16> H -1.1803402572 0.8782676646 -1.3762466793
| 17> H -2.2166568817 1.5830951963 -0.1476754025
| 18> H -0.3856547687 1.4210958987 1.1860652357
| 19> H -0.9219452794 -0.2409282443 1.4007491646
| 20> H 0.9858390094 1.2146225958 -1.6132766679
| 21> H 2.5259899961 0.7134420556 -0.9141391177
| 22> H 1.5735953197 1.9856994309 -0.1387824136
| 23> H 1.7022345429 -1.6868865381 -0.8576873289
| 24> H 0.1523369545 -1.1822761719 -1.5452066195
| 25> H 0.2080577435 -2.0834673919 -0.0150955604
| 26> H 1.759076654 0.4719313694 1.816889586
| 27> *
| 28>
| 29>                          ****END OF INPUT****

CARTESIAN COORDINATES (ANGSTROEM)
---------------------------------
  C     -2.611584   -0.480147   -0.523774
  C     -1.641873    0.691568   -0.406449
  C     -0.560489    0.477764    0.661496
  C      0.810762   -0.023191    0.161789
  C      1.516453    1.044601   -0.682000
  C      0.702471   -1.330311   -0.622559
  O      1.615066   -0.333592    1.302848
  H     -3.359248   -0.273294   -1.286348
  H     -3.124907   -0.641881    0.421580
  H     -2.093158   -1.395753   -0.791623
  H     -1.180340    0.878268   -1.376247
  H     -2.216657    1.583095   -0.147675
  H     -0.385655    1.421096    1.186065
  H     -0.921945   -0.240928    1.400749
  H      0.985839    1.214623   -1.613277
  H      2.525990    0.713442   -0.914139
  H      1.573595    1.985699   -0.138782
  H      1.702235   -1.686887   -0.857687
  H      0.152337   -1.182276   -1.545207
  H      0.208058   -2.083467   -0.015096
  H      1.759077    0.471931    1.816890

 Total Charge           Charge          ....    0
 Multiplicity           Mult            ....    1
 Number of Electrons    NEL             ....   58
 Basis Dimension        Dim             ....  126

ORBITAL ENERGIES
----------------

  NO   OCC          E(Eh)            E(eV)
   0   2.0000     -18.733372      -509.7610
   1   2.0000      -9.944582      -270.6058
   2   2.0000      -9.885515      -268.9985
   3   2.0000      -9.879492      -268.8346
   4   2.0000      -9.873119      -268.6612
   5   2.0000      -9.872534      -268.6453
   6   2.0000      -9.869256      -268.5561
   7   2.0000      -0.912294       -24.8248
   8   2.0000      -0.723209       -19.6795
   9   2.0000      -0.677710       -18.4414
  10   2.0000      -0.617746       -16.8097
  11   2.0000      -0.609023       -16.5724
  12   2.0000      -0.534664       -14.5489
  13   2.0000      -0.498181       -13.5562
  14   2.0000      -0.445522       -12.1233
  15   2.0000      -0.413297       -11.2464
  16   2.0000      -0.401555       -10.9269
  17   2.0000      -0.376813       -10.2536
  18   2.0000      -0.371964       -10.1216
  19   2.0000      -0.359469        -9.7816
  20   2.0000      -0.339232        -9.2310
  21   2.0000      -0.334586        -9.1046
  22   2.0000      -0.318863        -8.6767
  23   2.0000      -0.312219        -8.4959
  24   2.0000      -0.297512        -8.0957
  25   2.0000      -0.287901        -7.8342
  26   2.0000      -0.282825        -7.6961
  27   2.0000      -0.261521        -7.1163
  28   2.0000      -0.207745        -5.6530
  29   0.0000       0.024082         0.6553
  30   0.0000       0.050527         1.3749
  31   0.0000       0.060063         1.6344
  32   0.0000       0.074045         2.0149
  33   0.0000       0.077526         2.1096

MULLIKEN ATOMIC CHARGES
-----------------------
   0 C :   -0.292897
   1 C :   -0.183939
   2 C :   -0.105756
   3 C :   -0.070063
   4 C :   -0.224213
   5 C :   -0.213436
   6 O :   -0.422879
   7 H :    0.100573
   8 H :    0.101480
   9 H :    0.106790
  10 H :    0.093162
  11 H :    0.081219
  12 H :    0.058463
  13 H :    0.084964
  14 H :    0.099289
  15 H :    0.104228
  16 H :    0.082784
  17 H :    0.101621
  18 H :    0.103607
  19 H :    0.105668
  20 H :    0.289336
Sum of atomic charges:    0.0000000

LOEWDIN ATOMIC CHARGES
----------------------
   0 C :   -0.341944
   1 C :   -0.237044
   2 C :   -0.228941
   3 C :   -0.013293
   4 C :   -0.339250
   5 C :   -0.326735
   6 O :   -0.323789
   7 H :    0.118253
   8 H :    0.117401
   9 H :    0.116982
  10 H :    0.113445
  11 H :    0.118254
  12 H :    0.108217
  13 H :    0.118101
  14 H :    0.120277
  15 H :    0.122528
  16 H :    0.112160
  17 H :    0.124062
  18 H :    0.120703
  19 H :    0.122832
  20 H :    0.277782

  Mayer bond orders larger than 0.100000
B(  0-C ,  1-C ) :   1.1578 B(  0-C ,  7-H ) :   0.9507 B(  0-C ,  8-H ) :   0.9528
B(  0-C ,  9-H ) :   0.9484 B(  1-C ,  2-C ) :   1.0709 B(  1-C , 10-H ) :   0.9273
B(  1-C , 11-H ) :   0.9216 B(  2-C ,  3-C ) :   1.0624 B(  2-C , 12-H ) :   0.9092
B(  2-C , 13-H ) :   0.9148 B(  3-C ,  4-C ) :   1.0839 B(  3-C ,  5-C ) :   1.0870
B(  3-C ,  6-O ) :   1.0126 B(  4-C , 14-H ) :   0.9307 B(  4-C , 15-H ) :   0.9424
B(  4-C , 16-H ) :   0.9403 B(  5-C , 17-H ) :   0.9385 B(  5-C , 18-H ) :   0.9352
B(  5-C , 19-H ) :   0.9375 B(  6-O , 20-H ) :   0.8548

Dispersion correction           -0.017044299
FINAL SINGLE POINT ENERGY      -311.518082541328

DIPOLE MOMENT
-------------

Method             : SCF
Type of density    : Electron Density
Multiplicity       :   1
Irrep              :   0
Energy             :  -311.5971355310550166 Eh
Relativity type    :
Basis              : AO
                                X                 Y                 Z
Electronic contribution:      3.893058280      -0.181464909       3.496140969
Nuclear contribution   :     -4.080290297       0.711494780      -3.602723289
                        -----------------------------------------
Total Dipole Moment    :     -0.187232018       0.530029871      -0.106582320
                        -----------------------------------------
Magnitude (a.u.)       :      0.572142713
Magnitude (Debye)      :      1.454271204

Rotational constants in cm-1:             0.131832             0.053298             0.051300
Rotational constants in MHz :          3952.221918          1597.846348          1537.946620

                             ****ORCA TERMINATED NORMALLY****
TOTAL RUN TIME: 0 days 0 hours 0 minutes 9 seconds 248 msec
