                         Program Version 6.0.0  -   RELEASE  -
|  1> ! r2scan-3c def2/J RI DEFGRID2 scfconv6 printgap
|  2> %output
|  3>     printlevel normal
|  4> end
|  5> * xyz 0 1
|  6> C -3.3015171433 1.3545427395 -0.0330083884
|  7> C -1.9065353198 1.1505195687 -0.5274813825
|  8> O -1.5271161718 1.3044710971 -1.6664036174
|  9> O -1.0923869915 0.7744839842 0.4699819109
| 10> C 0.2621213236 0.5915410299 0.2158912676
| 11> C 1.0585834273 1.6969709445 -0.0391964326
| 12> C 2.420224251 1.5434620715 -0.2345178029
| 13> C 2.9958565614 0.2838413728 -0.1708951065
| 14> C 2.2039424108 -0.8186635138 0.0771129075
| 15> C 0.8267320737 -0.6875350229 0.2656038228
| 16> C 0.0489956738 -1.9266590041 0.4898341241
| 17> O 0.5698867137 -3.0216921277 0.5953873143
| 18> O -1.2642856571 -1.7702469406 0.5530451971
| 19> H -3.4805582789 0.7282457418 0.8342087972
| 20> H -4.004978485 1.1397984245 -0.8308943078
| 21> H -3.4130091573 2.3978260195 0.2562901619
| 22> H 0.598691648 2.6719099563 -0.0840090523
| 23> H 3.0288220755 2.4106368101 -0.4345002381
| 24> H 4.0565477088 0.1626101136 -0.3183839242
| 25> H 2.6212989507 -1.8128400675 0.1251491324
| 26> H -1.7196293969 -2.6234717007 0.6974072614
| 27> *
| 28>
| 29>                          ****END OF INPUT****

CARTESIAN COORDINATES (ANGSTROEM)
---------------------------------
  C     -3.301517    1.354543   -0.033008
  C     -1.906535    1.150520   -0.527481
  O     -1.527116    1.304471   -1.666404
  O     -1.092387    0.774484    0.469982
  C      0.262121    0.591541    0.215891
  C      1.058583    1.696971   -0.039196
  C      2.420224    1.543462   -0.234518
  C      2.995857    0.283841   -0.170895
  C      2.203942   -0.818664    0.077113
  C      0.826732   -0.687535    0.265604
  C      0.048996   -1.926659    0.489834
  O      0.569887   -3.021692    0.595387
  O     -1.264286   -1.770247    0.553045
  H     -3.480558    0.728246    0.834209
  H     -4.004978    1.139798   -0.830894
  H     -3.413009    2.397826    0.256290
  H      0.598692    2.671910   -0.084009
  H      3.028822    2.410637   -0.434500
  H      4.056548    0.162610   -0.318384
  H      2.621299   -1.812840    0.125149
  H     -1.719629   -2.623472    0.697407

 Total Charge           Charge          ....    0
 Multiplicity           Mult            ....    1
 Number of Electrons    NEL             ....   94
 Basis Dimension        Dim             ....  307

ORBITAL ENERGIES
----------------

  NO   OCC          E(Eh)            E(eV)
   0   2.0000     -19.017480      -517.4920
   1   2.0000     -19.008998      -517.2611
   2   2.0000     -18.940751      -515.4040
   3   2.0000     -18.937336      -515.3111
   4   2.0000     -10.171771      -276.7880
   5   2.0000     -10.171091      -276.7695
   6   2.0000     -10.123050      -275.4622
   7   2.0000     -10.069532      -274.0059
   8   2.0000     -10.059338      -273.7285
   9   2.0000     -10.056247      -273.6444
  10   2.0000     -10.055441      -273.6225
  11   2.0000     -10.051382      -273.5120
  12   2.0000     -10.048848      -273.4431
  13   2.0000      -1.095112       -29.7995
  14   2.0000      -1.082811       -29.4648
  15   2.0000      -0.993554       -27.0360
  16   2.0000      -0.982694       -26.7405
  17   2.0000      -0.849879       -23.1264
  18   2.0000      -0.761793       -20.7294
  19   2.0000      -0.751046       -20.4370
  20   2.0000      -0.717623       -19.5275
  21   2.0000      -0.650940       -17.7130
  22   2.0000      -0.627453       -17.0739
  23   2.0000      -0.581266       -15.8170
  24   2.0000      -0.561483       -15.2787
  25   2.0000      -0.504024       -13.7152
  26   2.0000      -0.477495       -12.9933
  27   2.0000      -0.467380       -12.7181
  28   2.0000      -0.462557       -12.5868
  29   2.0000      -0.447897       -12.1879
  30   2.0000      -0.442875       -12.0512
  31   2.0000      -0.431472       -11.7409
  32   2.0000      -0.428522       -11.6607
  33   2.0000      -0.415875       -11.3165
  34   2.0000      -0.389058       -10.5868
  35   2.0000      -0.380658       -10.3582
  36   2.0000      -0.373585       -10.1658
  37   2.0000      -0.369539       -10.0557
  38   2.0000      -0.354954        -9.6588
  39   2.0000      -0.340628        -9.2690
  40   2.0000      -0.337236        -9.1767
  41   2.0000      -0.299109        -8.1392
  42   2.0000      -0.290403        -7.9023
  43   2.0000      -0.259131        -7.0513
  44   2.0000      -0.250475        -6.8158
  45   2.0000      -0.248186        -6.7535
  46   2.0000      -0.245661        -6.6848
  47   0.0000      -0.085517        -2.3270
  48   0.0000      -0.049374        -1.3435
  49   0.0000      -0.025156        -0.6845
  50   0.0000       0.017428         0.4742
  51   0.0000       0.051762         1.4085

MULLIKEN ATOMIC CHARGES
-----------------------
   0 C :   -0.528086
   1 C :    0.403312
   2 O :   -0.402517
   3 O :   -0.120093
   4 C :    0.225292
   5 C :   -0.195189
   6 C :   -0.103773
   7 C :   -0.149167
   8 C :   -0.215727
   9 C :    0.002266
  10 C :    0.294502
  11 O :   -0.403837
  12 O :   -0.317188
  13 H :    0.175345
  14 H :    0.178624
  15 H :    0.176133
  16 H :    0.155046
  17 H :    0.151906
  18 H :    0.150865
  19 H :    0.188472
  20 H :    0.333815
Sum of atomic charges:   -0.0000000

LOEWDIN ATOMIC CHARGES
----------------------
   0 C :   -0.329007
   1 C :    0.374980
   2 O :   -0.396217
   3 O :   -0.530058
   4 C :    0.233318
   5 C :   -0.107300
   6 C :   -0.130103
   7 C :   -0.159558
   8 C :   -0.091483
   9 C :   -0.008076
  10 C :    0.379024
  11 O :   -0.431317
  12 O :   -0.373610
  13 H :    0.178543
  14 H :    0.178993
  15 H :    0.183322
  16 H :    0.184933
  17 H :    0.172235
  18 H :    0.171927
  19 H :    0.195674
  20 H :    0.303780

  Mayer bond orders larger than 0.100000
B(  0-C ,  1-C ) :   0.9546 B(  0-C , 13-H ) :   0.9765 B(  0-C , 14-H ) :   0.9767
B(  0-C , 15-H ) :   0.9310 B(  1-C ,  2-O ) :   1.8835 B(  1-C ,  3-O ) :   0.9673
B(  3-O ,  4-C ) :   0.9705 B(  4-C ,  5-C ) :   1.3862 B(  4-C ,  9-C ) :   1.4642
B(  5-C ,  6-C ) :   1.3810 B(  5-C , 16-H ) :   0.9299 B(  6-C ,  7-C ) :   1.3762
B(  6-C , 17-H ) :   0.9472 B(  7-C ,  8-C ) :   1.3825 B(  7-C , 18-H ) :   0.9515
B(  8-C ,  9-C ) :   1.3442 B(  8-C , 19-H ) :   0.9487 B(  9-C , 10-C ) :   1.0334
B(  9-C , 11-O ) :  -0.1079 B( 10-C , 11-O ) :   1.9494 B( 10-C , 12-O ) :   1.0759
B( 12-O , 20-H ) :   0.8583

Dispersion correction           -0.007941752
FINAL SINGLE POINT ENERGY      -648.583273430382

DIPOLE MOMENT
-------------

Method             : SCF
Type of density    : Electron Density
Multiplicity       :   1
Irrep              :   0
Energy             :  -648.5855855876877740 Eh
Relativity type    :
Basis              : AO
                                X                 Y                 Z
Electronic contribution:      1.814312324      -4.008070620       0.363380280
Nuclear contribution   :     -2.218884660       4.720788210       0.229392932
                        -----------------------------------------
Total Dipole Moment    :     -0.404572335       0.712717590       0.592773212
                        -----------------------------------------
Magnitude (a.u.)       :      1.011447091
Magnitude (Debye)      :      2.570894193

Rotational constants in cm-1:             0.036440             0.024989             0.016007
Rotational constants in MHz :          1092.454027           749.148423           479.889034

                             ****ORCA TERMINATED NORMALLY****
TOTAL RUN TIME: 0 days 0 hours 0 minutes 52 seconds 857 msec
