                         Program Version 6.0.0  -   RELEASE  -
|  1> ! r2scan-3c def2/J RI DEFGRID2 scfconv6 printgap
|  2> %output
|  3>     printlevel normal
|  4> end
|  5> %cpcm
|  6>     smd true
|  7>     smdsolvent "water"
|  8> end
|  9> * xyz 0 1
| 10> C -3.3015171433 1.3545427395 -0.0330083884
| 11> C -1.9065353198 1.1505195687 -0.5274813825
| 12> O -1.5271161718 1.3044710971 -1.6664036174
| 13> O -1.0923869915 0.7744839842 0.4699819109
| 14> C 0.2621213236 0.5915410299 0.2158912676
| 15> C 1.0585834273 1.6969709445 -0.0391964326
| 16> C 2.420224251 1.5434620715 -0.2345178029
| 17> C 2.9958565614 0.2838413728 -0.1708951065
| 18> C 2.2039424108 -0.8186635138 0.0771129075
| 19> C 0.8267320737 -0.6875350229 0.2656038228
| 20> C 0.0489956738 -1.9266590041 0.4898341241
| 21> O 0.5698867137 -3.0216921277 0.5953873143
| 22> O -1.2642856571 -1.7702469406 0.5530451971
| 23> H -3.4805582789 0.7282457418 0.8342087972
| 24> H -4.004978485 1.1397984245 -0.8308943078
| 25> H -3.4130091573 2.3978260195 0.2562901619
| 26> H 0.598691648 2.6719099563 -0.0840090523
| 27> H 3.0288220755 2.4106368101 -0.4345002381
| 28> H 4.0565477088 0.1626101136 -0.3183839242
| 29> H 2.6212989507 -1.8128400675 0.1251491324
| 30> H -1.7196293969 -2.6234717007 0.6974072614
| 31> *
| 32>
| 33>                          ****END OF INPUT****

CARTESIAN COORDINATES (ANGSTROEM)
---------------------------------
  C     -3.301517    1.354543   -0.033008
  C     -1.906535    1.150520   -0.527481
  O     -1.527116    1.304471   -1.666404
  O     -1.092387    0.774484    0.469982
  C      0.262121    0.591541    0.215891
  C      1.058583    1.696971   -0.039196
  C      2.420224    1.543462   -0.234518
  C      2.995857    0.283841   -0.170895
  C      2.203942   -0.818664    0.077113
  C      0.826732   -0.687535    0.265604
  C      0.048996   -1.926659    0.489834
  O      0.569887   -3.021692    0.595387
  O     -1.264286   -1.770247    0.553045
  H     -3.480558    0.728246    0.834209
  H     -4.004978    1.139798   -0.830894
  H     -3.413009    2.397826    0.256290
  H      0.598692    2.671910   -0.084009
  H      3.028822    2.410637   -0.434500
  H      4.056548    0.162610   -0.318384
  H      2.621299   -1.812840    0.125149
  H     -1.719629   -2.623472    0.697407

 Total Charge           Charge          ....    0
 Multiplicity           Mult            ....    1
 Number of Electrons    NEL             ....   94
 Basis Dimension        Dim             ....  307

ORBITAL ENERGIES
----------------

  NO   OCC          E(Eh)            E(eV)
   0   2.0000     -19.022079      -517.6171
   1   2.0000     -19.005145      -517.1563
   2   2.0000     -18.953166      -515.7419
   3   2.0000     -18.947469      -515.5868
   4   2.0000     -10.178534      -276.9720
   5   2.0000     -10.178529      -276.9719
   6   2.0000     -10.122014      -275.4340
   7   2.0000     -10.069311      -273.9999
   8   2.0000     -10.053649      -273.5737
   9   2.0000     -10.052223      -273.5349
  10   2.0000     -10.049992      -273.4742
  11   2.0000     -10.044989      -273.3380
  12   2.0000     -10.034853      -273.0622
  13   2.0000      -1.099712       -29.9247
  14   2.0000      -1.083278       -29.4775
  15   2.0000      -1.005141       -27.3513
  16   2.0000      -0.989614       -26.9288
  17   2.0000      -0.848007       -23.0755
  18   2.0000      -0.758263       -20.6334
  19   2.0000      -0.748335       -20.3632
  20   2.0000      -0.710230       -19.3263
  21   2.0000      -0.646490       -17.5919
  22   2.0000      -0.623991       -16.9797
  23   2.0000      -0.576043       -15.6749
  24   2.0000      -0.558893       -15.2083
  25   2.0000      -0.501613       -13.6496
  26   2.0000      -0.478871       -13.0307
  27   2.0000      -0.470911       -12.8141
  28   2.0000      -0.465842       -12.6762
  29   2.0000      -0.450337       -12.2543
  30   2.0000      -0.444643       -12.0994
  31   2.0000      -0.432611       -11.7719
  32   2.0000      -0.426713       -11.6114
  33   2.0000      -0.410651       -11.1744
  34   2.0000      -0.384987       -10.4760
  35   2.0000      -0.378126       -10.2893
  36   2.0000      -0.372525       -10.1369
  37   2.0000      -0.362107        -9.8534
  38   2.0000      -0.353253        -9.6125
  39   2.0000      -0.337750        -9.1906
  40   2.0000      -0.335650        -9.1335
  41   2.0000      -0.304111        -8.2753
  42   2.0000      -0.296496        -8.0681
  43   2.0000      -0.265253        -7.2179
  44   2.0000      -0.262335        -7.1385
  45   2.0000      -0.255144        -6.9428
  46   2.0000      -0.246966        -6.7203
  47   0.0000      -0.086924        -2.3653
  48   0.0000      -0.048472        -1.3190
  49   0.0000      -0.029018        -0.7896
  50   0.0000       0.016426         0.4470
  51   0.0000       0.067160         1.8275

MULLIKEN ATOMIC CHARGES
-----------------------
   0 C :   -0.558303
   1 C :    0.451638
   2 O :   -0.487402
   3 O :   -0.123011
   4 C :    0.189561
   5 C :   -0.219746
   6 C :   -0.121034
   7 C :   -0.187427
   8 C :   -0.237455
   9 C :    0.020052
  10 C :    0.327843
  11 O :   -0.479114
  12 O :   -0.335989
  13 H :    0.193886
  14 H :    0.193998
  15 H :    0.211664
  16 H :    0.196019
  17 H :    0.191023
  18 H :    0.187112
  19 H :    0.203248
  20 H :    0.383436
Sum of atomic charges:   -0.0000000

LOEWDIN ATOMIC CHARGES
----------------------
   0 C :   -0.324873
   1 C :    0.388626
   2 O :   -0.456512
   3 O :   -0.528971
   4 C :    0.224417
   5 C :   -0.111622
   6 C :   -0.123942
   7 C :   -0.156798
   8 C :   -0.098923
   9 C :   -0.016002
  10 C :    0.387672
  11 O :   -0.488784
  12 O :   -0.359653
  13 H :    0.187724
  14 H :    0.185795
  15 H :    0.198049
  16 H :    0.198456
  17 H :    0.186418
  18 H :    0.184805
  19 H :    0.199107
  20 H :    0.325011

  Mayer bond orders larger than 0.100000
B(  0-C ,  1-C ) :   0.9609 B(  0-C , 13-H ) :   0.9629 B(  0-C , 14-H ) :   0.9661
B(  0-C , 15-H ) :   0.9179 B(  1-C ,  2-O ) :   1.8110 B(  1-C ,  3-O ) :   0.9908
B(  3-O ,  4-C ) :   0.9485 B(  4-C ,  5-C ) :   1.3672 B(  4-C ,  9-C ) :   1.4458
B(  5-C ,  6-C ) :   1.3486 B(  5-C , 16-H ) :   0.9410 B(  6-C ,  7-C ) :   1.3539
B(  6-C , 17-H ) :   0.9511 B(  7-C ,  8-C ) :   1.3782 B(  7-C , 18-H ) :   0.9559
B(  8-C ,  9-C ) :   1.2738 B(  8-C , 19-H ) :   0.9607 B(  9-C , 10-C ) :   1.0376
B( 10-C , 11-O ) :   1.8879 B( 10-C , 12-O ) :   1.1106 B( 12-O , 20-H ) :   0.8336

Dispersion correction           -0.007941752
FINAL SINGLE POINT ENERGY      -648.599901237987

DIPOLE MOMENT
-------------

Method             : SCF
Type of density    : Electron Density
Multiplicity       :   1
Irrep              :   0
Energy             :  -648.6022133952927788 Eh
Relativity type    :
Basis              : AO
                                X                 Y                 Z
Electronic contribution:      1.669991443      -3.648392569       0.650689347
Nuclear contribution   :     -2.218884660       4.720788210       0.229392932
                        -----------------------------------------
Total Dipole Moment    :     -0.548893217       1.072395641       0.880082279
                        -----------------------------------------
Magnitude (a.u.)       :      1.491931966
Magnitude (Debye)      :      3.792189688

Rotational constants in cm-1:             0.036440             0.024989             0.016007
Rotational constants in MHz :          1092.454027           749.148423           479.889034

                             ****ORCA TERMINATED NORMALLY****
TOTAL RUN TIME: 0 days 0 hours 0 minutes 58 seconds 127 msec
