                         Program Version 6.0.0  -   RELEASE  -
|  1> ! pbe def2-sv(p) def2/J RI DEFGRID1 loosescf d4 GCP(DFT/SV(P)) printgap
|  2> %output
|  3>     printlevel normal
|  4> end
|  5> * xyz 0 1
|  6> C -2.6345683892 -0.8531001463 -0.8988585097
|  7> C -2.2420993365 -0.102328939 0.3699668807
|  8> C -0.9866450678 0.7665218695 0.1866643375
|  9> C 0.247256791 0.232725173 0.9215191295
| 10> C 0.7553305068 -1.1008250836 0.3693968751
| 11> C 1.5502571649 -0.7242773259 -0.8848529205
| 12> C 2.0523272579 0.7115605097 -0.6426307577
| 13> C 1.4615467596 1.1428453017 0.7071918439
| 14> H -3.5150770372 -1.4666508185 -0.7202897042
| 15> H -2.8638529638 -0.1515545026 -1.698098968
| 16> H -1.8292300826 -1.5013943707 -1.2352239449
| 17> H -3.0824552389 0.527369188 0.6688367456
| 18> H -2.0757230996 -0.8190369051 1.1767996062
| 19> H -0.7612221015 0.8578009353 -0.8756744588
| 20> H -1.1848897337 1.7725645046 0.5630171933
| 21> H 0.0036263203 0.1496219149 1.985170762
| 22> H 1.4191721439 -1.5587362187 1.1050043974
| 23> H -0.045973428 -1.8046127497 0.1568805928
| 24> H 2.3728681364 -1.4177515841 -1.054657868
| 25> H 0.9061460299 -0.7583341069 -1.763651683
| 26> H 3.1404965003 0.757226933 -0.6237837857
| 27> H 1.7111459738 1.3747746571 -1.4372573378
| 28> H 2.186649178 0.9686535411 1.503492466
| 29> H 1.1943629546 2.1986828151 0.7193487647
| 30> *
| 31>
| 32>                          ****END OF INPUT****

CARTESIAN COORDINATES (ANGSTROEM)
---------------------------------
  C     -2.634568   -0.853100   -0.898859
  C     -2.242099   -0.102329    0.369967
  C     -0.986645    0.766522    0.186664
  C      0.247257    0.232725    0.921519
  C      0.755331   -1.100825    0.369397
  C      1.550257   -0.724277   -0.884853
  C      2.052327    0.711561   -0.642631
  C      1.461547    1.142845    0.707192
  H     -3.515077   -1.466651   -0.720290
  H     -2.863853   -0.151555   -1.698099
  H     -1.829230   -1.501394   -1.235224
  H     -3.082455    0.527369    0.668837
  H     -2.075723   -0.819037    1.176800
  H     -0.761222    0.857801   -0.875674
  H     -1.184890    1.772565    0.563017
  H      0.003626    0.149622    1.985171
  H      1.419172   -1.558736    1.105004
  H     -0.045973   -1.804613    0.156881
  H      2.372868   -1.417752   -1.054658
  H      0.906146   -0.758334   -1.763652
  H      3.140497    0.757227   -0.623784
  H      1.711146    1.374775   -1.437257
  H      2.186649    0.968654    1.503492
  H      1.194363    2.198683    0.719349

 Total Charge           Charge          ....    0
 Multiplicity           Mult            ....    1
 Number of Electrons    NEL             ....   64
 Basis Dimension        Dim             ....  144

ORBITAL ENERGIES
----------------

  NO   OCC          E(Eh)            E(eV)
   0   2.0000      -9.883718      -268.9496
   1   2.0000      -9.879296      -268.8293
   2   2.0000      -9.876005      -268.7398
   3   2.0000      -9.874872      -268.7089
   4   2.0000      -9.874483      -268.6984
   5   2.0000      -9.874027      -268.6859
   6   2.0000      -9.873195      -268.6633
   7   2.0000      -9.870908      -268.6011
   8   2.0000      -0.759654       -20.6712
   9   2.0000      -0.700446       -19.0601
  10   2.0000      -0.642680       -17.4882
  11   2.0000      -0.629024       -17.1166
  12   2.0000      -0.588494       -16.0137
  13   2.0000      -0.523300       -14.2397
  14   2.0000      -0.493391       -13.4258
  15   2.0000      -0.478271       -13.0144
  16   2.0000      -0.434346       -11.8192
  17   2.0000      -0.427936       -11.6447
  18   2.0000      -0.402583       -10.9548
  19   2.0000      -0.384197       -10.4545
  20   2.0000      -0.359479        -9.7819
  21   2.0000      -0.352792        -9.6000
  22   2.0000      -0.346807        -9.4371
  23   2.0000      -0.318073        -8.6552
  24   2.0000      -0.300298        -8.1715
  25   2.0000      -0.295615        -8.0441
  26   2.0000      -0.291454        -7.9309
  27   2.0000      -0.288621        -7.8538
  28   2.0000      -0.275148        -7.4872
  29   2.0000      -0.271009        -7.3745
  30   2.0000      -0.263092        -7.1591
  31   2.0000      -0.257322        -7.0021
  32   0.0000       0.028129         0.7654
  33   0.0000       0.041188         1.1208
  34   0.0000       0.056144         1.5278
  35   0.0000       0.068100         1.8531
  36   0.0000       0.082240         2.2379

MULLIKEN ATOMIC CHARGES
-----------------------
   0 C :   -0.303647
   1 C :   -0.159836
   2 C :   -0.127472
   3 C :   -0.217095
   4 C :   -0.122507
   5 C :   -0.169469
   6 C :   -0.164412
   7 C :   -0.101182
   8 H :    0.100280
   9 H :    0.102386
  10 H :    0.109564
  11 H :    0.081190
  12 H :    0.090526
  13 H :    0.080478
  14 H :    0.077338
  15 H :    0.068469
  16 H :    0.076830
  17 H :    0.092741
  18 H :    0.082649
  19 H :    0.085091
  20 H :    0.081254
  21 H :    0.083730
  22 H :    0.075363
  23 H :    0.077732
Sum of atomic charges:   -0.0000000

LOEWDIN ATOMIC CHARGES
----------------------
   0 C :   -0.342056
   1 C :   -0.234753
   2 C :   -0.219314
   3 C :   -0.146657
   4 C :   -0.221284
   5 C :   -0.231976
   6 C :   -0.232165
   7 C :   -0.219405
   8 H :    0.117489
   9 H :    0.116546
  10 H :    0.114834
  11 H :    0.116406
  12 H :    0.114390
  13 H :    0.114274
  14 H :    0.116502
  15 H :    0.111340
  16 H :    0.115812
  17 H :    0.114712
  18 H :    0.117785
  19 H :    0.114620
  20 H :    0.117529
  21 H :    0.116194
  22 H :    0.115214
  23 H :    0.113963

  Mayer bond orders larger than 0.100000
B(  0-C ,  1-C ) :   1.1610 B(  0-C ,  8-H ) :   0.9508 B(  0-C ,  9-H ) :   0.9522
B(  0-C , 10-H ) :   0.9483 B(  1-C ,  2-C ) :   1.0893 B(  1-C , 11-H ) :   0.9276
B(  1-C , 12-H ) :   0.9297 B(  2-C ,  3-C ) :   1.0930 B(  2-C , 13-H ) :   0.9261
B(  2-C , 14-H ) :   0.9175 B(  3-C ,  4-C ) :   1.0730 B(  3-C ,  7-C ) :   1.0818
B(  3-C , 15-H ) :   0.9030 B(  4-C ,  5-C ) :   1.1556 B(  4-C , 16-H ) :   0.9164
B(  4-C , 17-H ) :   0.9157 B(  5-C ,  6-C ) :   1.1523 B(  5-C , 18-H ) :   0.9239
B(  5-C , 19-H ) :   0.9210 B(  6-C ,  7-C ) :   1.1579 B(  6-C , 20-H ) :   0.9242
B(  6-C , 21-H ) :   0.9237 B(  7-C , 22-H ) :   0.9162 B(  7-C , 23-H ) :   0.9218

Dispersion correction           -0.021572742
FINAL SINGLE POINT ENERGY      -313.688684856915

DIPOLE MOMENT
-------------

Method             : SCF
Type of density    : Electron Density
Multiplicity       :   1
Irrep              :   0
Energy             :  -313.7694139882691502 Eh
Relativity type    :
Basis              : AO
                                X                 Y                 Z
Electronic contribution:      2.253038735       0.827286387       1.466587878
Nuclear contribution   :     -2.274066349      -0.817493477      -1.435471279
                        -----------------------------------------
Total Dipole Moment    :     -0.021027614       0.009792910       0.031116598
                        -----------------------------------------
Magnitude (a.u.)       :      0.038811137
Magnitude (Debye)      :      0.098650069

Rotational constants in cm-1:             0.117170             0.043044             0.038327
Rotational constants in MHz :          3512.661738          1290.426131          1149.014355

                             ****ORCA TERMINATED NORMALLY****
TOTAL RUN TIME: 0 days 0 hours 0 minutes 10 seconds 982 msec
