                         Program Version 6.0.0  -   RELEASE  -
|  1> ! r2scan-3c def2/J RI DEFGRID2 scfconv6 printgap
|  2> %output
|  3>     printlevel normal
|  4> end
|  5> * xyz 0 1
|  6> C 2.749324739 0.4951238763 -0.3682522367
|  7> C 1.2991844147 0.8984483997 -0.1219415098
|  8> C 0.3176033879 -0.2772361131 -0.2300752007
|  9> H 0.5481307821 -0.8119333539 -1.159988671
| 10> C 0.5060066523 -1.2504099837 0.9325406586
| 11> C -1.1359496945 0.2273190501 -0.3614758798
| 12> C -2.0715523431 -0.8769186572 -0.8550688273
| 13> C -1.6859540467 0.8322379976 0.9289005965
| 14> H 2.8508127662 0.0109479638 -1.3372360226
| 15> H 3.3895116449 1.3742426719 -0.3561727926
| 16> H 3.102226156 -0.1896811536 0.3979340575
| 17> H 1.0213165282 1.6575903968 -0.8574978125
| 18> H 1.219989178 1.3521709207 0.8677075429
| 19> H 1.4858569596 -1.7171147303 0.8775179569
| 20> H 0.4283070168 -0.7332923271 1.8854524125
| 21> H -0.2388292695 -2.0406510001 0.902018971
| 22> H -1.1290039111 1.0146513507 -1.1257120808
| 23> H -3.0607787431 -0.4687214326 -1.0493777321
| 24> H -2.1734345142 -1.6643542241 -0.1126698446
| 25> H -1.6959702506 -1.317098987 -1.7760751269
| 26> H -2.6672982727 1.2638372399 0.7441078543
| 27> H -1.035081549 1.6189104437 1.3003858032
| 28> H -1.7914858535 0.0717591978 1.6978075763
| 29> *
| 30>
| 31>                          ****END OF INPUT****

CARTESIAN COORDINATES (ANGSTROEM)
---------------------------------
  C      2.749325    0.495124   -0.368252
  C      1.299184    0.898448   -0.121942
  C      0.317603   -0.277236   -0.230075
  H      0.548131   -0.811933   -1.159989
  C      0.506007   -1.250410    0.932541
  C     -1.135950    0.227319   -0.361476
  C     -2.071552   -0.876919   -0.855069
  C     -1.685954    0.832238    0.928901
  H      2.850813    0.010948   -1.337236
  H      3.389512    1.374243   -0.356173
  H      3.102226   -0.189681    0.397934
  H      1.021317    1.657590   -0.857498
  H      1.219989    1.352171    0.867708
  H      1.485857   -1.717115    0.877518
  H      0.428307   -0.733292    1.885452
  H     -0.238829   -2.040651    0.902019
  H     -1.129004    1.014651   -1.125712
  H     -3.060779   -0.468721   -1.049378
  H     -2.173435   -1.664354   -0.112670
  H     -1.695970   -1.317099   -1.776075
  H     -2.667298    1.263837    0.744108
  H     -1.035082    1.618910    1.300386
  H     -1.791486    0.071759    1.697808

 Total Charge           Charge          ....    0
 Multiplicity           Mult            ....    1
 Number of Electrons    NEL             ....   58
 Basis Dimension        Dim             ....  213

ORBITAL ENERGIES
----------------

  NO   OCC          E(Eh)            E(eV)
   0   2.0000     -10.028274      -272.8832
   1   2.0000     -10.026714      -272.8408
   2   2.0000     -10.019788      -272.6523
   3   2.0000     -10.013704      -272.4867
   4   2.0000     -10.011883      -272.4372
   5   2.0000     -10.011578      -272.4289
   6   2.0000     -10.011558      -272.4283
   7   2.0000      -0.788362       -21.4524
   8   2.0000      -0.729481       -19.8502
   9   2.0000      -0.679365       -18.4865
  10   2.0000      -0.646934       -17.6040
  11   2.0000      -0.612009       -16.6536
  12   2.0000      -0.553188       -15.0530
  13   2.0000      -0.501905       -13.6575
  14   2.0000      -0.440770       -11.9940
  15   2.0000      -0.426671       -11.6103
  16   2.0000      -0.407419       -11.0864
  17   2.0000      -0.393736       -10.7141
  18   2.0000      -0.368789       -10.0353
  19   2.0000      -0.365247        -9.9389
  20   2.0000      -0.346058        -9.4167
  21   2.0000      -0.343750        -9.3539
  22   2.0000      -0.340281        -9.2595
  23   2.0000      -0.325217        -8.8496
  24   2.0000      -0.310622        -8.4524
  25   2.0000      -0.297155        -8.0860
  26   2.0000      -0.281403        -7.6574
  27   2.0000      -0.275779        -7.5043
  28   2.0000      -0.268644        -7.3102
  29   0.0000       0.080338         2.1861
  30   0.0000       0.107104         2.9144
  31   0.0000       0.115765         3.1501
  32   0.0000       0.117408         3.1948
  33   0.0000       0.127158         3.4602

MULLIKEN ATOMIC CHARGES
-----------------------
   0 C :   -0.501494
   1 C :   -0.243843
   2 C :   -0.048874
   3 H :    0.148774
   4 C :   -0.556175
   5 C :   -0.014532
   6 C :   -0.506372
   7 C :   -0.518274
   8 H :    0.145953
   9 H :    0.147025
  10 H :    0.146951
  11 H :    0.141429
  12 H :    0.142689
  13 H :    0.150813
  14 H :    0.162221
  15 H :    0.152143
  16 H :    0.147682
  17 H :    0.148131
  18 H :    0.150526
  19 H :    0.145904
  20 H :    0.145895
  21 H :    0.155806
  22 H :    0.157622
Sum of atomic charges:   -0.0000000

LOEWDIN ATOMIC CHARGES
----------------------
   0 C :   -0.422602
   1 C :   -0.309887
   2 C :   -0.236540
   3 H :    0.158837
   4 C :   -0.414073
   5 C :   -0.242101
   6 C :   -0.416632
   7 C :   -0.415014
   8 H :    0.150178
   9 H :    0.150439
  10 H :    0.149334
  11 H :    0.154311
  12 H :    0.153560
  13 H :    0.154316
  14 H :    0.154913
  15 H :    0.154737
  16 H :    0.156367
  17 H :    0.153152
  18 H :    0.151264
  19 H :    0.152900
  20 H :    0.153586
  21 H :    0.154461
  22 H :    0.154496

  Mayer bond orders larger than 0.100000
B(  0-C ,  1-C ) :   0.8976 B(  0-C ,  8-H ) :   0.9891 B(  0-C ,  9-H ) :   0.9733
B(  0-C , 10-H ) :   0.9835 B(  1-C ,  2-C ) :   0.9047 B(  1-C , 11-H ) :   0.9744
B(  1-C , 12-H ) :   0.9701 B(  2-C ,  3-H ) :   0.9934 B(  2-C ,  4-C ) :   0.8575
B(  2-C ,  5-C ) :   0.8771 B(  4-C , 13-H ) :   0.9708 B(  4-C , 14-H ) :   0.9826
B(  4-C , 15-H ) :   0.9773 B(  5-C ,  6-C ) :   0.9176 B(  5-C ,  7-C ) :   0.8729
B(  5-C , 16-H ) :   0.9826 B(  6-C , 17-H ) :   0.9757 B(  6-C , 18-H ) :   0.9870
B(  6-C , 19-H ) :   0.9793 B(  7-C , 20-H ) :   0.9694 B(  7-C , 21-H ) :   0.9805
B(  7-C , 22-H ) :   0.9791

Dispersion correction           -0.006508512
FINAL SINGLE POINT ENERGY      -276.286647603209

DIPOLE MOMENT
-------------

Method             : SCF
Type of density    : Electron Density
Multiplicity       :   1
Irrep              :   0
Energy             :  -276.2913473622696756 Eh
Relativity type    :
Basis              : AO
                                X                 Y                 Z
Electronic contribution:     -0.229786255       0.578851324      -0.887564553
Nuclear contribution   :      0.238545059      -0.542948757       0.842658564
                        -----------------------------------------
Total Dipole Moment    :      0.008758804       0.035902566      -0.044905989
                        -----------------------------------------
Magnitude (a.u.)       :      0.058157190
Magnitude (Debye)      :      0.147823829

Rotational constants in cm-1:             0.133914             0.049634             0.047240
Rotational constants in MHz :          4014.648715          1488.001298          1416.226802

                             ****ORCA TERMINATED NORMALLY****
TOTAL RUN TIME: 0 days 0 hours 0 minutes 21 seconds 547 msec
