                         Program Version 6.0.0  -   RELEASE  -
|  1> ! r2scan-3c def2/J RI DEFGRID2 scfconv6 printgap
|  2> %output
|  3>     printlevel normal
|  4> end
|  5> %cpcm
|  6>     smd true
|  7>     smdsolvent "water"
|  8> end
|  9> * xyz 0 1
| 10> C 2.749324739 0.4951238763 -0.3682522367
| 11> C 1.2991844147 0.8984483997 -0.1219415098
| 12> C 0.3176033879 -0.2772361131 -0.2300752007
| 13> H 0.5481307821 -0.8119333539 -1.159988671
| 14> C 0.5060066523 -1.2504099837 0.9325406586
| 15> C -1.1359496945 0.2273190501 -0.3614758798
| 16> C -2.0715523431 -0.8769186572 -0.8550688273
| 17> C -1.6859540467 0.8322379976 0.9289005965
| 18> H 2.8508127662 0.0109479638 -1.3372360226
| 19> H 3.3895116449 1.3742426719 -0.3561727926
| 20> H 3.102226156 -0.1896811536 0.3979340575
| 21> H 1.0213165282 1.6575903968 -0.8574978125
| 22> H 1.219989178 1.3521709207 0.8677075429
| 23> H 1.4858569596 -1.7171147303 0.8775179569
| 24> H 0.4283070168 -0.7332923271 1.8854524125
| 25> H -0.2388292695 -2.0406510001 0.902018971
| 26> H -1.1290039111 1.0146513507 -1.1257120808
| 27> H -3.0607787431 -0.4687214326 -1.0493777321
| 28> H -2.1734345142 -1.6643542241 -0.1126698446
| 29> H -1.6959702506 -1.317098987 -1.7760751269
| 30> H -2.6672982727 1.2638372399 0.7441078543
| 31> H -1.035081549 1.6189104437 1.3003858032
| 32> H -1.7914858535 0.0717591978 1.6978075763
| 33> *
| 34>
| 35>                          ****END OF INPUT****

CARTESIAN COORDINATES (ANGSTROEM)
---------------------------------
  C      2.749325    0.495124   -0.368252
  C      1.299184    0.898448   -0.121942
  C      0.317603   -0.277236   -0.230075
  H      0.548131   -0.811933   -1.159989
  C      0.506007   -1.250410    0.932541
  C     -1.135950    0.227319   -0.361476
  C     -2.071552   -0.876919   -0.855069
  C     -1.685954    0.832238    0.928901
  H      2.850813    0.010948   -1.337236
  H      3.389512    1.374243   -0.356173
  H      3.102226   -0.189681    0.397934
  H      1.021317    1.657590   -0.857498
  H      1.219989    1.352171    0.867708
  H      1.485857   -1.717115    0.877518
  H      0.428307   -0.733292    1.885452
  H     -0.238829   -2.040651    0.902019
  H     -1.129004    1.014651   -1.125712
  H     -3.060779   -0.468721   -1.049378
  H     -2.173435   -1.664354   -0.112670
  H     -1.695970   -1.317099   -1.776075
  H     -2.667298    1.263837    0.744108
  H     -1.035082    1.618910    1.300386
  H     -1.791486    0.071759    1.697808

 Total Charge           Charge          ....    0
 Multiplicity           Mult            ....    1
 Number of Electrons    NEL             ....   58
 Basis Dimension        Dim             ....  213

ORBITAL ENERGIES
----------------

  NO   OCC          E(Eh)            E(eV)
   0   2.0000     -10.020719      -272.6776
   1   2.0000     -10.018711      -272.6230
   2   2.0000     -10.011689      -272.4319
   3   2.0000     -10.006148      -272.2811
   4   2.0000     -10.004050      -272.2241
   5   2.0000     -10.003908      -272.2202
   6   2.0000     -10.003633      -272.2127
   7   2.0000      -0.780594       -21.2410
   8   2.0000      -0.722087       -19.6490
   9   2.0000      -0.671973       -18.2853
  10   2.0000      -0.640026       -17.4160
  11   2.0000      -0.604613       -16.4524
  12   2.0000      -0.545861       -14.8536
  13   2.0000      -0.494376       -13.4527
  14   2.0000      -0.432974       -11.7818
  15   2.0000      -0.418848       -11.3974
  16   2.0000      -0.400174       -10.8893
  17   2.0000      -0.386219       -10.5096
  18   2.0000      -0.361488        -9.8366
  19   2.0000      -0.357668        -9.7327
  20   2.0000      -0.338311        -9.2059
  21   2.0000      -0.336339        -9.1523
  22   2.0000      -0.332816        -9.0564
  23   2.0000      -0.317702        -8.6451
  24   2.0000      -0.303126        -8.2485
  25   2.0000      -0.289221        -7.8701
  26   2.0000      -0.273480        -7.4418
  27   2.0000      -0.267965        -7.2917
  28   2.0000      -0.261072        -7.1041
  29   0.0000       0.088842         2.4175
  30   0.0000       0.114260         3.1092
  31   0.0000       0.122885         3.3439
  32   0.0000       0.124458         3.3867
  33   0.0000       0.134454         3.6587

MULLIKEN ATOMIC CHARGES
-----------------------
   0 C :   -0.539883
   1 C :   -0.261078
   2 C :   -0.042079
   3 H :    0.156428
   4 C :   -0.591755
   5 C :   -0.003309
   6 C :   -0.553259
   7 C :   -0.556923
   8 H :    0.156169
   9 H :    0.156150
  10 H :    0.158335
  11 H :    0.149743
  12 H :    0.153593
  13 H :    0.161544
  14 H :    0.170424
  15 H :    0.163115
  16 H :    0.155180
  17 H :    0.158703
  18 H :    0.164273
  19 H :    0.156317
  20 H :    0.156794
  21 H :    0.165068
  22 H :    0.166447
Sum of atomic charges:   -0.0000000

LOEWDIN ATOMIC CHARGES
----------------------
   0 C :   -0.431405
   1 C :   -0.312500
   2 C :   -0.235780
   3 H :    0.160815
   4 C :   -0.421975
   5 C :   -0.240796
   6 C :   -0.425844
   7 C :   -0.423224
   8 H :    0.152418
   9 H :    0.152104
  10 H :    0.151974
  11 H :    0.156027
  12 H :    0.156128
  13 H :    0.156361
  14 H :    0.156996
  15 H :    0.157189
  16 H :    0.158312
  17 H :    0.155067
  18 H :    0.154496
  19 H :    0.155010
  20 H :    0.155445
  21 H :    0.156655
  22 H :    0.156527

  Mayer bond orders larger than 0.100000
B(  0-C ,  1-C ) :   0.8898 B(  0-C ,  8-H ) :   0.9864 B(  0-C ,  9-H ) :   0.9712
B(  0-C , 10-H ) :   0.9803 B(  1-C ,  2-C ) :   0.8999 B(  1-C , 11-H ) :   0.9751
B(  1-C , 12-H ) :   0.9703 B(  2-C ,  3-H ) :   0.9931 B(  2-C ,  4-C ) :   0.8560
B(  2-C ,  5-C ) :   0.8762 B(  4-C , 13-H ) :   0.9685 B(  4-C , 14-H ) :   0.9800
B(  4-C , 15-H ) :   0.9741 B(  5-C ,  6-C ) :   0.9071 B(  5-C ,  7-C ) :   0.8696
B(  5-C , 16-H ) :   0.9836 B(  6-C , 17-H ) :   0.9739 B(  6-C , 18-H ) :   0.9844
B(  6-C , 19-H ) :   0.9772 B(  7-C , 20-H ) :   0.9685 B(  7-C , 21-H ) :   0.9768
B(  7-C , 22-H ) :   0.9772

Dispersion correction           -0.006508512
FINAL SINGLE POINT ENERGY      -276.282800942116

DIPOLE MOMENT
-------------

Method             : SCF
Type of density    : Electron Density
Multiplicity       :   1
Irrep              :   0
Energy             :  -276.2875007011762136 Eh
Relativity type    :
Basis              : AO
                                X                 Y                 Z
Electronic contribution:     -0.228967556       0.582525316      -0.894016374
Nuclear contribution   :      0.238545059      -0.542948757       0.842658564
                        -----------------------------------------
Total Dipole Moment    :      0.009577502       0.039576559      -0.051357810
                        -----------------------------------------
Magnitude (a.u.)       :      0.065541263
Magnitude (Debye)      :      0.166592652

Rotational constants in cm-1:             0.133914             0.049634             0.047240
Rotational constants in MHz :          4014.648715          1488.001298          1416.226802

                             ****ORCA TERMINATED NORMALLY****
TOTAL RUN TIME: 0 days 0 hours 0 minutes 25 seconds 338 msec
