                         Program Version 6.0.0  -   RELEASE  -
|  1> ! pbe def2-sv(p) def2/J RI DEFGRID1 loosescf d4 GCP(DFT/SV(P)) printgap
|  2> %output
|  3>     printlevel normal
|  4> end
|  5> * xyz 0 1
|  6> C 1.6194636792 -1.0882342752 1.4312825781
|  7> C 2.2575099149 -0.1385258884 0.4606672624
|  8> C 3.5584025029 0.1094659886 0.483673495
|  9> C 1.3508259215 0.5439608607 -0.5350541122
| 10> H 1.9731280924 1.1830906212 -1.1668243739
| 11> C 0.6159012519 -0.4726954624 -1.4277019308
| 12> C -0.8351329576 -0.0617099561 -1.7084002313
| 13> C -1.5368548409 0.0914650559 -0.394217828
| 14> C -0.9137949854 0.8178528416 0.5541773929
| 15> C 0.370976071 1.4764380074 0.2310041842
| 16> C -2.8007029023 -0.5639177374 -0.1416332851
| 17> O -3.4362448658 -0.5116465552 0.8987198961
| 18> H 2.1779766639 -1.1149307162 2.3633554806
| 19> H 0.5905832007 -0.8014471088 1.6395458507
| 20> H 1.6099797902 -2.0991264508 1.0238177859
| 21> H 4.0254412101 0.7822372063 -0.2151411367
| 22> H 4.2121709544 -0.3587386036 1.2000091183
| 23> H 1.1542133045 -0.5868708518 -2.3682733764
| 24> H 0.5956658613 -1.4467386895 -0.9393500606
| 25> H -0.8460645466 0.8893282566 -2.2461203147
| 26> H -1.325372596 -0.8121033567 -2.3286859342
| 27> H -1.3611945311 0.9394666513 1.5301809301
| 28> H 0.1458295154 2.3234073778 -0.4235460129
| 29> H 0.8579134266 1.8662075688 1.1241865899
| 30> H -3.1959438126 -1.1517275487 -0.9919849665
| 31> *
| 32>
| 33>                          ****END OF INPUT****

CARTESIAN COORDINATES (ANGSTROEM)
---------------------------------
  C      1.619464   -1.088234    1.431283
  C      2.257510   -0.138526    0.460667
  C      3.558403    0.109466    0.483673
  C      1.350826    0.543961   -0.535054
  H      1.973128    1.183091   -1.166824
  C      0.615901   -0.472695   -1.427702
  C     -0.835133   -0.061710   -1.708400
  C     -1.536855    0.091465   -0.394218
  C     -0.913795    0.817853    0.554177
  C      0.370976    1.476438    0.231004
  C     -2.800703   -0.563918   -0.141633
  O     -3.436245   -0.511647    0.898720
  H      2.177977   -1.114931    2.363355
  H      0.590583   -0.801447    1.639546
  H      1.609980   -2.099126    1.023818
  H      4.025441    0.782237   -0.215141
  H      4.212171   -0.358739    1.200009
  H      1.154213   -0.586871   -2.368273
  H      0.595666   -1.446739   -0.939350
  H     -0.846065    0.889328   -2.246120
  H     -1.325373   -0.812103   -2.328686
  H     -1.361195    0.939467    1.530181
  H      0.145830    2.323407   -0.423546
  H      0.857913    1.866208    1.124187
  H     -3.195944   -1.151728   -0.991985

 Total Charge           Charge          ....    0
 Multiplicity           Mult            ....    1
 Number of Electrons    NEL             ....   82
 Basis Dimension        Dim             ....  182

ORBITAL ENERGIES
----------------

  NO   OCC          E(Eh)            E(eV)
   0   2.0000     -18.739645      -509.9317
   1   2.0000      -9.961427      -271.0642
   2   2.0000      -9.912522      -269.7334
   3   2.0000      -9.910234      -269.6712
   4   2.0000      -9.905527      -269.5431
   5   2.0000      -9.904544      -269.5164
   6   2.0000      -9.901264      -269.4271
   7   2.0000      -9.900233      -269.3990
   8   2.0000      -9.897783      -269.3324
   9   2.0000      -9.885291      -268.9924
  10   2.0000      -9.876755      -268.7602
  11   2.0000      -0.928860       -25.2756
  12   2.0000      -0.785828       -21.3835
  13   2.0000      -0.732732       -19.9386
  14   2.0000      -0.684286       -18.6204
  15   2.0000      -0.674412       -18.3517
  16   2.0000      -0.620644       -16.8886
  17   2.0000      -0.586644       -15.9634
  18   2.0000      -0.571195       -15.5430
  19   2.0000      -0.522495       -14.2178
  20   2.0000      -0.484498       -13.1839
  21   2.0000      -0.463094       -12.6014
  22   2.0000      -0.444632       -12.0991
  23   2.0000      -0.439017       -11.9463
  24   2.0000      -0.409677       -11.1479
  25   2.0000      -0.396122       -10.7790
  26   2.0000      -0.389329       -10.5942
  27   2.0000      -0.376920       -10.2565
  28   2.0000      -0.366353        -9.9690
  29   2.0000      -0.358485        -9.7549
  30   2.0000      -0.354516        -9.6469
  31   2.0000      -0.351667        -9.5694
  32   2.0000      -0.345111        -9.3909
  33   2.0000      -0.333157        -9.0657
  34   2.0000      -0.324049        -8.8178
  35   2.0000      -0.300988        -8.1903
  36   2.0000      -0.290173        -7.8960
  37   2.0000      -0.280314        -7.6277
  38   2.0000      -0.236414        -6.4331
  39   2.0000      -0.217493        -5.9183
  40   2.0000      -0.199410        -5.4262
  41   0.0000      -0.095623        -2.6020
  42   0.0000      -0.017925        -0.4878
  43   0.0000       0.025406         0.6913
  44   0.0000       0.028174         0.7666
  45   0.0000       0.045750         1.2449

MULLIKEN ATOMIC CHARGES
-----------------------
   0 C :   -0.236567
   1 C :   -0.066219
   2 C :   -0.227659
   3 C :   -0.128796
   4 H :    0.052232
   5 C :   -0.109781
   6 C :   -0.071480
   7 C :   -0.062973
   8 C :   -0.177456
   9 C :   -0.035991
  10 C :    0.039136
  11 O :   -0.174013
  12 H :    0.107862
  13 H :    0.123183
  14 H :    0.126163
  15 H :    0.084995
  16 H :    0.082314
  17 H :    0.089376
  18 H :    0.089651
  19 H :    0.092194
  20 H :    0.083553
  21 H :    0.078667
  22 H :    0.107797
  23 H :    0.105382
  24 H :    0.028430
Sum of atomic charges:    0.0000000

LOEWDIN ATOMIC CHARGES
----------------------
   0 C :   -0.328893
   1 C :   -0.050945
   2 C :   -0.265896
   3 C :   -0.120967
   4 H :    0.121567
   5 C :   -0.207238
   6 C :   -0.210994
   7 C :   -0.118853
   8 C :   -0.073615
   9 C :   -0.211037
  10 C :   -0.005037
  11 O :   -0.138818
  12 H :    0.130746
  13 H :    0.129760
  14 H :    0.135718
  15 H :    0.116742
  16 H :    0.117027
  17 H :    0.124281
  18 H :    0.123071
  19 H :    0.128397
  20 H :    0.122417
  21 H :    0.131501
  22 H :    0.144111
  23 H :    0.131384
  24 H :    0.075574

  Mayer bond orders larger than 0.100000
B(  0-C ,  1-C ) :   1.1064 B(  0-C , 12-H ) :   0.9340 B(  0-C , 13-H ) :   0.9209
B(  0-C , 14-H ) :   0.9207 B(  1-C ,  2-C ) :   2.0313 B(  1-C ,  3-C ) :   1.0308
B(  2-C , 15-H ) :   0.9094 B(  2-C , 16-H ) :   0.9122 B(  3-C ,  4-H ) :   0.8711
B(  3-C ,  5-C ) :   1.0848 B(  3-C ,  9-C ) :   1.0609 B(  5-C ,  6-C ) :   1.1443
B(  5-C , 17-H ) :   0.9108 B(  5-C , 18-H ) :   0.9080 B(  6-C ,  7-C ) :   1.0925
B(  6-C , 19-H ) :   0.8770 B(  6-C , 20-H ) :   0.8977 B(  7-C ,  8-C ) :   1.7342
B(  7-C , 10-C ) :   1.0376 B(  8-C ,  9-C ) :   1.0997 B(  8-C , 11-O ) :   0.1143
B(  8-C , 21-H ) :   0.9364 B(  9-C , 22-H ) :   0.8615 B(  9-C , 23-H ) :   0.9145
B( 10-C , 11-O ) :   2.1314 B( 10-C , 24-H ) :   0.9125

Dispersion correction           -0.027319517
FINAL SINGLE POINT ENERGY      -463.616695808515

DIPOLE MOMENT
-------------

Method             : SCF
Type of density    : Electron Density
Multiplicity       :   1
Irrep              :   0
Energy             :  -463.6920830734023866 Eh
Relativity type    :
Basis              : AO
                                X                 Y                 Z
Electronic contribution:     -8.955162456       0.618569778       1.007514876
Nuclear contribution   :      9.907077956      -0.371542866      -1.674281629
                        -----------------------------------------
Total Dipole Moment    :      0.951915500       0.247026912      -0.666766752
                        -----------------------------------------
Magnitude (a.u.)       :      1.188168051
Magnitude (Debye)      :      3.020083175

Rotational constants in cm-1:             0.073253             0.022436             0.020641
Rotational constants in MHz :          2196.071425           672.616584           618.789998

                             ****ORCA TERMINATED NORMALLY****
TOTAL RUN TIME: 0 days 0 hours 0 minutes 18 seconds 643 msec
