                         Program Version 6.0.0  -   RELEASE  -
|  1> ! pbe def2-sv(p) def2/J RI DEFGRID1 loosescf d4 GCP(DFT/SV(P)) printgap
|  2> %output
|  3>     printlevel normal
|  4> end
|  5> * xyz 0 1
|  6> C 0.5177703662 1.9257070241 0.3591391458
|  7> C 1.8688149818 2.1784016542 0.4360907404
|  8> C 2.8100581004 1.1732974118 0.2015256549
|  9> C 2.3441308823 -0.1152041409 -0.1177750374
| 10> C 0.9720861993 -0.3540610545 -0.1860412487
| 11> C 0.0457914186 0.6479304048 0.048603387
| 12> C -1.3998521023 0.3896607696 -0.0369882209
| 13> C -2.249215527 1.2881704964 -0.6830721853
| 14> C -3.6092907828 1.0612038253 -0.7801308562
| 15> C -4.1300284393 -0.0864908395 -0.2136837335
| 16> C -3.3382317484 -1.0061568452 0.446425505
| 17> C -1.9832807387 -0.7466206468 0.5185948786
| 18> F -1.2150263201 -1.6400339835 1.1947416347
| 19> F -5.4645598464 -0.3242547623 -0.3015572746
| 20> C 3.2369534429 -1.2543858973 -0.3973995621
| 21> O 2.8305510092 -2.342298088 -0.7745908997
| 22> O 4.5254958132 -1.0215469256 -0.2088627174
| 23> O 4.1251632629 1.4186633456 0.2673190989
| 24> H -0.1854077011 2.7180898843 0.5614385964
| 25> H 2.2117027862 3.1713774498 0.6851418065
| 26> H 0.6607938106 -1.3551788599 -0.4440870612
| 27> H -1.8255133204 2.1708957871 -1.1331499647
| 28> H -4.2606066818 1.7539720429 -1.2860600817
| 29> H -3.7563325847 -1.8926573129 0.8928008449
| 30> H 5.0720575637 -1.8052540436 -0.4092139714
| 31> H 4.3003532385 2.3491241047 0.4878664902
| 32> *
| 33>
| 34>                          ****END OF INPUT****

CARTESIAN COORDINATES (ANGSTROEM)
---------------------------------
  C      0.517770    1.925707    0.359139
  C      1.868815    2.178402    0.436091
  C      2.810058    1.173297    0.201526
  C      2.344131   -0.115204   -0.117775
  C      0.972086   -0.354061   -0.186041
  C      0.045791    0.647930    0.048603
  C     -1.399852    0.389661   -0.036988
  C     -2.249216    1.288170   -0.683072
  C     -3.609291    1.061204   -0.780131
  C     -4.130028   -0.086491   -0.213684
  C     -3.338232   -1.006157    0.446426
  C     -1.983281   -0.746621    0.518595
  F     -1.215026   -1.640034    1.194742
  F     -5.464560   -0.324255   -0.301557
  C      3.236953   -1.254386   -0.397400
  O      2.830551   -2.342298   -0.774591
  O      4.525496   -1.021547   -0.208863
  O      4.125163    1.418663    0.267319
  H     -0.185408    2.718090    0.561439
  H      2.211703    3.171377    0.685142
  H      0.660794   -1.355179   -0.444087
  H     -1.825513    2.170896   -1.133150
  H     -4.260607    1.753972   -1.286060
  H     -3.756333   -1.892657    0.892801
  H      5.072058   -1.805254   -0.409214
  H      4.300353    2.349124    0.487866

 Total Charge           Charge          ....    0
 Multiplicity           Mult            ....    1
 Number of Electrons    NEL             ....  128
 Basis Dimension        Dim             ....  268

ORBITAL ENERGIES
----------------

  NO   OCC          E(Eh)            E(eV)
   0   2.0000     -24.277760      -660.6314
   1   2.0000     -24.274930      -660.5544
   2   2.0000     -18.800589      -511.5900
   3   2.0000     -18.790989      -511.3288
   4   2.0000     -18.729236      -509.6484
   5   2.0000     -10.008823      -272.3539
   6   2.0000      -9.985984      -271.7324
   7   2.0000      -9.984674      -271.6968
   8   2.0000      -9.974162      -271.4107
   9   2.0000      -9.917416      -269.8666
  10   2.0000      -9.914515      -269.7877
  11   2.0000      -9.912489      -269.7325
  12   2.0000      -9.912004      -269.7193
  13   2.0000      -9.911535      -269.7066
  14   2.0000      -9.907667      -269.6013
  15   2.0000      -9.907047      -269.5844
  16   2.0000      -9.906161      -269.5603
  17   2.0000      -9.903826      -269.4968
  18   2.0000      -1.104457       -30.0538
  19   2.0000      -1.101734       -29.9797
  20   2.0000      -1.003781       -27.3143
  21   2.0000      -0.985625       -26.8202
  22   2.0000      -0.901210       -24.5232
  23   2.0000      -0.805472       -21.9180
  24   2.0000      -0.785648       -21.3786
  25   2.0000      -0.718120       -19.5410
  26   2.0000      -0.698306       -19.0019
  27   2.0000      -0.690273       -18.7833
  28   2.0000      -0.659459       -17.9448
  29   2.0000      -0.607749       -16.5377
  30   2.0000      -0.587661       -15.9911
  31   2.0000      -0.576549       -15.6887
  32   2.0000      -0.558422       -15.1954
  33   2.0000      -0.538116       -14.6429
  34   2.0000      -0.514449       -13.9989
  35   2.0000      -0.508327       -13.8323
  36   2.0000      -0.479850       -13.0574
  37   2.0000      -0.466204       -12.6861
  38   2.0000      -0.450803       -12.2670
  39   2.0000      -0.437010       -11.8916
  40   2.0000      -0.426591       -11.6081
  41   2.0000      -0.418334       -11.3834
  42   2.0000      -0.409002       -11.1295
  43   2.0000      -0.406200       -11.0533
  44   2.0000      -0.402726       -10.9587
  45   2.0000      -0.399590       -10.8734
  46   2.0000      -0.395705       -10.7677
  47   2.0000      -0.386198       -10.5090
  48   2.0000      -0.374181       -10.1820
  49   2.0000      -0.370619       -10.0851
  50   2.0000      -0.351546        -9.5660
  51   2.0000      -0.342634        -9.3236
  52   2.0000      -0.338935        -9.2229
  53   2.0000      -0.326289        -8.8788
  54   2.0000      -0.318303        -8.6615
  55   2.0000      -0.312253        -8.4968
  56   2.0000      -0.307802        -8.3757
  57   2.0000      -0.296184        -8.0596
  58   2.0000      -0.267794        -7.2871
  59   2.0000      -0.243641        -6.6298
  60   2.0000      -0.240722        -6.5504
  61   2.0000      -0.234212        -6.3732
  62   2.0000      -0.218463        -5.9447
  63   2.0000      -0.199644        -5.4326
  64   0.0000      -0.075162        -2.0453
  65   0.0000      -0.058282        -1.5859
  66   0.0000      -0.047113        -1.2820
  67   0.0000      -0.017021        -0.4632
  68   0.0000       0.009362         0.2547

MULLIKEN ATOMIC CHARGES
-----------------------
   0 C :   -0.104362
   1 C :   -0.162048
   2 C :    0.193282
   3 C :   -0.019543
   4 C :   -0.182559
   5 C :    0.152015
   6 C :    0.041292
   7 C :   -0.122478
   8 C :   -0.140183
   9 C :    0.355192
  10 C :   -0.259499
  11 C :    0.262419
  12 F :   -0.160307
  13 F :   -0.173612
  14 C :    0.106854
  15 O :   -0.192925
  16 O :   -0.268611
  17 O :   -0.286858
  18 H :    0.051814
  19 H :    0.027255
  20 H :    0.065359
  21 H :    0.057727
  22 H :    0.059681
  23 H :    0.065145
  24 H :    0.313622
  25 H :    0.321327
Sum of atomic charges:    0.0000000

LOEWDIN ATOMIC CHARGES
----------------------
   0 C :   -0.093390
   1 C :   -0.171664
   2 C :    0.038653
   3 C :   -0.102372
   4 C :   -0.065252
   5 C :   -0.049618
   6 C :   -0.064165
   7 C :   -0.098204
   8 C :   -0.159626
   9 C :    0.074292
  10 C :   -0.172622
  11 C :    0.085015
  12 F :   -0.042132
  13 F :   -0.053895
  14 C :    0.034279
  15 O :   -0.182096
  16 O :   -0.191511
  17 O :   -0.195634
  18 H :    0.128862
  19 H :    0.123122
  20 H :    0.140213
  21 H :    0.131477
  22 H :    0.138173
  23 H :    0.149074
  24 H :    0.298124
  25 H :    0.300896

  Mayer bond orders larger than 0.100000
B(  0-C ,  1-C ) :   1.3740 B(  0-C ,  5-C ) :   1.3385 B(  0-C , 18-H ) :   0.9571
B(  1-C ,  2-C ) :   1.2845 B(  1-C , 19-H ) :   0.9543 B(  2-C ,  3-C ) :   1.3021
B(  2-C , 17-O ) :   1.2757 B(  3-C ,  4-C ) :   1.3840 B(  3-C , 14-C ) :   0.9328
B(  4-C ,  5-C ) :   1.3183 B(  4-C , 20-H ) :   0.9561 B(  5-C ,  6-C ) :   0.9783
B(  6-C ,  7-C ) :   1.3675 B(  6-C , 11-C ) :   1.3329 B(  7-C ,  8-C ) :   1.3289
B(  7-C , 21-H ) :   0.9564 B(  8-C ,  9-C ) :   1.3441 B(  8-C , 22-H ) :   0.9685
B(  9-C , 10-C ) :   1.2880 B(  9-C , 13-F ) :   1.0867 B( 10-C , 11-C ) :   1.3021
B( 10-C , 23-H ) :   0.9753 B( 11-C , 12-F ) :   1.1110 B( 14-C , 15-O ) :   2.0819
B( 14-C , 16-O ) :   1.3267 B( 16-O , 24-H ) :   0.8201 B( 17-O , 25-H ) :   0.8340

Dispersion correction           -0.034643285
FINAL SINGLE POINT ENERGY      -923.746977001340

DIPOLE MOMENT
-------------

Method             : SCF
Type of density    : Electron Density
Multiplicity       :   1
Irrep              :   0
Energy             :  -923.8293736603350226 Eh
Relativity type    :
Basis              : AO
                                X                 Y                 Z
Electronic contribution:     -7.717525079      -6.867278143       1.632463705
Nuclear contribution   :      8.438681235       8.461940763      -1.443524373
                        -----------------------------------------
Total Dipole Moment    :      0.721156156       1.594662619       0.188939332
                        -----------------------------------------
Magnitude (a.u.)       :      1.760316205
Magnitude (Debye)      :      4.474368210

Rotational constants in cm-1:             0.033800             0.006879             0.006006
Rotational constants in MHz :          1013.293802           206.220649           180.059194

                             ****ORCA TERMINATED NORMALLY****
TOTAL RUN TIME: 0 days 0 hours 0 minutes 23 seconds 477 msec
