                         Program Version 6.0.0  -   RELEASE  -
|  1> ! pbe def2-sv(p) def2/J RI DEFGRID1 loosescf d4 GCP(DFT/SV(P)) printgap
|  2> %output
|  3>     printlevel normal
|  4> end
|  5> * xyz 0 1
|  6> C 0.0662619747 -0.1098350459 -0.2736287276
|  7> H -0.2424529689 0.1583475472 -1.2913315454
|  8> C 1.4848313124 0.4129426232 -0.0162047145
|  9> F 2.3506669192 -0.0488612128 -0.919836874
| 10> F 1.9449545404 0.0789666092 1.1864858535
| 11> F 1.518543985 1.7482695663 -0.0928075228
| 12> O -0.7550482439 0.4487610431 0.7075575732
| 13> C -2.0688697003 0.5926486592 0.4169902617
| 14> F -2.6703665453 -0.5860589057 0.1369533246
| 15> F -2.2486654496 1.3430910776 -0.6995092479
| 16> Cl 0.1164861972 -1.8995643355 -0.1534247789
| 17> H -2.5718847748 1.0697481227 1.2680823267
| 18> *
| 19>
| 20>                          ****END OF INPUT****

CARTESIAN COORDINATES (ANGSTROEM)
---------------------------------
  C      0.066262   -0.109835   -0.273629
  H     -0.242453    0.158348   -1.291332
  C      1.484831    0.412943   -0.016205
  F      2.350667   -0.048861   -0.919837
  F      1.944955    0.078967    1.186486
  F      1.518544    1.748270   -0.092808
  O     -0.755048    0.448761    0.707558
  C     -2.068870    0.592649    0.416990
  F     -2.670367   -0.586059    0.136953
  F     -2.248665    1.343091   -0.699509
  Cl     0.116486   -1.899564   -0.153425
  H     -2.571885    1.069748    1.268082

 Total Charge           Charge          ....    0
 Multiplicity           Mult            ....    1
 Number of Electrons    NEL             ....   90
 Basis Dimension        Dim             ....  148

ORBITAL ENERGIES
----------------

  NO   OCC          E(Eh)            E(eV)
   0   2.0000    -100.651676     -2738.8714
   1   2.0000     -24.307000      -661.4271
   2   2.0000     -24.306690      -661.4187
   3   2.0000     -24.306114      -661.4030
   4   2.0000     -24.293765      -661.0670
   5   2.0000     -24.290728      -660.9843
   6   2.0000     -18.839662      -512.6533
   7   2.0000     -10.143795      -276.0267
   8   2.0000     -10.115191      -275.2483
   9   2.0000     -10.040062      -273.2040
  10   2.0000      -9.187944      -250.0167
  11   2.0000      -7.019858      -191.0200
  12   2.0000      -7.007516      -190.6842
  13   2.0000      -7.007154      -190.6744
  14   2.0000      -1.213169       -33.0120
  15   2.0000      -1.174051       -31.9475
  16   2.0000      -1.118693       -30.4412
  17   2.0000      -1.117395       -30.4059
  18   2.0000      -1.097789       -29.8724
  19   2.0000      -1.026729       -27.9387
  20   2.0000      -0.810098       -22.0439
  21   2.0000      -0.712165       -19.3790
  22   2.0000      -0.646315       -17.5871
  23   2.0000      -0.595341       -16.2000
  24   2.0000      -0.561286       -15.2734
  25   2.0000      -0.554921       -15.1002
  26   2.0000      -0.544264       -14.8102
  27   2.0000      -0.528484       -14.3808
  28   2.0000      -0.520995       -14.1770
  29   2.0000      -0.500287       -13.6135
  30   2.0000      -0.446050       -12.1376
  31   2.0000      -0.419318       -11.4102
  32   2.0000      -0.413583       -11.2542
  33   2.0000      -0.411178       -11.1887
  34   2.0000      -0.385848       -10.4995
  35   2.0000      -0.376984       -10.2583
  36   2.0000      -0.372723       -10.1423
  37   2.0000      -0.369735       -10.0610
  38   2.0000      -0.357077        -9.7165
  39   2.0000      -0.353567        -9.6211
  40   2.0000      -0.345656        -9.4058
  41   2.0000      -0.344562        -9.3760
  42   2.0000      -0.311368        -8.4728
  43   2.0000      -0.283109        -7.7038
  44   2.0000      -0.278000        -7.5648
  45   0.0000      -0.028157        -0.7662
  46   0.0000       0.036026         0.9803
  47   0.0000       0.046468         1.2645
  48   0.0000       0.054995         1.4965
  49   0.0000       0.095633         2.6023

MULLIKEN ATOMIC CHARGES
-----------------------
   0 C :   -0.037856
   1 H :    0.157146
   2 C :    0.437299
   3 F :   -0.122976
   4 F :   -0.117477
   5 F :   -0.129651
   6 O :   -0.234749
   7 C :    0.372683
   8 F :   -0.169547
   9 F :   -0.177977
  10 Cl:   -0.075451
  11 H :    0.098557
Sum of atomic charges:    0.0000000

LOEWDIN ATOMIC CHARGES
----------------------
   0 C :   -0.159107
   1 H :    0.135695
   2 C :    0.070921
   3 F :   -0.030017
   4 F :   -0.023875
   5 F :   -0.034423
   6 O :   -0.082417
   7 C :    0.082467
   8 F :   -0.073013
   9 F :   -0.079670
  10 Cl:    0.085319
  11 H :    0.108120

  Mayer bond orders larger than 0.100000
B(  0-C ,  1-H ) :   0.8781 B(  0-C ,  2-C ) :   0.9123 B(  0-C ,  6-O ) :   0.9908
B(  0-C , 10-Cl) :   1.0728 B(  2-C ,  3-F ) :   1.1815 B(  2-C ,  4-F ) :   1.1979
B(  2-C ,  5-F ) :   1.1764 B(  6-O ,  7-C ) :   1.1222 B(  7-C ,  8-F ) :   1.1206
B(  7-C ,  9-F ) :   1.0955 B(  7-C , 11-H ) :   0.9219

Dispersion correction           -0.011406458
FINAL SINGLE POINT ENERGY     -1148.545186761953

DIPOLE MOMENT
-------------

Method             : SCF
Type of density    : Electron Density
Multiplicity       :   1
Irrep              :   0
Energy             : -1148.6252379437510172 Eh
Relativity type    :
Basis              : AO
                                X                 Y                 Z
Electronic contribution:      3.183779398      -1.056432247      -0.532665447
Nuclear contribution   :     -3.637239728       1.359253877       0.554735003
                        -----------------------------------------
Total Dipole Moment    :     -0.453460330       0.302821630       0.022069556
                        -----------------------------------------
Magnitude (a.u.)       :      0.545723625
Magnitude (Debye)      :      1.387119220

Rotational constants in cm-1:             0.055174             0.027445             0.021496
Rotational constants in MHz :          1654.073387           822.784634           644.432647

                             ****ORCA TERMINATED NORMALLY****
TOTAL RUN TIME: 0 days 0 hours 0 minutes 7 seconds 167 msec
