                         Program Version 6.0.0  -   RELEASE  -
|  1> ! pbe def2-sv(p) def2/J RI DEFGRID1 loosescf d4 GCP(DFT/SV(P)) printgap
|  2> %output
|  3>     printlevel normal
|  4> end
|  5> * xyz 0 1
|  6> C -4.2733641352 0.8043475641 0.0144382321
|  7> O -3.4687098337 -0.3640579741 -0.0011211671
|  8> C -2.1243999479 -0.2383840086 -0.0016335252
|  9> C -1.4010728073 -1.4379945498 -0.0208632779
| 10> C -0.0280824054 -1.4201138081 -0.0235273674
| 11> C 0.6645738563 -0.2055669435 -0.0063266856
| 12> C -0.0558771573 0.9869992531 0.0129800852
| 13> C -1.4358453134 0.9754652099 0.0151655532
| 14> C 2.1338359664 -0.2277405332 -0.0102354105
| 15> O 2.8051652042 -1.2463991406 -0.0321512089
| 16> O 2.6744280019 0.9931811426 0.0223598983
| 17> C 4.0985128438 1.0997269007 0.0250177174
| 18> H -4.0944061996 1.3922206948 0.9172659468
| 19> H -5.2987947848 0.4425956003 0.0094405736
| 20> H -4.0940087003 1.4161630005 -0.8722867562
| 21> H -1.9502624008 -2.3653633538 -0.0337269797
| 22> H 0.5405569696 -2.3372296761 -0.0388034264
| 23> H 0.4754553573 1.9250513734 0.0259768214
| 24> H -1.9678691418 1.9121956395 0.0300149327
| 25> H 4.3377189257 1.9820975172 0.6123475648
| 26> H 4.4510011773 1.2147125515 -1.000358032
| 27> H 4.5391351194 0.2033211535 0.4635871092
| 28> *
| 29>
| 30>                          ****END OF INPUT****

CARTESIAN COORDINATES (ANGSTROEM)
---------------------------------
  C     -4.273364    0.804348    0.014438
  O     -3.468710   -0.364058   -0.001121
  C     -2.124400   -0.238384   -0.001634
  C     -1.401073   -1.437995   -0.020863
  C     -0.028082   -1.420114   -0.023527
  C      0.664574   -0.205567   -0.006327
  C     -0.055877    0.986999    0.012980
  C     -1.435845    0.975465    0.015166
  C      2.133836   -0.227741   -0.010235
  O      2.805165   -1.246399   -0.032151
  O      2.674428    0.993181    0.022360
  C      4.098513    1.099727    0.025018
  H     -4.094406    1.392221    0.917266
  H     -5.298795    0.442596    0.009441
  H     -4.094009    1.416163   -0.872287
  H     -1.950262   -2.365363   -0.033727
  H      0.540557   -2.337230   -0.038803
  H      0.475455    1.925051    0.025977
  H     -1.967869    1.912196    0.030015
  H      4.337719    1.982098    0.612348
  H      4.451001    1.214713   -1.000358
  H      4.539135    0.203321    0.463587

 Total Charge           Charge          ....    0
 Multiplicity           Mult            ....    1
 Number of Electrons    NEL             ....   88
 Basis Dimension        Dim             ....  188

ORBITAL ENERGIES
----------------

  NO   OCC          E(Eh)            E(eV)
   0   2.0000     -18.801030      -511.6020
   1   2.0000     -18.793933      -511.4089
   2   2.0000     -18.726446      -509.5725
   3   2.0000      -9.999447      -272.0988
   4   2.0000      -9.961884      -271.0766
   5   2.0000      -9.949888      -270.7502
   6   2.0000      -9.935886      -270.3692
   7   2.0000      -9.901342      -269.4292
   8   2.0000      -9.899024      -269.3661
   9   2.0000      -9.897692      -269.3299
  10   2.0000      -9.897636      -269.3284
  11   2.0000      -9.892834      -269.1977
  12   2.0000      -0.997722       -27.1494
  13   2.0000      -0.982731       -26.7415
  14   2.0000      -0.901203       -24.5230
  15   2.0000      -0.781585       -21.2680
  16   2.0000      -0.704314       -19.1654
  17   2.0000      -0.679626       -18.4936
  18   2.0000      -0.666008       -18.1230
  19   2.0000      -0.629059       -17.1176
  20   2.0000      -0.558263       -15.1911
  21   2.0000      -0.547592       -14.9007
  22   2.0000      -0.506331       -13.7780
  23   2.0000      -0.495533       -13.4841
  24   2.0000      -0.466813       -12.7026
  25   2.0000      -0.442627       -12.0445
  26   2.0000      -0.431850       -11.7512
  27   2.0000      -0.428057       -11.6480
  28   2.0000      -0.410491       -11.1700
  29   2.0000      -0.393118       -10.6973
  30   2.0000      -0.388370       -10.5681
  31   2.0000      -0.379802       -10.3349
  32   2.0000      -0.373849       -10.1729
  33   2.0000      -0.362819        -9.8728
  34   2.0000      -0.341551        -9.2941
  35   2.0000      -0.339477        -9.2376
  36   2.0000      -0.320840        -8.7305
  37   2.0000      -0.297892        -8.1061
  38   2.0000      -0.287654        -7.8275
  39   2.0000      -0.285185        -7.7603
  40   2.0000      -0.251526        -6.8444
  41   2.0000      -0.235885        -6.4187
  42   2.0000      -0.216412        -5.8889
  43   2.0000      -0.203219        -5.5299
  44   0.0000      -0.062467        -1.6998
  45   0.0000      -0.038689        -1.0528
  46   0.0000       0.032658         0.8887
  47   0.0000       0.038442         1.0461
  48   0.0000       0.054340         1.4787

MULLIKEN ATOMIC CHARGES
-----------------------
   0 C :   -0.118593
   1 O :   -0.255036
   2 C :    0.275422
   3 C :   -0.102790
   4 C :   -0.094013
   5 C :    0.042077
   6 C :   -0.086276
   7 C :   -0.182285
   8 C :    0.150669
   9 O :   -0.202745
  10 O :   -0.251971
  11 C :   -0.117799
  12 H :    0.116795
  13 H :    0.130741
  14 H :    0.116845
  15 H :    0.049245
  16 H :    0.064869
  17 H :    0.056328
  18 H :    0.041737
  19 H :    0.118741
  20 H :    0.118422
  21 H :    0.129616
Sum of atomic charges:   -0.0000000

LOEWDIN ATOMIC CHARGES
----------------------
   0 C :   -0.200527
   1 O :   -0.077142
   2 C :    0.039316
   3 C :   -0.140142
   4 C :   -0.082780
   5 C :   -0.098265
   6 C :   -0.090363
   7 C :   -0.175781
   8 C :    0.045131
   9 O :   -0.176028
  10 O :   -0.077389
  11 C :   -0.205536
  12 H :    0.113191
  13 H :    0.125314
  14 H :    0.113224
  15 H :    0.132435
  16 H :    0.136656
  17 H :    0.130933
  18 H :    0.127277
  19 H :    0.118881
  20 H :    0.118289
  21 H :    0.123306

  Mayer bond orders larger than 0.100000
B(  0-C ,  1-O ) :   0.9784 B(  0-C , 12-H ) :   0.9424 B(  0-C , 13-H ) :   0.9586
B(  0-C , 14-H ) :   0.9424 B(  1-O ,  2-C ) :   1.1660 B(  2-C ,  3-C ) :   1.3149
B(  2-C ,  7-C ) :   1.2763 B(  3-C ,  4-C ) :   1.3726 B(  3-C , 15-H ) :   0.9685
B(  4-C ,  5-C ) :   1.3440 B(  4-C , 16-H ) :   0.9605 B(  5-C ,  6-C ) :   1.3586
B(  5-C ,  8-C ) :   0.9596 B(  6-C ,  7-C ) :   1.3384 B(  6-C , 17-H ) :   0.9570
B(  7-C , 18-H ) :   0.9639 B(  8-C ,  9-O ) :   2.0605 B(  8-C , 10-O ) :   1.2267
B( 10-O , 11-C ) :   0.9404 B( 11-C , 19-H ) :   0.9611 B( 11-C , 20-H ) :   0.9592
B( 11-C , 21-H ) :   0.9342

Dispersion correction           -0.022687276
FINAL SINGLE POINT ENERGY      -573.452860671264

DIPOLE MOMENT
-------------

Method             : SCF
Type of density    : Electron Density
Multiplicity       :   1
Irrep              :   0
Energy             :  -573.5273298650698734 Eh
Relativity type    :
Basis              : AO
                                X                 Y                 Z
Electronic contribution:      2.028173125      -4.249756469      -0.081606930
Nuclear contribution   :     -2.842399859       5.418891902       0.106281110
                        -----------------------------------------
Total Dipole Moment    :     -0.814226734       1.169135433       0.024674180
                        -----------------------------------------
Magnitude (a.u.)       :      1.424939174
Magnitude (Debye)      :      3.621907544

Rotational constants in cm-1:             0.099270             0.014652             0.012830
Rotational constants in MHz :          2976.035790           439.254712           384.636028

                             ****ORCA TERMINATED NORMALLY****
TOTAL RUN TIME: 0 days 0 hours 0 minutes 13 seconds 313 msec
