                         Program Version 6.0.0  -   RELEASE  -
|  1> ! pbe def2-sv(p) def2/J RI DEFGRID1 loosescf d4 GCP(DFT/SV(P)) printgap
|  2> %output
|  3>     printlevel normal
|  4> end
|  5> * xyz 0 1
|  6> C 2.4714239957 0.8425180108 0.2990569649
|  7> C 1.2456533799 -0.0662312377 0.2494271257
|  8> C 1.4744515132 -1.2214423828 -0.7229927618
|  9> C 0.0063629973 0.7366387808 -0.1562606295
| 10> C -1.2995625454 0.0293773797 0.0928695556
| 11> O -1.3802296536 -1.0453387358 0.6560823488
| 12> C -2.5218452467 0.7655585487 -0.3854377895
| 13> H 2.3337295181 1.6394598585 1.0258916074
| 14> H 3.3525331351 0.2718979499 0.5810120502
| 15> H 2.6505345048 1.2892840288 -0.6762684653
| 16> H 1.0673601379 -0.48542036 1.2459722528
| 17> H 0.6061542617 -1.8760922467 -0.7413221509
| 18> H 2.3371390158 -1.8090784049 -0.4188895406
| 19> H 1.6509050934 -0.8443879521 -1.7284058813
| 20> H 0.0578540588 0.9991350647 -1.2150637908
| 21> H -0.0346241328 1.6733892665 0.4062098851
| 22> H -3.1355028212 1.0173975714 0.4773593132
| 23> H -2.2659097294 1.6676232668 -0.9290996672
| 24> H -3.1137776982 0.1037934085 -1.0138196655
| 25> *
| 26>
| 27>                          ****END OF INPUT****

CARTESIAN COORDINATES (ANGSTROEM)
---------------------------------
  C      2.471424    0.842518    0.299057
  C      1.245653   -0.066231    0.249427
  C      1.474452   -1.221442   -0.722993
  C      0.006363    0.736639   -0.156261
  C     -1.299563    0.029377    0.092870
  O     -1.380230   -1.045339    0.656082
  C     -2.521845    0.765559   -0.385438
  H      2.333730    1.639460    1.025892
  H      3.352533    0.271898    0.581012
  H      2.650535    1.289284   -0.676268
  H      1.067360   -0.485420    1.245972
  H      0.606154   -1.876092   -0.741322
  H      2.337139   -1.809078   -0.418890
  H      1.650905   -0.844388   -1.728406
  H      0.057854    0.999135   -1.215064
  H     -0.034624    1.673389    0.406210
  H     -3.135503    1.017398    0.477359
  H     -2.265910    1.667623   -0.929100
  H     -3.113778    0.103793   -1.013820

 Total Charge           Charge          ....    0
 Multiplicity           Mult            ....    1
 Number of Electrons    NEL             ....   56
 Basis Dimension        Dim             ....  122

ORBITAL ENERGIES
----------------

  NO   OCC          E(Eh)            E(eV)
   0   2.0000     -18.738289      -509.8948
   1   2.0000      -9.973818      -271.4014
   2   2.0000      -9.894733      -269.2494
   3   2.0000      -9.892376      -269.1852
   4   2.0000      -9.886503      -269.0254
   5   2.0000      -9.873403      -268.6689
   6   2.0000      -9.867456      -268.5071
   7   2.0000      -0.935506       -25.4564
   8   2.0000      -0.733597       -19.9622
   9   2.0000      -0.682468       -18.5709
  10   2.0000      -0.625084       -17.0094
  11   2.0000      -0.608549       -16.5595
  12   2.0000      -0.509948       -13.8764
  13   2.0000      -0.465939       -12.6788
  14   2.0000      -0.428025       -11.6472
  15   2.0000      -0.417489       -11.3605
  16   2.0000      -0.398440       -10.8421
  17   2.0000      -0.391250       -10.6464
  18   2.0000      -0.367292        -9.9945
  19   2.0000      -0.364847        -9.9280
  20   2.0000      -0.347511        -9.4563
  21   2.0000      -0.338722        -9.2171
  22   2.0000      -0.325724        -8.8634
  23   2.0000      -0.307667        -8.3721
  24   2.0000      -0.289262        -7.8712
  25   2.0000      -0.286370        -7.7925
  26   2.0000      -0.283298        -7.7089
  27   2.0000      -0.196910        -5.3582
  28   0.0000      -0.050587        -1.3765
  29   0.0000       0.030398         0.8272
  30   0.0000       0.054525         1.4837
  31   0.0000       0.072283         1.9669
  32   0.0000       0.084248         2.2925

MULLIKEN ATOMIC CHARGES
-----------------------
   0 C :   -0.229445
   1 C :   -0.166408
   2 C :   -0.258163
   3 C :   -0.162766
   4 C :   -0.014023
   5 O :   -0.175774
   6 C :   -0.238661
   7 H :    0.095413
   8 H :    0.100250
   9 H :    0.088678
  10 H :    0.084745
  11 H :    0.116229
  12 H :    0.099440
  13 H :    0.085236
  14 H :    0.100597
  15 H :    0.107489
  16 H :    0.132477
  17 H :    0.104533
  18 H :    0.130151
Sum of atomic charges:    0.0000000

LOEWDIN ATOMIC CHARGES
----------------------
   0 C :   -0.328350
   1 C :   -0.156470
   2 C :   -0.331972
   3 C :   -0.247778
   4 C :    0.044701
   5 O :   -0.133901
   6 C :   -0.363728
   7 H :    0.115117
   8 H :    0.118686
   9 H :    0.114589
  10 H :    0.122071
  11 H :    0.122814
  12 H :    0.118459
  13 H :    0.111708
  14 H :    0.134183
  15 H :    0.139231
  16 H :    0.148773
  17 H :    0.125078
  18 H :    0.146787

  Mayer bond orders larger than 0.100000
B(  0-C ,  1-C ) :   1.1099 B(  0-C ,  7-H ) :   0.9504 B(  0-C ,  8-H ) :   0.9523
B(  0-C ,  9-H ) :   0.9475 B(  1-C ,  2-C ) :   1.1099 B(  1-C ,  3-C ) :   1.0799
B(  1-C , 10-H ) :   0.8983 B(  2-C , 11-H ) :   0.9469 B(  2-C , 12-H ) :   0.9526
B(  2-C , 13-H ) :   0.9478 B(  3-C ,  4-C ) :   1.0071 B(  3-C , 14-H ) :   0.8886
B(  3-C , 15-H ) :   0.8890 B(  4-C ,  5-O ) :   2.1526 B(  4-C ,  6-C ) :   1.0636
B(  6-C , 16-H ) :   0.9235 B(  6-C , 17-H ) :   0.9424 B(  6-C , 18-H ) :   0.9257

Dispersion correction           -0.014667594
FINAL SINGLE POINT ENERGY      -310.356425121086

DIPOLE MOMENT
-------------

Method             : SCF
Type of density    : Electron Density
Multiplicity       :   1
Irrep              :   0
Energy             :  -310.4213134424060172 Eh
Relativity type    :
Basis              : AO
                                X                 Y                 Z
Electronic contribution:     -5.156204452      -2.573817915       2.411870462
Nuclear contribution   :      5.145433513       3.405982820      -2.792026471
                        -----------------------------------------
Total Dipole Moment    :     -0.010770939       0.832164905      -0.380156008
                        -----------------------------------------
Magnitude (a.u.)       :      0.914949744
Magnitude (Debye)      :      2.325617429

Rotational constants in cm-1:             0.159748             0.050773             0.044211
Rotational constants in MHz :          4789.133196          1522.147959          1325.411696

                             ****ORCA TERMINATED NORMALLY****
TOTAL RUN TIME: 0 days 0 hours 0 minutes 8 seconds 984 msec
