                         Program Version 6.0.0  -   RELEASE  -
|  1> ! r2scan-3c def2/J RI DEFGRID2 scfconv6 printgap
|  2> %output
|  3>     printlevel normal
|  4> end
|  5> * xyz 0 1
|  6> C -2.0345741265 1.1691249654 0.7990806437
|  7> C -1.9619706208 -0.0864052319 -0.058471038
|  8> C -0.5623231231 -0.5155152173 -0.4159368153
|  9> O -0.3138073394 -1.4711629394 -1.1284714692
| 10> O 0.3755164624 0.2437073553 0.1234650801
| 11> C 1.7472250514 -0.0865820439 -0.1477798734
| 12> C 2.6241907319 0.7126414159 0.7967149373
| 13> H -1.5770523092 2.0097447731 0.2853704065
| 14> H -3.0732920657 1.4087313183 1.0069325065
| 15> H -1.5138786753 1.0200151659 1.7404343727
| 16> H -2.500867075 0.0501253355 -0.9986021555
| 17> H -2.4290459243 -0.9323302589 0.4512570212
| 18> H 1.8779543947 -1.1656806168 -0.0147876412
| 19> H 1.9569970318 0.1552035652 -1.1948699325
| 20> H 3.6663507912 0.489267186 0.5937360501
| 21> H 2.4502782054 1.7750053483 0.6548277671
| 22> H 2.3968249726 0.4545876057 1.8268230285
| 23> *
| 24>
| 25>                          ****END OF INPUT****

CARTESIAN COORDINATES (ANGSTROEM)
---------------------------------
  C     -2.034574    1.169125    0.799081
  C     -1.961971   -0.086405   -0.058471
  C     -0.562323   -0.515515   -0.415937
  O     -0.313807   -1.471163   -1.128471
  O      0.375516    0.243707    0.123465
  C      1.747225   -0.086582   -0.147780
  C      2.624191    0.712641    0.796715
  H     -1.577052    2.009745    0.285370
  H     -3.073292    1.408731    1.006933
  H     -1.513879    1.020015    1.740434
  H     -2.500867    0.050125   -0.998602
  H     -2.429046   -0.932330    0.451257
  H      1.877954   -1.165681   -0.014788
  H      1.956997    0.155204   -1.194870
  H      3.666351    0.489267    0.593736
  H      2.450278    1.775005    0.654828
  H      2.396825    0.454588    1.826823

 Total Charge           Charge          ....    0
 Multiplicity           Mult            ....    1
 Number of Electrons    NEL             ....   56
 Basis Dimension        Dim             ....  193

ORBITAL ENERGIES
----------------

  NO   OCC          E(Eh)            E(eV)
   0   2.0000     -18.998515      -516.9759
   1   2.0000     -18.923405      -514.9320
   2   2.0000     -10.150936      -276.2210
   3   2.0000     -10.092550      -274.6323
   4   2.0000     -10.044899      -273.3356
   5   2.0000     -10.032935      -273.0100
   6   2.0000     -10.024738      -272.7870
   7   2.0000      -1.073457       -29.2103
   8   2.0000      -0.971125       -26.4256
   9   2.0000      -0.767540       -20.8858
  10   2.0000      -0.732347       -19.9282
  11   2.0000      -0.634895       -17.2764
  12   2.0000      -0.600947       -16.3526
  13   2.0000      -0.535858       -14.5814
  14   2.0000      -0.469773       -12.7832
  15   2.0000      -0.456953       -12.4343
  16   2.0000      -0.432929       -11.7806
  17   2.0000      -0.429946       -11.6994
  18   2.0000      -0.381433       -10.3793
  19   2.0000      -0.379282       -10.3208
  20   2.0000      -0.370966       -10.0945
  21   2.0000      -0.357092        -9.7170
  22   2.0000      -0.339935        -9.2501
  23   2.0000      -0.335595        -9.1320
  24   2.0000      -0.316797        -8.6205
  25   2.0000      -0.311908        -8.4874
  26   2.0000      -0.270010        -7.3474
  27   2.0000      -0.230581        -6.2744
  28   0.0000      -0.012614        -0.3432
  29   0.0000       0.069931         1.9029
  30   0.0000       0.095421         2.5965
  31   0.0000       0.116219         3.1625
  32   0.0000       0.121045         3.2938

MULLIKEN ATOMIC CHARGES
-----------------------
   0 C :   -0.466993
   1 C :   -0.287267
   2 C :    0.348067
   3 O :   -0.419700
   4 O :   -0.135812
   5 C :   -0.151992
   6 C :   -0.441211
   7 H :    0.153465
   8 H :    0.146476
   9 H :    0.153816
  10 H :    0.166603
  11 H :    0.166717
  12 H :    0.165625
  13 H :    0.150872
  14 H :    0.147788
  15 H :    0.151427
  16 H :    0.152118
Sum of atomic charges:    0.0000000

LOEWDIN ATOMIC CHARGES
----------------------
   0 C :   -0.401818
   1 C :   -0.236859
   2 C :    0.358346
   3 O :   -0.435879
   4 O :   -0.604690
   5 C :    0.036387
   6 C :   -0.386529
   7 H :    0.159006
   8 H :    0.149983
   9 H :    0.159736
  10 H :    0.181111
  11 H :    0.181534
  12 H :    0.184462
  13 H :    0.177198
  14 H :    0.159847
  15 H :    0.159196
  16 H :    0.158968

  Mayer bond orders larger than 0.100000
B(  0-C ,  1-C ) :   0.9129 B(  0-C ,  7-H ) :   0.9783 B(  0-C ,  8-H ) :   0.9679
B(  0-C ,  9-H ) :   0.9767 B(  1-C ,  2-C ) :   1.0081 B(  1-C , 10-H ) :   0.9466
B(  1-C , 11-H ) :   0.9389 B(  2-C ,  3-O ) :   1.8311 B(  2-C ,  4-O ) :   1.1173
B(  4-O ,  5-C ) :   0.7986 B(  5-C ,  6-C ) :   0.9455 B(  5-C , 12-H ) :   0.9582
B(  5-C , 13-H ) :   0.9460 B(  6-C , 14-H ) :   0.9681 B(  6-C , 15-H ) :   0.9694
B(  6-C , 16-H ) :   0.9741

Dispersion correction           -0.003943068
FINAL SINGLE POINT ENERGY      -346.935564848532

DIPOLE MOMENT
-------------

Method             : SCF
Type of density    : Electron Density
Multiplicity       :   1
Irrep              :   0
Energy             :  -346.9420302854074976 Eh
Relativity type    :
Basis              : AO
                                X                 Y                 Z
Electronic contribution:     -0.963117158      -4.215325400      -3.521425306
Nuclear contribution   :      1.177629272       4.920941730       4.067179027
                        -----------------------------------------
Total Dipole Moment    :      0.214512114       0.705616330       0.545753721
                        -----------------------------------------
Magnitude (a.u.)       :      0.917473147
Magnitude (Debye)      :      2.332031410

Rotational constants in cm-1:             0.137551             0.058055             0.042222
Rotational constants in MHz :          4123.678958          1740.447295          1265.779835

                             ****ORCA TERMINATED NORMALLY****
TOTAL RUN TIME: 0 days 0 hours 0 minutes 20 seconds 941 msec
