                         Program Version 6.0.0  -   RELEASE  -
|  1> ! r2scan-3c def2/J RI DEFGRID2 scfconv6 printgap
|  2> %output
|  3>     printlevel normal
|  4> end
|  5> %cpcm
|  6>     smd true
|  7>     smdsolvent "water"
|  8> end
|  9> * xyz 0 1
| 10> C -2.0345741265 1.1691249654 0.7990806437
| 11> C -1.9619706208 -0.0864052319 -0.058471038
| 12> C -0.5623231231 -0.5155152173 -0.4159368153
| 13> O -0.3138073394 -1.4711629394 -1.1284714692
| 14> O 0.3755164624 0.2437073553 0.1234650801
| 15> C 1.7472250514 -0.0865820439 -0.1477798734
| 16> C 2.6241907319 0.7126414159 0.7967149373
| 17> H -1.5770523092 2.0097447731 0.2853704065
| 18> H -3.0732920657 1.4087313183 1.0069325065
| 19> H -1.5138786753 1.0200151659 1.7404343727
| 20> H -2.500867075 0.0501253355 -0.9986021555
| 21> H -2.4290459243 -0.9323302589 0.4512570212
| 22> H 1.8779543947 -1.1656806168 -0.0147876412
| 23> H 1.9569970318 0.1552035652 -1.1948699325
| 24> H 3.6663507912 0.489267186 0.5937360501
| 25> H 2.4502782054 1.7750053483 0.6548277671
| 26> H 2.3968249726 0.4545876057 1.8268230285
| 27> *
| 28>
| 29>                          ****END OF INPUT****

CARTESIAN COORDINATES (ANGSTROEM)
---------------------------------
  C     -2.034574    1.169125    0.799081
  C     -1.961971   -0.086405   -0.058471
  C     -0.562323   -0.515515   -0.415937
  O     -0.313807   -1.471163   -1.128471
  O      0.375516    0.243707    0.123465
  C      1.747225   -0.086582   -0.147780
  C      2.624191    0.712641    0.796715
  H     -1.577052    2.009745    0.285370
  H     -3.073292    1.408731    1.006933
  H     -1.513879    1.020015    1.740434
  H     -2.500867    0.050125   -0.998602
  H     -2.429046   -0.932330    0.451257
  H      1.877954   -1.165681   -0.014788
  H      1.956997    0.155204   -1.194870
  H      3.666351    0.489267    0.593736
  H      2.450278    1.775005    0.654828
  H      2.396825    0.454588    1.826823

 Total Charge           Charge          ....    0
 Multiplicity           Mult            ....    1
 Number of Electrons    NEL             ....   56
 Basis Dimension        Dim             ....  193

ORBITAL ENERGIES
----------------

  NO   OCC          E(Eh)            E(eV)
   0   2.0000     -19.004016      -517.1256
   1   2.0000     -18.940441      -515.3956
   2   2.0000     -10.162048      -276.5234
   3   2.0000     -10.084401      -274.4105
   4   2.0000     -10.038749      -273.1683
   5   2.0000     -10.018949      -272.6295
   6   2.0000     -10.015864      -272.5455
   7   2.0000      -1.080489       -29.4016
   8   2.0000      -0.986130       -26.8340
   9   2.0000      -0.762547       -20.7500
  10   2.0000      -0.723434       -19.6856
  11   2.0000      -0.628965       -17.1150
  12   2.0000      -0.594297       -16.1716
  13   2.0000      -0.533592       -14.5198
  14   2.0000      -0.467698       -12.7267
  15   2.0000      -0.455533       -12.3957
  16   2.0000      -0.449720       -12.2375
  17   2.0000      -0.423140       -11.5142
  18   2.0000      -0.377046       -10.2600
  19   2.0000      -0.371660       -10.1134
  20   2.0000      -0.361351        -9.8328
  21   2.0000      -0.354057        -9.6344
  22   2.0000      -0.333337        -9.0706
  23   2.0000      -0.329457        -8.9650
  24   2.0000      -0.315971        -8.5980
  25   2.0000      -0.307407        -8.3650
  26   2.0000      -0.277434        -7.5494
  27   2.0000      -0.248307        -6.7568
  28   0.0000      -0.020736        -0.5642
  29   0.0000       0.075661         2.0589
  30   0.0000       0.105857         2.8805
  31   0.0000       0.118722         3.2306
  32   0.0000       0.132386         3.6024

MULLIKEN ATOMIC CHARGES
-----------------------
   0 C :   -0.515030
   1 C :   -0.287507
   2 C :    0.394478
   3 O :   -0.513670
   4 O :   -0.149238
   5 C :   -0.153951
   6 C :   -0.490223
   7 H :    0.166013
   8 H :    0.164153
   9 H :    0.165023
  10 H :    0.187121
  11 H :    0.189281
  12 H :    0.171593
  13 H :    0.172656
  14 H :    0.169225
  15 H :    0.164208
  16 H :    0.165869
Sum of atomic charges:    0.0000000

LOEWDIN ATOMIC CHARGES
----------------------
   0 C :   -0.405126
   1 C :   -0.233749
   2 C :    0.370265
   3 O :   -0.502712
   4 O :   -0.603481
   5 C :    0.038891
   6 C :   -0.389602
   7 H :    0.161302
   8 H :    0.157034
   9 H :    0.161658
  10 H :    0.189671
  11 H :    0.190940
  12 H :    0.186916
  13 H :    0.184322
  14 H :    0.168457
  15 H :    0.162739
  16 H :    0.162476

  Mayer bond orders larger than 0.100000
B(  0-C ,  1-C ) :   0.8936 B(  0-C ,  7-H ) :   0.9781 B(  0-C ,  8-H ) :   0.9622
B(  0-C ,  9-H ) :   0.9765 B(  1-C ,  2-C ) :   1.0148 B(  1-C , 10-H ) :   0.9365
B(  1-C , 11-H ) :   0.9278 B(  2-C ,  3-O ) :   1.7551 B(  2-C ,  4-O ) :   1.1486
B(  4-O ,  5-C ) :   0.7843 B(  5-C ,  6-C ) :   0.9466 B(  5-C , 12-H ) :   0.9521
B(  5-C , 13-H ) :   0.9373 B(  6-C , 14-H ) :   0.9616 B(  6-C , 15-H ) :   0.9669
B(  6-C , 16-H ) :   0.9725

Dispersion correction           -0.003943068
FINAL SINGLE POINT ENERGY      -346.941863825186

DIPOLE MOMENT
-------------

Method             : SCF
Type of density    : Electron Density
Multiplicity       :   1
Irrep              :   0
Energy             :  -346.9483292620615771 Eh
Relativity type    :
Basis              : AO
                                X                 Y                 Z
Electronic contribution:     -0.946839653      -3.956785736      -3.328040038
Nuclear contribution   :      1.177629272       4.920941730       4.067179027
                        -----------------------------------------
Total Dipole Moment    :      0.230789619       0.964155993       0.739138989
                        -----------------------------------------
Magnitude (a.u.)       :      1.236603038
Magnitude (Debye)      :      3.143195128

Rotational constants in cm-1:             0.137551             0.058055             0.042222
Rotational constants in MHz :          4123.678958          1740.447295          1265.779835

                             ****ORCA TERMINATED NORMALLY****
TOTAL RUN TIME: 0 days 0 hours 0 minutes 25 seconds 553 msec
