                         Program Version 6.0.0  -   RELEASE  -
|  1> ! pbe def2-sv(p) def2/J RI DEFGRID1 loosescf d4 GCP(DFT/SV(P)) printgap
|  2> %output
|  3>     printlevel normal
|  4> end
|  5> * xyz 0 1
|  6> C -2.7241323412 -0.7865054014 -0.9725911333
|  7> C -1.9768199323 -0.2818521286 0.2598969242
|  8> C -2.9481251168 0.4342747541 1.1972536338
|  9> C -0.8299641145 0.6576727303 -0.1330750293
| 10> C 0.3466541235 -0.0607965817 -0.8133760746
| 11> C 1.6935220527 0.0055813406 -0.0682992751
| 12> C 2.7255371948 -0.7788357674 -0.8873016375
| 13> C 2.1744146874 1.4527017515 0.06275731
| 14> C 1.5790921614 -0.635802903 1.3164684084
| 15> H -3.1878999077 0.0466408363 -1.4969203263
| 16> H -3.5045035636 -1.4873656053 -0.6843737691
| 17> H -2.0502937422 -1.2899381974 -1.6609747226
| 18> H -1.5540597944 -1.1411995393 0.7922953934
| 19> H -3.3625529818 1.3149257747 0.7107545032
| 20> H -3.769172269 -0.2237676929 1.4721220003
| 21> H -2.4439804582 0.7507092392 2.1077826302
| 22> H -1.2280636933 1.4279059295 -0.7967201393
| 23> H -0.4846611842 1.1654475297 0.767381647
| 24> H 0.4969654405 0.3531369498 -1.8125138609
| 25> H 0.0951929807 -1.115768324 -0.9404382151
| 26> H 3.6964964084 -0.7566519751 -0.3977215619
| 27> H 2.4212177625 -1.817642349 -0.995338937
| 28> H 2.8338951407 -0.3490586436 -1.8807361411
| 29> H 3.1521007498 1.4820086579 0.5387882087
| 30> H 2.2567376496 1.9148485369 -0.9184385459
| 31> H 1.489657043 2.0461167827 0.6624816393
| 32> H 0.8677639011 -0.1035546605 1.9419441847
| 33> H 2.5446424009 -0.6240141887 1.8173364267
| 34> H 1.2517141242 -1.6694973343 1.2293104381
| 35> *
| 36>
| 37>                          ****END OF INPUT****

CARTESIAN COORDINATES (ANGSTROEM)
---------------------------------
  C     -2.724132   -0.786505   -0.972591
  C     -1.976820   -0.281852    0.259897
  C     -2.948125    0.434275    1.197254
  C     -0.829964    0.657673   -0.133075
  C      0.346654   -0.060797   -0.813376
  C      1.693522    0.005581   -0.068299
  C      2.725537   -0.778836   -0.887302
  C      2.174415    1.452702    0.062757
  C      1.579092   -0.635803    1.316468
  H     -3.187900    0.046641   -1.496920
  H     -3.504504   -1.487366   -0.684374
  H     -2.050294   -1.289938   -1.660975
  H     -1.554060   -1.141200    0.792295
  H     -3.362553    1.314926    0.710755
  H     -3.769172   -0.223768    1.472122
  H     -2.443980    0.750709    2.107783
  H     -1.228064    1.427906   -0.796720
  H     -0.484661    1.165448    0.767382
  H      0.496965    0.353137   -1.812514
  H      0.095193   -1.115768   -0.940438
  H      3.696496   -0.756652   -0.397722
  H      2.421218   -1.817642   -0.995339
  H      2.833895   -0.349059   -1.880736
  H      3.152101    1.482009    0.538788
  H      2.256738    1.914849   -0.918439
  H      1.489657    2.046117    0.662482
  H      0.867764   -0.103555    1.941944
  H      2.544642   -0.624014    1.817336
  H      1.251714   -1.669497    1.229310

 Total Charge           Charge          ....    0
 Multiplicity           Mult            ....    1
 Number of Electrons    NEL             ....   74
 Basis Dimension        Dim             ....  166

ORBITAL ENERGIES
----------------

  NO   OCC          E(Eh)            E(eV)
   0   2.0000      -9.902035      -269.4481
   1   2.0000      -9.889558      -269.1085
   2   2.0000      -9.875911      -268.7372
   3   2.0000      -9.875359      -268.7222
   4   2.0000      -9.868652      -268.5397
   5   2.0000      -9.868088      -268.5243
   6   2.0000      -9.867877      -268.5186
   7   2.0000      -9.867705      -268.5139
   8   2.0000      -9.867403      -268.5057
   9   2.0000      -0.748063       -20.3558
  10   2.0000      -0.719417       -19.5763
  11   2.0000      -0.642555       -17.4848
  12   2.0000      -0.610038       -16.6000
  13   2.0000      -0.609595       -16.5879
  14   2.0000      -0.605862       -16.4863
  15   2.0000      -0.557352       -15.1663
  16   2.0000      -0.494792       -13.4640
  17   2.0000      -0.466084       -12.6828
  18   2.0000      -0.422412       -11.4944
  19   2.0000      -0.408575       -11.1179
  20   2.0000      -0.402182       -10.9439
  21   2.0000      -0.387523       -10.5450
  22   2.0000      -0.379224       -10.3192
  23   2.0000      -0.361810        -9.8453
  24   2.0000      -0.356831        -9.7099
  25   2.0000      -0.342455        -9.3187
  26   2.0000      -0.336731        -9.1629
  27   2.0000      -0.328945        -8.9510
  28   2.0000      -0.317113        -8.6291
  29   2.0000      -0.312053        -8.4914
  30   2.0000      -0.308929        -8.4064
  31   2.0000      -0.291246        -7.9252
  32   2.0000      -0.287059        -7.8113
  33   2.0000      -0.280507        -7.6330
  34   2.0000      -0.268694        -7.3115
  35   2.0000      -0.263002        -7.1567
  36   2.0000      -0.259795        -7.0694
  37   0.0000       0.027013         0.7351
  38   0.0000       0.046296         1.2598
  39   0.0000       0.059482         1.6186
  40   0.0000       0.061542         1.6747
  41   0.0000       0.080459         2.1894

MULLIKEN ATOMIC CHARGES
-----------------------
   0 C :   -0.245006
   1 C :   -0.206693
   2 C :   -0.234700
   3 C :   -0.122683
   4 C :   -0.085953
   5 C :   -0.281537
   6 C :   -0.201442
   7 C :   -0.208348
   8 C :   -0.212585
   9 H :    0.090180
  10 H :    0.097569
  11 H :    0.103333
  12 H :    0.074576
  13 H :    0.090404
  14 H :    0.095813
  15 H :    0.096519
  16 H :    0.070033
  17 H :    0.089268
  18 H :    0.070410
  19 H :    0.081187
  20 H :    0.091705
  21 H :    0.090561
  22 H :    0.090730
  23 H :    0.092086
  24 H :    0.090413
  25 H :    0.099500
  26 H :    0.098156
  27 H :    0.092846
  28 H :    0.093656
Sum of atomic charges:    0.0000000

LOEWDIN ATOMIC CHARGES
----------------------
   0 C :   -0.329646
   1 C :   -0.157742
   2 C :   -0.328982
   3 C :   -0.219743
   4 C :   -0.207123
   5 C :   -0.106034
   6 C :   -0.315428
   7 C :   -0.316963
   8 C :   -0.317738
   9 H :    0.115531
  10 H :    0.116655
  11 H :    0.116039
  12 H :    0.112063
  13 H :    0.115842
  14 H :    0.116018
  15 H :    0.115007
  16 H :    0.115210
  17 H :    0.112134
  18 H :    0.113744
  19 H :    0.113168
  20 H :    0.114596
  21 H :    0.114327
  22 H :    0.114610
  23 H :    0.116076
  24 H :    0.115791
  25 H :    0.115272
  26 H :    0.115230
  27 H :    0.116708
  28 H :    0.115377

  Mayer bond orders larger than 0.100000
B(  0-C ,  1-C ) :   1.1082 B(  0-C ,  9-H ) :   0.9485 B(  0-C , 10-H ) :   0.9519
B(  0-C , 11-H ) :   0.9457 B(  1-C ,  2-C ) :   1.1133 B(  1-C ,  3-C ) :   1.0813
B(  1-C , 12-H ) :   0.9012 B(  2-C , 13-H ) :   0.9489 B(  2-C , 14-H ) :   0.9516
B(  2-C , 15-H ) :   0.9483 B(  3-C ,  4-C ) :   1.0917 B(  3-C , 16-H ) :   0.9109
B(  3-C , 17-H ) :   0.9179 B(  4-C ,  5-C ) :   1.0561 B(  4-C , 18-H ) :   0.9140
B(  4-C , 19-H ) :   0.9142 B(  5-C ,  6-C ) :   1.0764 B(  5-C ,  7-C ) :   1.0738
B(  5-C ,  8-C ) :   1.0740 B(  6-C , 20-H ) :   0.9477 B(  6-C , 21-H ) :   0.9458
B(  6-C , 22-H ) :   0.9468 B(  7-C , 23-H ) :   0.9478 B(  7-C , 24-H ) :   0.9488
B(  7-C , 25-H ) :   0.9401 B(  8-C , 26-H ) :   0.9404 B(  8-C , 27-H ) :   0.9471
B(  8-C , 28-H ) :   0.9457

Dispersion correction           -0.026152457
FINAL SINGLE POINT ENERGY      -354.085661961405

DIPOLE MOMENT
-------------

Method             : SCF
Type of density    : Electron Density
Multiplicity       :   1
Irrep              :   0
Energy             :  -354.1826326391910129 Eh
Relativity type    :
Basis              : AO
                                X                 Y                 Z
Electronic contribution:      0.464990949       0.062820110      -0.418410641
Nuclear contribution   :     -0.449195610      -0.071974153       0.427821338
                        -----------------------------------------
Total Dipole Moment    :      0.015795339      -0.009154042       0.009410697
                        -----------------------------------------
Magnitude (a.u.)       :      0.020538998
Magnitude (Debye)      :      0.052205985

Rotational constants in cm-1:             0.092160             0.025910             0.024383
Rotational constants in MHz :          2762.877093           776.776018           730.988922

                             ****ORCA TERMINATED NORMALLY****
TOTAL RUN TIME: 0 days 0 hours 0 minutes 14 seconds 578 msec
