                         Program Version 6.0.0  -   RELEASE  -
|  1> ! pbe def2-sv(p) def2/J RI DEFGRID1 loosescf d4 GCP(DFT/SV(P)) printgap
|  2> %output
|  3>     printlevel normal
|  4> end
|  5> * xyz 0 1
|  6> C -1.9039766946 1.2266354909 1.1657842771
|  7> C -2.0148824772 1.0034218954 -0.3110581044
|  8> O -3.0476134767 1.0594965126 -0.9358573775
|  9> O -0.8846859161 0.7504046468 -0.9911637551
| 10> C 0.3539503431 0.6302730894 -0.372255412
| 11> C 1.2000366069 1.7296775317 -0.3557308748
| 12> C 2.4803426993 1.610268497 0.1577860876
| 13> C 2.9271252111 0.3905140562 0.6418944618
| 14> C 2.0940554329 -0.7112365658 0.6129907317
| 15> C 0.7960796768 -0.6059322392 0.1136782057
| 16> C -0.0951998632 -1.7893125316 0.1078583912
| 17> O -1.3096029904 -1.7360677746 0.1729188886
| 18> O 0.565984981 -2.9321246204 0.0502047785
| 19> H -1.7059308941 0.2668397925 1.6401126012
| 20> H -2.8466502445 1.6190483328 1.5329646214
| 21> H -1.0873408787 1.9073942957 1.3929418919
| 22> H 0.8425591688 2.6655928671 -0.7553603391
| 23> H 3.128006095 2.4719390099 0.1729709731
| 24> H 3.9256505556 0.2972808307 1.0364110054
| 25> H 2.4295436139 -1.6676209405 0.9803731675
| 26> H -0.025366317 -3.7099863369 0.062284282
| 27> *
| 28>
| 29>                          ****END OF INPUT****

CARTESIAN COORDINATES (ANGSTROEM)
---------------------------------
  C     -1.903977    1.226635    1.165784
  C     -2.014882    1.003422   -0.311058
  O     -3.047613    1.059497   -0.935857
  O     -0.884686    0.750405   -0.991164
  C      0.353950    0.630273   -0.372255
  C      1.200037    1.729678   -0.355731
  C      2.480343    1.610268    0.157786
  C      2.927125    0.390514    0.641894
  C      2.094055   -0.711237    0.612991
  C      0.796080   -0.605932    0.113678
  C     -0.095200   -1.789313    0.107858
  O     -1.309603   -1.736068    0.172919
  O      0.565985   -2.932125    0.050205
  H     -1.705931    0.266840    1.640113
  H     -2.846650    1.619048    1.532965
  H     -1.087341    1.907394    1.392942
  H      0.842559    2.665593   -0.755360
  H      3.128006    2.471939    0.172971
  H      3.925651    0.297281    1.036411
  H      2.429544   -1.667621    0.980373
  H     -0.025366   -3.709986    0.062284

 Total Charge           Charge          ....    0
 Multiplicity           Mult            ....    1
 Number of Electrons    NEL             ....   94
 Basis Dimension        Dim             ....  198

ORBITAL ENERGIES
----------------

  NO   OCC          E(Eh)            E(eV)
   0   2.0000     -18.816957      -512.0354
   1   2.0000     -18.808508      -511.8055
   2   2.0000     -18.750640      -510.2308
   3   2.0000     -18.726273      -509.5678
   4   2.0000     -10.032547      -272.9995
   5   2.0000     -10.009344      -272.3681
   6   2.0000      -9.982887      -271.6482
   7   2.0000      -9.932164      -270.2679
   8   2.0000      -9.922113      -269.9944
   9   2.0000      -9.922080      -269.9935
  10   2.0000      -9.918421      -269.8940
  11   2.0000      -9.915536      -269.8155
  12   2.0000      -9.890170      -269.1252
  13   2.0000      -1.026349       -27.9284
  14   2.0000      -1.011811       -27.5328
  15   2.0000      -0.925978       -25.1971
  16   2.0000      -0.914750       -24.8916
  17   2.0000      -0.804078       -21.8801
  18   2.0000      -0.716900       -19.5078
  19   2.0000      -0.700419       -19.0594
  20   2.0000      -0.670725       -18.2514
  21   2.0000      -0.627089       -17.0640
  22   2.0000      -0.590987       -16.0816
  23   2.0000      -0.575736       -15.6666
  24   2.0000      -0.527595       -14.3566
  25   2.0000      -0.488996       -13.3063
  26   2.0000      -0.453554       -12.3418
  27   2.0000      -0.451031       -12.2732
  28   2.0000      -0.434961       -11.8359
  29   2.0000      -0.431720       -11.7477
  30   2.0000      -0.422481       -11.4963
  31   2.0000      -0.409828       -11.1520
  32   2.0000      -0.406600       -11.0641
  33   2.0000      -0.395887       -10.7726
  34   2.0000      -0.364333        -9.9140
  35   2.0000      -0.356398        -9.6981
  36   2.0000      -0.354387        -9.6434
  37   2.0000      -0.349704        -9.5159
  38   2.0000      -0.341040        -9.2802
  39   2.0000      -0.329839        -8.9754
  40   2.0000      -0.320071        -8.7096
  41   2.0000      -0.288187        -7.8420
  42   2.0000      -0.263001        -7.1566
  43   2.0000      -0.258695        -7.0394
  44   2.0000      -0.248721        -6.7680
  45   2.0000      -0.233434        -6.3521
  46   2.0000      -0.211037        -5.7426
  47   0.0000      -0.089620        -2.4387
  48   0.0000      -0.059707        -1.6247
  49   0.0000      -0.015630        -0.4253
  50   0.0000      -0.003320        -0.0903
  51   0.0000       0.014057         0.3825

MULLIKEN ATOMIC CHARGES
-----------------------
   0 C :   -0.292911
   1 C :    0.112513
   2 O :   -0.165749
   3 O :   -0.177719
   4 C :    0.126205
   5 C :   -0.098652
   6 C :   -0.036225
   7 C :   -0.028307
   8 C :   -0.102027
   9 C :    0.020857
  10 C :    0.122343
  11 O :   -0.176657
  12 O :   -0.282397
  13 H :    0.140561
  14 H :    0.132637
  15 H :    0.124063
  16 H :    0.057397
  17 H :    0.068979
  18 H :    0.064160
  19 H :    0.065430
  20 H :    0.325500
Sum of atomic charges:    0.0000000

LOEWDIN ATOMIC CHARGES
----------------------
   0 C :   -0.375981
   1 C :    0.045378
   2 O :   -0.140072
   3 O :   -0.020187
   4 C :    0.056820
   5 C :   -0.129262
   6 C :   -0.099604
   7 C :   -0.123270
   8 C :   -0.090307
   9 C :   -0.086512
  10 C :    0.036863
  11 O :   -0.155374
  12 O :   -0.191717
  13 H :    0.150283
  14 H :    0.143860
  15 H :    0.137006
  16 H :    0.138252
  17 H :    0.132073
  18 H :    0.130529
  19 H :    0.135380
  20 H :    0.305841

  Mayer bond orders larger than 0.100000
B(  0-C ,  1-C ) :   1.0813 B(  0-C , 13-H ) :   0.9100 B(  0-C , 14-H ) :   0.9364
B(  0-C , 15-H ) :   0.9160 B(  1-C ,  2-O ) :   2.1813 B(  1-C ,  3-O ) :   1.0672
B(  3-O ,  4-C ) :   1.0652 B(  4-C ,  5-C ) :   1.3928 B(  4-C ,  9-C ) :   1.3721
B(  5-C ,  6-C ) :   1.3333 B(  5-C , 16-H ) :   0.9629 B(  6-C ,  7-C ) :   1.3507
B(  6-C , 17-H ) :   0.9639 B(  7-C ,  8-C ) :   1.3588 B(  7-C , 18-H ) :   0.9682
B(  8-C ,  9-C ) :   1.3522 B(  8-C , 19-H ) :   0.9618 B(  9-C , 10-C ) :   0.9229
B( 10-C , 11-O ) :   2.0495 B( 10-C , 12-O ) :   1.3118 B( 12-O , 20-H ) :   0.8167

Dispersion correction           -0.025233571
FINAL SINGLE POINT ENERGY      -647.383790758697

DIPOLE MOMENT
-------------

Method             : SCF
Type of density    : Electron Density
Multiplicity       :   1
Irrep              :   0
Energy             :  -647.4514397776941905 Eh
Relativity type    :
Basis              : AO
                                X                 Y                 Z
Electronic contribution:     -2.449358669      -3.844350781      -4.637667865
Nuclear contribution   :      4.303092437       3.570100600       5.662626953
                        -----------------------------------------
Total Dipole Moment    :      1.853733768      -0.274250181       1.024959088
                        -----------------------------------------
Magnitude (a.u.)       :      2.135903363
Magnitude (Debye)      :      5.429034895

Rotational constants in cm-1:             0.037094             0.025413             0.016854
Rotational constants in MHz :          1112.046867           761.872704           505.272133

                             ****ORCA TERMINATED NORMALLY****
TOTAL RUN TIME: 0 days 0 hours 0 minutes 16 seconds 715 msec
