                         Program Version 6.0.0  -   RELEASE  -
|  1> ! r2scan-3c def2/J RI DEFGRID2 scfconv6 printgap
|  2> %output
|  3>     printlevel normal
|  4> end
|  5> * xyz 0 1
|  6> C -2.2068797254 -0.7929337383 -0.2344815634
|  7> C -1.4698560735 0.5414716409 -0.2264273957
|  8> C -0.273760395 0.5811220541 0.7430410848
|  9> C 1.0204322987 0.1425399879 0.1122108127
| 10> C 1.946663688 1.0232719143 -0.2350496668
| 11> C 1.2091332234 -1.3262603641 -0.1183177689
| 12> H -1.5596937612 -1.6036699718 -0.5547428753
| 13> H -3.0553524284 -0.746982069 -0.9138422271
| 14> H -2.5792012043 -1.0246182223 0.7612151155
| 15> H -1.1206583597 0.7783044532 -1.2337577664
| 16> H -2.1776854235 1.3201118261 0.0657197566
| 17> H -0.1496052281 1.6050860488 1.0998977525
| 18> H -0.4955342825 -0.0499432874 1.6063652214
| 19> H 2.8747930436 0.7239254337 -0.6929497351
| 20> H 1.815864607 2.0810600183 -0.0791092589
| 21> H 0.8923877818 -1.8952688314 0.7530387025
| 22> H 0.6136434727 -1.6523637742 -0.969953991
| 23> H 2.2510137465 -1.5521107816 -0.3301798929
| 24> *
| 25>
| 26>                          ****END OF INPUT****

CARTESIAN COORDINATES (ANGSTROEM)
---------------------------------
  C     -2.206880   -0.792934   -0.234482
  C     -1.469856    0.541472   -0.226427
  C     -0.273760    0.581122    0.743041
  C      1.020432    0.142540    0.112211
  C      1.946664    1.023272   -0.235050
  C      1.209133   -1.326260   -0.118318
  H     -1.559694   -1.603670   -0.554743
  H     -3.055352   -0.746982   -0.913842
  H     -2.579201   -1.024618    0.761215
  H     -1.120658    0.778304   -1.233758
  H     -2.177685    1.320112    0.065720
  H     -0.149605    1.605086    1.099898
  H     -0.495534   -0.049943    1.606365
  H      2.874793    0.723925   -0.692950
  H      1.815865    2.081060   -0.079109
  H      0.892388   -1.895269    0.753039
  H      0.613643   -1.652364   -0.969954
  H      2.251014   -1.552111   -0.330180

 Total Charge           Charge          ....    0
 Multiplicity           Mult            ....    1
 Number of Electrons    NEL             ....   48
 Basis Dimension        Dim             ....  174

ORBITAL ENERGIES
----------------

  NO   OCC          E(Eh)            E(eV)
   0   2.0000     -10.036801      -273.1153
   1   2.0000     -10.027661      -272.8665
   2   2.0000     -10.026715      -272.8408
   3   2.0000     -10.022737      -272.7325
   4   2.0000     -10.016993      -272.5762
   5   2.0000     -10.007572      -272.3199
   6   2.0000      -0.785686       -21.3796
   7   2.0000      -0.730429       -19.8760
   8   2.0000      -0.658841       -17.9280
   9   2.0000      -0.640696       -17.4342
  10   2.0000      -0.560149       -15.2424
  11   2.0000      -0.490182       -13.3385
  12   2.0000      -0.435889       -11.8611
  13   2.0000      -0.427970       -11.6457
  14   2.0000      -0.403196       -10.9715
  15   2.0000      -0.388015       -10.5584
  16   2.0000      -0.374280       -10.1847
  17   2.0000      -0.357496        -9.7280
  18   2.0000      -0.344363        -9.3706
  19   2.0000      -0.320758        -8.7283
  20   2.0000      -0.309063        -8.4100
  21   2.0000      -0.301677        -8.2091
  22   2.0000      -0.286101        -7.7852
  23   2.0000      -0.220986        -6.0133
  24   0.0000      -0.006242        -0.1699
  25   0.0000       0.086875         2.3640
  26   0.0000       0.106963         2.9106
  27   0.0000       0.117401         3.1946
  28   0.0000       0.124028         3.3750

MULLIKEN ATOMIC CHARGES
-----------------------
   0 C :   -0.477074
   1 C :   -0.245630
   2 C :   -0.234703
   3 C :    0.102415
   4 C :   -0.395205
   5 C :   -0.520984
   6 H :    0.143059
   7 H :    0.145606
   8 H :    0.145741
   9 H :    0.150434
  10 H :    0.141264
  11 H :    0.150180
  12 H :    0.146089
  13 H :    0.138517
  14 H :    0.140752
  15 H :    0.155041
  16 H :    0.164665
  17 H :    0.149831
Sum of atomic charges:   -0.0000000

LOEWDIN ATOMIC CHARGES
----------------------
   0 C :   -0.424847
   1 C :   -0.304824
   2 C :   -0.288941
   3 C :   -0.130325
   4 C :   -0.331243
   5 C :   -0.398118
   6 H :    0.149149
   7 H :    0.150782
   8 H :    0.149241
   9 H :    0.158193
  10 H :    0.153027
  11 H :    0.163536
  12 H :    0.161184
  13 H :    0.155378
  14 H :    0.156884
  15 H :    0.159317
  16 H :    0.161790
  17 H :    0.159817

  Mayer bond orders larger than 0.100000
B(  0-C ,  1-C ) :   0.9161 B(  0-C ,  6-H ) :   0.9734 B(  0-C ,  7-H ) :   0.9734
B(  0-C ,  8-H ) :   0.9848 B(  1-C ,  2-C ) :   0.8461 B(  1-C ,  9-H ) :   0.9752
B(  1-C , 10-H ) :   0.9619 B(  2-C ,  3-C ) :   0.8767 B(  2-C , 11-H ) :   0.9846
B(  2-C , 12-H ) :   0.9894 B(  3-C ,  4-C ) :   1.8858 B(  3-C ,  5-C ) :   0.8681
B(  4-C , 13-H ) :   0.9782 B(  4-C , 14-H ) :   0.9830 B(  5-C , 15-H ) :   0.9705
B(  5-C , 16-H ) :   0.9779 B(  5-C , 17-H ) :   0.9829

Dispersion correction           -0.004613479
FINAL SINGLE POINT ENERGY      -235.758342116470

DIPOLE MOMENT
-------------

Method             : SCF
Type of density    : Electron Density
Multiplicity       :   1
Irrep              :   0
Energy             :  -235.7614384680534840 Eh
Relativity type    :
Basis              : AO
                                X                 Y                 Z
Electronic contribution:      2.315810731       1.761755143       0.473980762
Nuclear contribution   :     -2.523684879      -1.891776834      -0.458104260
                        -----------------------------------------
Total Dipole Moment    :     -0.207874148      -0.130021691       0.015876502
                        -----------------------------------------
Magnitude (a.u.)       :      0.245701780
Magnitude (Debye)      :      0.624524294

Rotational constants in cm-1:             0.193054             0.075341             0.060955
Rotational constants in MHz :          5787.600416          2258.656457          1827.396085

                             ****ORCA TERMINATED NORMALLY****
TOTAL RUN TIME: 0 days 0 hours 0 minutes 18 seconds 903 msec
