                         Program Version 6.0.0  -   RELEASE  -
|  1> ! r2scan-3c def2/J RI DEFGRID2 scfconv6 printgap
|  2> %output
|  3>     printlevel normal
|  4> end
|  5> %cpcm
|  6>     smd true
|  7>     smdsolvent "water"
|  8> end
|  9> * xyz 0 1
| 10> C -2.2068797254 -0.7929337383 -0.2344815634
| 11> C -1.4698560735 0.5414716409 -0.2264273957
| 12> C -0.273760395 0.5811220541 0.7430410848
| 13> C 1.0204322987 0.1425399879 0.1122108127
| 14> C 1.946663688 1.0232719143 -0.2350496668
| 15> C 1.2091332234 -1.3262603641 -0.1183177689
| 16> H -1.5596937612 -1.6036699718 -0.5547428753
| 17> H -3.0553524284 -0.746982069 -0.9138422271
| 18> H -2.5792012043 -1.0246182223 0.7612151155
| 19> H -1.1206583597 0.7783044532 -1.2337577664
| 20> H -2.1776854235 1.3201118261 0.0657197566
| 21> H -0.1496052281 1.6050860488 1.0998977525
| 22> H -0.4955342825 -0.0499432874 1.6063652214
| 23> H 2.8747930436 0.7239254337 -0.6929497351
| 24> H 1.815864607 2.0810600183 -0.0791092589
| 25> H 0.8923877818 -1.8952688314 0.7530387025
| 26> H 0.6136434727 -1.6523637742 -0.969953991
| 27> H 2.2510137465 -1.5521107816 -0.3301798929
| 28> *
| 29>
| 30>                          ****END OF INPUT****

CARTESIAN COORDINATES (ANGSTROEM)
---------------------------------
  C     -2.206880   -0.792934   -0.234482
  C     -1.469856    0.541472   -0.226427
  C     -0.273760    0.581122    0.743041
  C      1.020432    0.142540    0.112211
  C      1.946664    1.023272   -0.235050
  C      1.209133   -1.326260   -0.118318
  H     -1.559694   -1.603670   -0.554743
  H     -3.055352   -0.746982   -0.913842
  H     -2.579201   -1.024618    0.761215
  H     -1.120658    0.778304   -1.233758
  H     -2.177685    1.320112    0.065720
  H     -0.149605    1.605086    1.099898
  H     -0.495534   -0.049943    1.606365
  H      2.874793    0.723925   -0.692950
  H      1.815865    2.081060   -0.079109
  H      0.892388   -1.895269    0.753039
  H      0.613643   -1.652364   -0.969954
  H      2.251014   -1.552111   -0.330180

 Total Charge           Charge          ....    0
 Multiplicity           Mult            ....    1
 Number of Electrons    NEL             ....   48
 Basis Dimension        Dim             ....  174

ORBITAL ENERGIES
----------------

  NO   OCC          E(Eh)            E(eV)
   0   2.0000     -10.036260      -273.1005
   1   2.0000     -10.020384      -272.6685
   2   2.0000     -10.019460      -272.6434
   3   2.0000     -10.014170      -272.4994
   4   2.0000     -10.007465      -272.3170
   5   2.0000     -10.004901      -272.2472
   6   2.0000      -0.781388       -21.2627
   7   2.0000      -0.724077       -19.7031
   8   2.0000      -0.652091       -17.7443
   9   2.0000      -0.635891       -17.3035
  10   2.0000      -0.553145       -15.0519
  11   2.0000      -0.485447       -13.2097
  12   2.0000      -0.429882       -11.6977
  13   2.0000      -0.421655       -11.4738
  14   2.0000      -0.396277       -10.7833
  15   2.0000      -0.380864       -10.3638
  16   2.0000      -0.367214        -9.9924
  17   2.0000      -0.349941        -9.5224
  18   2.0000      -0.336603        -9.1594
  19   2.0000      -0.314629        -8.5615
  20   2.0000      -0.301532        -8.2051
  21   2.0000      -0.294355        -8.0098
  22   2.0000      -0.279259        -7.5990
  23   2.0000      -0.221971        -6.0401
  24   0.0000      -0.006569        -0.1788
  25   0.0000       0.093983         2.5574
  26   0.0000       0.114784         3.1234
  27   0.0000       0.122994         3.3468
  28   0.0000       0.131492         3.5781

MULLIKEN ATOMIC CHARGES
-----------------------
   0 C :   -0.516010
   1 C :   -0.250640
   2 C :   -0.231618
   3 C :    0.073438
   4 C :   -0.476171
   5 C :   -0.544481
   6 H :    0.156527
   7 H :    0.154803
   8 H :    0.157516
   9 H :    0.150990
  10 H :    0.153457
  11 H :    0.160950
  12 H :    0.162479
  13 H :    0.162972
  14 H :    0.164214
  15 H :    0.172493
  16 H :    0.185510
  17 H :    0.163570
Sum of atomic charges:    0.0000000

LOEWDIN ATOMIC CHARGES
----------------------
   0 C :   -0.431862
   1 C :   -0.304963
   2 C :   -0.292542
   3 C :   -0.130480
   4 C :   -0.363618
   5 C :   -0.405084
   6 H :    0.152866
   7 H :    0.152740
   8 H :    0.152466
   9 H :    0.157594
  10 H :    0.156695
  11 H :    0.166580
  12 H :    0.167421
  13 H :    0.160962
  14 H :    0.162303
  15 H :    0.165789
  16 H :    0.169966
  17 H :    0.163166

  Mayer bond orders larger than 0.100000
B(  0-C ,  1-C ) :   0.9106 B(  0-C ,  6-H ) :   0.9714 B(  0-C ,  7-H ) :   0.9713
B(  0-C ,  8-H ) :   0.9816 B(  1-C ,  2-C ) :   0.8429 B(  1-C ,  9-H ) :   0.9755
B(  1-C , 10-H ) :   0.9623 B(  2-C ,  3-C ) :   0.8707 B(  2-C , 11-H ) :   0.9815
B(  2-C , 12-H ) :   0.9827 B(  3-C ,  4-C ) :   1.8606 B(  3-C ,  5-C ) :   0.8695
B(  4-C , 13-H ) :   0.9776 B(  4-C , 14-H ) :   0.9807 B(  5-C , 15-H ) :   0.9649
B(  5-C , 16-H ) :   0.9688 B(  5-C , 17-H ) :   0.9791

Dispersion correction           -0.004613479
FINAL SINGLE POINT ENERGY      -235.756450319105

DIPOLE MOMENT
-------------

Method             : SCF
Type of density    : Electron Density
Multiplicity       :   1
Irrep              :   0
Energy             :  -235.7595466706892182 Eh
Relativity type    :
Basis              : AO
                                X                 Y                 Z
Electronic contribution:      2.202563631       1.665486234       0.501072170
Nuclear contribution   :     -2.523684879      -1.891776834      -0.458104260
                        -----------------------------------------
Total Dipole Moment    :     -0.321121248      -0.226290600       0.042967909
                        -----------------------------------------
Magnitude (a.u.)       :      0.395186706
Magnitude (Debye)      :      1.004484780

Rotational constants in cm-1:             0.193054             0.075341             0.060955
Rotational constants in MHz :          5787.600416          2258.656457          1827.396085

                             ****ORCA TERMINATED NORMALLY****
TOTAL RUN TIME: 0 days 0 hours 0 minutes 23 seconds 37 msec
