                         Program Version 6.0.0  -   RELEASE  -
|  1> ! r2scan-3c def2/J RI DEFGRID2 scfconv6 printgap
|  2> %output
|  3>     printlevel normal
|  4> end
|  5> * xyz 0 1
|  6> C -1.3615804479 1.595182205 0.1009799586
|  7> C -1.3091299208 0.1409482007 -0.3533870069
|  8> C -0.1404862916 -0.6473296351 0.2506073487
|  9> H -0.1550094455 -0.5095462908 1.3382685617
| 10> C -0.3010196755 -2.1360560092 -0.0566811492
| 11> C 1.2210608709 -0.1663960032 -0.2765398924
| 12> O 1.6632923173 1.061737307 0.2617371245
| 13> H -2.1930161983 2.1081559226 -0.3766830639
| 14> H -1.497917219 1.652386141 1.1788211676
| 15> H -0.4411303173 2.1109676288 -0.1581604839
| 16> H -1.2334308387 0.1034569513 -1.4425641875
| 17> H -2.2426496485 -0.3515611895 -0.0703586072
| 18> H 0.4971274696 -2.7144426754 0.4022925019
| 19> H -0.2732297731 -2.3027737426 -1.1309917166
| 20> H -1.2516534122 -2.500371067 0.3238104715
| 21> H 1.1669210822 -0.005868063 -1.3564010433
| 22> H 1.9763399013 -0.9418783296 -0.0864632346
| 23> H 1.7811826668 0.9603696402 1.2160099224
| 24> *
| 25>
| 26>                          ****END OF INPUT****

CARTESIAN COORDINATES (ANGSTROEM)
---------------------------------
  C     -1.361580    1.595182    0.100980
  C     -1.309130    0.140948   -0.353387
  C     -0.140486   -0.647330    0.250607
  H     -0.155009   -0.509546    1.338269
  C     -0.301020   -2.136056   -0.056681
  C      1.221061   -0.166396   -0.276540
  O      1.663292    1.061737    0.261737
  H     -2.193016    2.108156   -0.376683
  H     -1.497917    1.652386    1.178821
  H     -0.441130    2.110968   -0.158160
  H     -1.233431    0.103457   -1.442564
  H     -2.242650   -0.351561   -0.070359
  H      0.497127   -2.714443    0.402293
  H     -0.273230   -2.302774   -1.130992
  H     -1.251653   -2.500371    0.323810
  H      1.166921   -0.005868   -1.356401
  H      1.976340   -0.941878   -0.086463
  H      1.781183    0.960370    1.216010

 Total Charge           Charge          ....    0
 Multiplicity           Mult            ....    1
 Number of Electrons    NEL             ....   50
 Basis Dimension        Dim             ....  179

ORBITAL ENERGIES
----------------

  NO   OCC          E(Eh)            E(eV)
   0   2.0000     -18.946874      -515.5707
   1   2.0000     -10.072512      -274.0870
   2   2.0000     -10.034360      -273.0488
   3   2.0000     -10.022076      -272.7146
   4   2.0000     -10.020391      -272.6687
   5   2.0000     -10.006033      -272.2780
   6   2.0000      -0.984513       -26.7900
   7   2.0000      -0.774604       -21.0781
   8   2.0000      -0.697617       -18.9831
   9   2.0000      -0.640244       -17.4219
  10   2.0000      -0.588400       -16.0112
  11   2.0000      -0.538400       -14.6506
  12   2.0000      -0.470515       -12.8034
  13   2.0000      -0.444317       -12.0905
  14   2.0000      -0.406531       -11.0623
  15   2.0000      -0.386773       -10.5246
  16   2.0000      -0.376986       -10.2583
  17   2.0000      -0.372831       -10.1452
  18   2.0000      -0.353817        -9.6279
  19   2.0000      -0.329126        -8.9560
  20   2.0000      -0.309922        -8.4334
  21   2.0000      -0.300632        -8.1806
  22   2.0000      -0.296417        -8.0659
  23   2.0000      -0.279821        -7.6143
  24   2.0000      -0.228662        -6.2222
  25   0.0000       0.060363         1.6426
  26   0.0000       0.088147         2.3986
  27   0.0000       0.111851         3.0436
  28   0.0000       0.116908         3.1812
  29   0.0000       0.134206         3.6519

MULLIKEN ATOMIC CHARGES
-----------------------
   0 C :   -0.512885
   1 C :   -0.237373
   2 C :   -0.013480
   3 H :    0.136032
   4 C :   -0.485765
   5 C :   -0.234737
   6 O :   -0.407907
   7 H :    0.140992
   8 H :    0.139262
   9 H :    0.185320
  10 H :    0.138779
  11 H :    0.138269
  12 H :    0.147800
  13 H :    0.146396
  14 H :    0.150767
  15 H :    0.148845
  16 H :    0.127216
  17 H :    0.292468
Sum of atomic charges:   -0.0000000

LOEWDIN ATOMIC CHARGES
----------------------
   0 C :   -0.424177
   1 C :   -0.306180
   2 C :   -0.233790
   3 H :    0.157235
   4 C :   -0.414507
   5 C :    0.005934
   6 O :   -0.622368
   7 H :    0.146734
   8 H :    0.148397
   9 H :    0.169520
  10 H :    0.155094
  11 H :    0.152642
  12 H :    0.152065
  13 H :    0.156647
  14 H :    0.154938
  15 H :    0.179082
  16 H :    0.158996
  17 H :    0.263739

  Mayer bond orders larger than 0.100000
B(  0-C ,  1-C ) :   0.8963 B(  0-C ,  7-H ) :   0.9738 B(  0-C ,  8-H ) :   0.9886
B(  0-C ,  9-H ) :   0.9712 B(  1-C ,  2-C ) :   0.8953 B(  1-C , 10-H ) :   0.9759
B(  1-C , 11-H ) :   0.9742 B(  2-C ,  3-H ) :   0.9664 B(  2-C ,  4-C ) :   0.9063
B(  2-C ,  5-C ) :   0.8817 B(  4-C , 12-H ) :   0.9783 B(  4-C , 13-H ) :   0.9784
B(  4-C , 14-H ) :   0.9758 B(  5-C ,  6-O ) :   0.9649 B(  5-C , 15-H ) :   0.9832
B(  5-C , 16-H ) :   0.9785 B(  6-O , 17-H ) :   0.8965

Dispersion correction           -0.004409498
FINAL SINGLE POINT ENERGY      -272.896355692669

DIPOLE MOMENT
-------------

Method             : SCF
Type of density    : Electron Density
Multiplicity       :   1
Irrep              :   0
Energy             :  -272.9019172466467467 Eh
Relativity type    :
Basis              : AO
                                X                 Y                 Z
Electronic contribution:      3.488774936       1.740078302       0.497908965
Nuclear contribution   :     -3.602693511      -2.227491151      -0.148491969
                        -----------------------------------------
Total Dipole Moment    :     -0.113918575      -0.487412849       0.349416996
                        -----------------------------------------
Magnitude (a.u.)       :      0.610443252
Magnitude (Debye)      :      1.551623437

Rotational constants in cm-1:             0.116444             0.107669             0.061585
Rotational constants in MHz :          3490.908678          3227.840166          1846.269021

                             ****ORCA TERMINATED NORMALLY****
TOTAL RUN TIME: 0 days 0 hours 0 minutes 23 seconds 661 msec
