                         Program Version 6.0.0  -   RELEASE  -
|  1> ! r2scan-3c def2/J RI DEFGRID2 scfconv6 printgap
|  2> %output
|  3>     printlevel normal
|  4> end
|  5> %cpcm
|  6>     smd true
|  7>     smdsolvent "water"
|  8> end
|  9> * xyz 0 1
| 10> C -1.3615804479 1.595182205 0.1009799586
| 11> C -1.3091299208 0.1409482007 -0.3533870069
| 12> C -0.1404862916 -0.6473296351 0.2506073487
| 13> H -0.1550094455 -0.5095462908 1.3382685617
| 14> C -0.3010196755 -2.1360560092 -0.0566811492
| 15> C 1.2210608709 -0.1663960032 -0.2765398924
| 16> O 1.6632923173 1.061737307 0.2617371245
| 17> H -2.1930161983 2.1081559226 -0.3766830639
| 18> H -1.497917219 1.652386141 1.1788211676
| 19> H -0.4411303173 2.1109676288 -0.1581604839
| 20> H -1.2334308387 0.1034569513 -1.4425641875
| 21> H -2.2426496485 -0.3515611895 -0.0703586072
| 22> H 0.4971274696 -2.7144426754 0.4022925019
| 23> H -0.2732297731 -2.3027737426 -1.1309917166
| 24> H -1.2516534122 -2.500371067 0.3238104715
| 25> H 1.1669210822 -0.005868063 -1.3564010433
| 26> H 1.9763399013 -0.9418783296 -0.0864632346
| 27> H 1.7811826668 0.9603696402 1.2160099224
| 28> *
| 29>
| 30>                          ****END OF INPUT****

CARTESIAN COORDINATES (ANGSTROEM)
---------------------------------
  C     -1.361580    1.595182    0.100980
  C     -1.309130    0.140948   -0.353387
  C     -0.140486   -0.647330    0.250607
  H     -0.155009   -0.509546    1.338269
  C     -0.301020   -2.136056   -0.056681
  C      1.221061   -0.166396   -0.276540
  O      1.663292    1.061737    0.261737
  H     -2.193016    2.108156   -0.376683
  H     -1.497917    1.652386    1.178821
  H     -0.441130    2.110968   -0.158160
  H     -1.233431    0.103457   -1.442564
  H     -2.242650   -0.351561   -0.070359
  H      0.497127   -2.714443    0.402293
  H     -0.273230   -2.302774   -1.130992
  H     -1.251653   -2.500371    0.323810
  H      1.166921   -0.005868   -1.356401
  H      1.976340   -0.941878   -0.086463
  H      1.781183    0.960370    1.216010

 Total Charge           Charge          ....    0
 Multiplicity           Mult            ....    1
 Number of Electrons    NEL             ....   50
 Basis Dimension        Dim             ....  179

ORBITAL ENERGIES
----------------

  NO   OCC          E(Eh)            E(eV)
   0   2.0000     -18.947106      -515.5770
   1   2.0000     -10.064514      -273.8694
   2   2.0000     -10.023831      -272.7623
   3   2.0000     -10.014267      -272.5021
   4   2.0000     -10.008604      -272.3480
   5   2.0000     -10.003879      -272.2194
   6   2.0000      -0.983650       -26.7665
   7   2.0000      -0.765664       -20.8348
   8   2.0000      -0.691582       -18.8189
   9   2.0000      -0.632189       -17.2027
  10   2.0000      -0.582510       -15.8509
  11   2.0000      -0.530165       -14.4265
  12   2.0000      -0.464152       -12.6302
  13   2.0000      -0.437341       -11.9006
  14   2.0000      -0.400206       -10.8902
  15   2.0000      -0.381216       -10.3734
  16   2.0000      -0.370997       -10.0953
  17   2.0000      -0.365940        -9.9577
  18   2.0000      -0.347571        -9.4579
  19   2.0000      -0.322937        -8.7876
  20   2.0000      -0.306731        -8.3466
  21   2.0000      -0.293328        -7.9819
  22   2.0000      -0.289717        -7.8836
  23   2.0000      -0.273593        -7.4449
  24   2.0000      -0.228372        -6.2143
  25   0.0000       0.076579         2.0838
  26   0.0000       0.099676         2.7123
  27   0.0000       0.119180         3.2431
  28   0.0000       0.127467         3.4686
  29   0.0000       0.140590         3.8256

MULLIKEN ATOMIC CHARGES
-----------------------
   0 C :   -0.552723
   1 C :   -0.256660
   2 C :    0.005264
   3 H :    0.155333
   4 C :   -0.535133
   5 C :   -0.234396
   6 O :   -0.489801
   7 H :    0.152126
   8 H :    0.157276
   9 H :    0.170963
  10 H :    0.150819
  11 H :    0.149722
  12 H :    0.161329
  13 H :    0.157824
  14 H :    0.162667
  15 H :    0.160612
  16 H :    0.137616
  17 H :    0.347163
Sum of atomic charges:   -0.0000000

LOEWDIN ATOMIC CHARGES
----------------------
   0 C :   -0.433035
   1 C :   -0.309130
   2 C :   -0.228449
   3 H :    0.164390
   4 C :   -0.421182
   5 C :    0.005288
   6 O :   -0.657041
   7 H :    0.149018
   8 H :    0.152669
   9 H :    0.162051
  10 H :    0.157835
  11 H :    0.155926
  12 H :    0.156051
  13 H :    0.158896
  14 H :    0.157623
  15 H :    0.181633
  16 H :    0.165668
  17 H :    0.281790

  Mayer bond orders larger than 0.100000
B(  0-C ,  1-C ) :   0.8855 B(  0-C ,  7-H ) :   0.9723 B(  0-C ,  8-H ) :   0.9849
B(  0-C ,  9-H ) :   0.9758 B(  1-C ,  2-C ) :   0.8890 B(  1-C , 10-H ) :   0.9769
B(  1-C , 11-H ) :   0.9732 B(  2-C ,  3-H ) :   0.9657 B(  2-C ,  4-C ) :   0.8955
B(  2-C ,  5-C ) :   0.8842 B(  4-C , 12-H ) :   0.9750 B(  4-C , 13-H ) :   0.9772
B(  4-C , 14-H ) :   0.9736 B(  5-C ,  6-O ) :   0.9544 B(  5-C , 15-H ) :   0.9816
B(  5-C , 16-H ) :   0.9694 B(  6-O , 17-H ) :   0.8688

Dispersion correction           -0.004409498
FINAL SINGLE POINT ENERGY      -272.901498661678

DIPOLE MOMENT
-------------

Method             : SCF
Type of density    : Electron Density
Multiplicity       :   1
Irrep              :   0
Energy             :  -272.9070602156552923 Eh
Relativity type    :
Basis              : AO
                                X                 Y                 Z
Electronic contribution:      3.430411892       1.511323760       0.653008807
Nuclear contribution   :     -3.602693511      -2.227491151      -0.148491969
                        -----------------------------------------
Total Dipole Moment    :     -0.172281619      -0.716167391       0.504516838
                        -----------------------------------------
Magnitude (a.u.)       :      0.892812370
Magnitude (Debye)      :      2.269348696

Rotational constants in cm-1:             0.116444             0.107669             0.061585
Rotational constants in MHz :          3490.908678          3227.840166          1846.269021

                             ****ORCA TERMINATED NORMALLY****
TOTAL RUN TIME: 0 days 0 hours 0 minutes 26 seconds 722 msec
