                         Program Version 6.0.0  -   RELEASE  -
|  1> ! r2scan-3c def2/J RI DEFGRID2 scfconv6 printgap
|  2> %output
|  3>     printlevel normal
|  4> end
|  5> * xyz 0 1
|  6> C 2.0991280228 -0.7014406083 -0.7599733124
|  7> C 1.465755383 -0.4964285328 0.6120750266
|  8> C 0.1998037218 0.374647477 0.5702349855
|  9> H -0.1998480823 0.4429583774 1.5974741158
| 10> C -0.918732396 -0.1718499771 -0.3343701781
| 11> C -1.2942709026 -1.6081111681 0.0194514058
| 12> C -2.1485330333 0.7297871409 -0.2220344228
| 13> O 0.5071895443 1.6808534645 0.106044331
| 14> H 2.1969475397 0.2539339126 -1.2705412339
| 15> H 1.4925806267 -1.3587931501 -1.3767474706
| 16> H 3.0864152973 -1.1443314712 -0.6556097307
| 17> H 1.2240606299 -1.456457029 1.0669077078
| 18> H 2.1882823095 0.0008207879 1.2653119732
| 19> H -0.5581728942 -0.1279757574 -1.3659307398
| 20> H -0.4857833032 -2.2997399669 -0.1975831943
| 21> H -1.5446471963 -1.6834903809 1.0755670186
| 22> H -2.1626242293 -1.9102681409 -0.5606255997
| 23> H -2.9137260448 0.4144203571 -0.9266281048
| 24> H -1.8764222069 1.7593342631 -0.4383209463
| 25> H -2.5608033703 0.6824310832 0.7839599612
| 26> H 1.1751829285 2.0702848603 0.6852873835
| 27> *
| 28>
| 29>                          ****END OF INPUT****

CARTESIAN COORDINATES (ANGSTROEM)
---------------------------------
  C      2.099128   -0.701441   -0.759973
  C      1.465755   -0.496429    0.612075
  C      0.199804    0.374647    0.570235
  H     -0.199848    0.442958    1.597474
  C     -0.918732   -0.171850   -0.334370
  C     -1.294271   -1.608111    0.019451
  C     -2.148533    0.729787   -0.222034
  O      0.507190    1.680853    0.106044
  H      2.196948    0.253934   -1.270541
  H      1.492581   -1.358793   -1.376747
  H      3.086415   -1.144331   -0.655610
  H      1.224061   -1.456457    1.066908
  H      2.188282    0.000821    1.265312
  H     -0.558173   -0.127976   -1.365931
  H     -0.485783   -2.299740   -0.197583
  H     -1.544647   -1.683490    1.075567
  H     -2.162624   -1.910268   -0.560626
  H     -2.913726    0.414420   -0.926628
  H     -1.876422    1.759334   -0.438321
  H     -2.560803    0.682431    0.783960
  H      1.175183    2.070285    0.685287

 Total Charge           Charge          ....    0
 Multiplicity           Mult            ....    1
 Number of Electrons    NEL             ....   58
 Basis Dimension        Dim             ....  208

ORBITAL ENERGIES
----------------

  NO   OCC          E(Eh)            E(eV)
   0   2.0000     -18.945100      -515.5224
   1   2.0000     -10.076752      -274.2024
   2   2.0000     -10.030013      -272.9305
   3   2.0000     -10.026472      -272.8342
   4   2.0000     -10.017122      -272.5798
   5   2.0000     -10.014129      -272.4983
   6   2.0000     -10.006566      -272.2925
   7   2.0000      -0.983830       -26.7714
   8   2.0000      -0.772148       -21.0112
   9   2.0000      -0.727192       -19.7879
  10   2.0000      -0.646870       -17.6022
  11   2.0000      -0.636843       -17.3294
  12   2.0000      -0.575204       -15.6521
  13   2.0000      -0.514514       -14.0006
  14   2.0000      -0.472100       -12.8465
  15   2.0000      -0.433630       -11.7997
  16   2.0000      -0.429069       -11.6756
  17   2.0000      -0.403040       -10.9673
  18   2.0000      -0.385631       -10.4935
  19   2.0000      -0.359433        -9.7807
  20   2.0000      -0.350985        -9.5508
  21   2.0000      -0.339569        -9.2401
  22   2.0000      -0.335024        -9.1165
  23   2.0000      -0.325834        -8.8664
  24   2.0000      -0.305622        -8.3164
  25   2.0000      -0.300296        -8.1715
  26   2.0000      -0.294402        -8.0111
  27   2.0000      -0.269866        -7.3434
  28   2.0000      -0.232981        -6.3397
  29   0.0000       0.062451         1.6994
  30   0.0000       0.088237         2.4011
  31   0.0000       0.110839         3.0161
  32   0.0000       0.117232         3.1900
  33   0.0000       0.128243         3.4897

MULLIKEN ATOMIC CHARGES
-----------------------
   0 C :   -0.509658
   1 C :   -0.261806
   2 C :    0.021648
   3 H :    0.139653
   4 C :   -0.034924
   5 C :   -0.518417
   6 C :   -0.524948
   7 O :   -0.441360
   8 H :    0.174111
   9 H :    0.148788
  10 H :    0.147667
  11 H :    0.152980
  12 H :    0.131947
  13 H :    0.164306
  14 H :    0.152100
  15 H :    0.159209
  16 H :    0.147509
  17 H :    0.145318
  18 H :    0.176598
  19 H :    0.142930
  20 H :    0.286349
Sum of atomic charges:    0.0000000

LOEWDIN ATOMIC CHARGES
----------------------
   0 C :   -0.422411
   1 C :   -0.294495
   2 C :    0.058951
   3 H :    0.165875
   4 C :   -0.212408
   5 C :   -0.411790
   6 C :   -0.407224
   7 O :   -0.628030
   8 H :    0.162541
   9 H :    0.150868
  10 H :    0.150073
  11 H :    0.159826
  12 H :    0.153660
  13 H :    0.167294
  14 H :    0.152786
  15 H :    0.155887
  16 H :    0.156342
  17 H :    0.150660
  18 H :    0.170134
  19 H :    0.153067
  20 H :    0.268395

  Mayer bond orders larger than 0.100000
B(  0-C ,  1-C ) :   0.8848 B(  0-C ,  8-H ) :   0.9818 B(  0-C ,  9-H ) :   0.9750
B(  0-C , 10-H ) :   0.9721 B(  1-C ,  2-C ) :   0.9107 B(  1-C , 11-H ) :   0.9726
B(  1-C , 12-H ) :   0.9766 B(  2-C ,  3-H ) :   0.9775 B(  2-C ,  4-C ) :   0.9125
B(  2-C ,  7-O ) :   0.8645 B(  4-C ,  5-C ) :   0.8718 B(  4-C ,  6-C ) :   0.9105
B(  4-C , 13-H ) :   0.9572 B(  5-C , 14-H ) :   0.9687 B(  5-C , 15-H ) :   0.9888
B(  5-C , 16-H ) :   0.9679 B(  6-C , 17-H ) :   0.9774 B(  6-C , 18-H ) :   0.9700
B(  6-C , 19-H ) :   0.9854 B(  7-O , 20-H ) :   0.9004

Dispersion correction           -0.005759479
FINAL SINGLE POINT ENERGY      -312.203224479470

DIPOLE MOMENT
-------------

Method             : SCF
Type of density    : Electron Density
Multiplicity       :   1
Irrep              :   0
Energy             :  -312.2086910147244794 Eh
Relativity type    :
Basis              : AO
                                X                 Y                 Z
Electronic contribution:      1.155898966       3.843669228       0.704219765
Nuclear contribution   :     -0.872993813      -4.062513563      -0.296273314
                        -----------------------------------------
Total Dipole Moment    :      0.282905153      -0.218844335       0.407946452
                        -----------------------------------------
Magnitude (a.u.)       :      0.542538916
Magnitude (Debye)      :      1.379024333

Rotational constants in cm-1:             0.111652             0.066960             0.049591
Rotational constants in MHz :          3347.236198          2007.411508          1486.700157

                             ****ORCA TERMINATED NORMALLY****
TOTAL RUN TIME: 0 days 0 hours 0 minutes 28 seconds 583 msec
