                         Program Version 6.0.0  -   RELEASE  -
|  1> ! r2scan-3c def2/J RI DEFGRID2 scfconv6 printgap
|  2> %output
|  3>     printlevel normal
|  4> end
|  5> %cpcm
|  6>     smd true
|  7>     smdsolvent "water"
|  8> end
|  9> * xyz 0 1
| 10> C 2.0991280228 -0.7014406083 -0.7599733124
| 11> C 1.465755383 -0.4964285328 0.6120750266
| 12> C 0.1998037218 0.374647477 0.5702349855
| 13> H -0.1998480823 0.4429583774 1.5974741158
| 14> C -0.918732396 -0.1718499771 -0.3343701781
| 15> C -1.2942709026 -1.6081111681 0.0194514058
| 16> C -2.1485330333 0.7297871409 -0.2220344228
| 17> O 0.5071895443 1.6808534645 0.106044331
| 18> H 2.1969475397 0.2539339126 -1.2705412339
| 19> H 1.4925806267 -1.3587931501 -1.3767474706
| 20> H 3.0864152973 -1.1443314712 -0.6556097307
| 21> H 1.2240606299 -1.456457029 1.0669077078
| 22> H 2.1882823095 0.0008207879 1.2653119732
| 23> H -0.5581728942 -0.1279757574 -1.3659307398
| 24> H -0.4857833032 -2.2997399669 -0.1975831943
| 25> H -1.5446471963 -1.6834903809 1.0755670186
| 26> H -2.1626242293 -1.9102681409 -0.5606255997
| 27> H -2.9137260448 0.4144203571 -0.9266281048
| 28> H -1.8764222069 1.7593342631 -0.4383209463
| 29> H -2.5608033703 0.6824310832 0.7839599612
| 30> H 1.1751829285 2.0702848603 0.6852873835
| 31> *
| 32>
| 33>                          ****END OF INPUT****

CARTESIAN COORDINATES (ANGSTROEM)
---------------------------------
  C      2.099128   -0.701441   -0.759973
  C      1.465755   -0.496429    0.612075
  C      0.199804    0.374647    0.570235
  H     -0.199848    0.442958    1.597474
  C     -0.918732   -0.171850   -0.334370
  C     -1.294271   -1.608111    0.019451
  C     -2.148533    0.729787   -0.222034
  O      0.507190    1.680853    0.106044
  H      2.196948    0.253934   -1.270541
  H      1.492581   -1.358793   -1.376747
  H      3.086415   -1.144331   -0.655610
  H      1.224061   -1.456457    1.066908
  H      2.188282    0.000821    1.265312
  H     -0.558173   -0.127976   -1.365931
  H     -0.485783   -2.299740   -0.197583
  H     -1.544647   -1.683490    1.075567
  H     -2.162624   -1.910268   -0.560626
  H     -2.913726    0.414420   -0.926628
  H     -1.876422    1.759334   -0.438321
  H     -2.560803    0.682431    0.783960
  H      1.175183    2.070285    0.685287

 Total Charge           Charge          ....    0
 Multiplicity           Mult            ....    1
 Number of Electrons    NEL             ....   58
 Basis Dimension        Dim             ....  208

ORBITAL ENERGIES
----------------

  NO   OCC          E(Eh)            E(eV)
   0   2.0000     -18.946335      -515.5560
   1   2.0000     -10.070914      -274.0435
   2   2.0000     -10.025589      -272.8102
   3   2.0000     -10.016252      -272.5561
   4   2.0000     -10.008543      -272.3463
   5   2.0000     -10.007568      -272.3198
   6   2.0000     -10.005402      -272.2608
   7   2.0000      -0.984024       -26.7767
   8   2.0000      -0.766792       -20.8655
   9   2.0000      -0.720308       -19.6006
  10   2.0000      -0.642109       -17.4727
  11   2.0000      -0.631867       -17.1940
  12   2.0000      -0.569110       -15.4863
  13   2.0000      -0.509799       -13.8723
  14   2.0000      -0.467577       -12.7234
  15   2.0000      -0.428640       -11.6639
  16   2.0000      -0.422296       -11.4913
  17   2.0000      -0.397706       -10.8221
  18   2.0000      -0.381010       -10.3678
  19   2.0000      -0.354376        -9.6431
  20   2.0000      -0.346031        -9.4160
  21   2.0000      -0.338828        -9.2200
  22   2.0000      -0.327636        -8.9154
  23   2.0000      -0.320671        -8.7259
  24   2.0000      -0.301420        -8.2021
  25   2.0000      -0.295883        -8.0514
  26   2.0000      -0.290279        -7.8989
  27   2.0000      -0.265249        -7.2178
  28   2.0000      -0.234421        -6.3789
  29   0.0000       0.078823         2.1449
  30   0.0000       0.098036         2.6677
  31   0.0000       0.118783         3.2323
  32   0.0000       0.123762         3.3677
  33   0.0000       0.133612         3.6358

MULLIKEN ATOMIC CHARGES
-----------------------
   0 C :   -0.551135
   1 C :   -0.268601
   2 C :    0.024482
   3 H :    0.153490
   4 C :   -0.015408
   5 C :   -0.560457
   6 C :   -0.562562
   7 O :   -0.523463
   8 H :    0.166313
   9 H :    0.163116
  10 H :    0.160543
  11 H :    0.163579
  12 H :    0.154696
  13 H :    0.169024
  14 H :    0.166535
  15 H :    0.172646
  16 H :    0.158531
  17 H :    0.161456
  18 H :    0.164671
  19 H :    0.161742
  20 H :    0.340802
Sum of atomic charges:    0.0000000

LOEWDIN ATOMIC CHARGES
----------------------
   0 C :   -0.429947
   1 C :   -0.292863
   2 C :    0.061098
   3 H :    0.172971
   4 C :   -0.213079
   5 C :   -0.416965
   6 C :   -0.417052
   7 O :   -0.661508
   8 H :    0.157510
   9 H :    0.154178
  10 H :    0.153874
  11 H :    0.164175
  12 H :    0.161778
  13 H :    0.167010
  14 H :    0.157817
  15 H :    0.159836
  16 H :    0.158541
  17 H :    0.155238
  18 H :    0.163041
  19 H :    0.157871
  20 H :    0.286475

  Mayer bond orders larger than 0.100000
B(  0-C ,  1-C ) :   0.8664 B(  0-C ,  8-H ) :   0.9843 B(  0-C ,  9-H ) :   0.9732
B(  0-C , 10-H ) :   0.9686 B(  1-C ,  2-C ) :   0.9193 B(  1-C , 11-H ) :   0.9705
B(  1-C , 12-H ) :   0.9747 B(  2-C ,  3-H ) :   0.9723 B(  2-C ,  4-C ) :   0.9097
B(  2-C ,  7-O ) :   0.8494 B(  4-C ,  5-C ) :   0.8735 B(  4-C ,  6-C ) :   0.8923
B(  4-C , 13-H ) :   0.9552 B(  5-C , 14-H ) :   0.9644 B(  5-C , 15-H ) :   0.9866
B(  5-C , 16-H ) :   0.9660 B(  6-C , 17-H ) :   0.9743 B(  6-C , 18-H ) :   0.9729
B(  6-C , 19-H ) :   0.9836 B(  7-O , 20-H ) :   0.8749

Dispersion correction           -0.005759479
FINAL SINGLE POINT ENERGY      -312.207927809806

DIPOLE MOMENT
-------------

Method             : SCF
Type of density    : Electron Density
Multiplicity       :   1
Irrep              :   0
Energy             :  -312.2133943450608626 Eh
Relativity type    :
Basis              : AO
                                X                 Y                 Z
Electronic contribution:      1.264101008       3.659367255       0.950608369
Nuclear contribution   :     -0.872993813      -4.062513563      -0.296273314
                        -----------------------------------------
Total Dipole Moment    :      0.391107195      -0.403146307       0.654335056
                        -----------------------------------------
Magnitude (a.u.)       :      0.862349203
Magnitude (Debye)      :      2.191917480

Rotational constants in cm-1:             0.111652             0.066960             0.049591
Rotational constants in MHz :          3347.236198          2007.411508          1486.700157

                             ****ORCA TERMINATED NORMALLY****
TOTAL RUN TIME: 0 days 0 hours 0 minutes 33 seconds 567 msec
