                         Program Version 6.0.0  -   RELEASE  -
|  1> ! r2scan-3c def2/J RI DEFGRID2 scfconv6 printgap
|  2> %output
|  3>     printlevel normal
|  4> end
|  5> * xyz 0 1
|  6> C 4.5054858993 0.2118758475 0.1919270671
|  7> N 3.0716311676 0.3411156379 0.3335702514
|  8> C 2.6340448236 1.3365640089 1.2841221276
|  9> C 2.2520311641 -0.430413488 -0.3790862083
| 10> O 2.6371582708 -1.288564863 -1.1770203876
| 11> C 0.7728419189 -0.228184604 -0.1943154584
| 12> C 0.1035861254 0.7329219131 -0.9506490915
| 13> C -1.2688983879 0.8478783236 -0.8658397709
| 14> C -1.9714993707 -0.0083705851 -0.0203361773
| 15> C -1.3136062999 -0.9776833483 0.7339342048
| 16> C 0.0588666055 -1.0867287049 0.6394919781
| 17> N -3.3886761185 0.1036381391 0.0680028977
| 18> O -3.9487664353 0.9532320392 -0.6065760745
| 19> O -3.9875935966 -0.6559030104 0.8129969689
| 20> H 4.9340937375 1.1625798405 -0.1248881824
| 21> H 4.7109487791 -0.5492014087 -0.5579096267
| 22> H 4.9496947085 -0.0842311811 1.1423854597
| 23> H 2.9618275951 2.3253579711 0.9596140959
| 24> H 3.0759297897 1.125645371 2.2587680477
| 25> H 1.5519356992 1.3297878807 1.374670001
| 26> H 0.6611241114 1.3838732529 -1.6048232343
| 27> H -1.8097547339 1.5842158014 -1.439223682
| 28> H -1.8879643125 -1.6272523516 1.3755109182
| 29> H 0.5833592432 -1.837840291 1.2080969316
| 30> *
| 31>
| 32>                          ****END OF INPUT****

CARTESIAN COORDINATES (ANGSTROEM)
---------------------------------
  C      4.505486    0.211876    0.191927
  N      3.071631    0.341116    0.333570
  C      2.634045    1.336564    1.284122
  C      2.252031   -0.430413   -0.379086
  O      2.637158   -1.288565   -1.177020
  C      0.772842   -0.228185   -0.194315
  C      0.103586    0.732922   -0.950649
  C     -1.268898    0.847878   -0.865840
  C     -1.971499   -0.008371   -0.020336
  C     -1.313606   -0.977683    0.733934
  C      0.058867   -1.086729    0.639492
  N     -3.388676    0.103638    0.068003
  O     -3.948766    0.953232   -0.606576
  O     -3.987594   -0.655903    0.812997
  H      4.934094    1.162580   -0.124888
  H      4.710949   -0.549201   -0.557910
  H      4.949695   -0.084231    1.142385
  H      2.961828    2.325358    0.959614
  H      3.075930    1.125645    2.258768
  H      1.551936    1.329788    1.374670
  H      0.661124    1.383873   -1.604823
  H     -1.809755    1.584216   -1.439224
  H     -1.887964   -1.627252    1.375511
  H      0.583359   -1.837840    1.208097

 Total Charge           Charge          ....    0
 Multiplicity           Mult            ....    1
 Number of Electrons    NEL             ....  102
 Basis Dimension        Dim             ....  341

ORBITAL ENERGIES
----------------

  NO   OCC          E(Eh)            E(eV)
   0   2.0000     -18.980558      -516.4873
   1   2.0000     -18.980501      -516.4857
   2   2.0000     -18.926182      -515.0076
   3   2.0000     -14.393752      -391.6739
   4   2.0000     -14.219196      -386.9240
   5   2.0000     -10.144671      -276.0505
   6   2.0000     -10.106585      -275.0142
   7   2.0000     -10.087523      -274.4954
   8   2.0000     -10.082576      -274.3608
   9   2.0000     -10.076720      -274.2015
  10   2.0000     -10.074329      -274.1364
  11   2.0000     -10.073974      -274.1268
  12   2.0000     -10.071012      -274.0462
  13   2.0000     -10.070408      -274.0297
  14   2.0000      -1.202262       -32.7152
  15   2.0000      -1.021994       -27.8099
  16   2.0000      -1.016032       -27.6476
  17   2.0000      -0.929295       -25.2874
  18   2.0000      -0.873030       -23.7564
  19   2.0000      -0.798130       -21.7182
  20   2.0000      -0.754815       -20.5396
  21   2.0000      -0.721759       -19.6401
  22   2.0000      -0.707258       -19.2455
  23   2.0000      -0.673670       -18.3315
  24   2.0000      -0.615129       -16.7385
  25   2.0000      -0.582521       -15.8512
  26   2.0000      -0.549190       -14.9442
  27   2.0000      -0.530266       -14.4293
  28   2.0000      -0.511926       -13.9302
  29   2.0000      -0.509362       -13.8604
  30   2.0000      -0.491256       -13.3678
  31   2.0000      -0.471672       -12.8349
  32   2.0000      -0.462967       -12.5980
  33   2.0000      -0.450542       -12.2599
  34   2.0000      -0.444366       -12.0918
  35   2.0000      -0.426462       -11.6046
  36   2.0000      -0.422488       -11.4965
  37   2.0000      -0.395453       -10.7608
  38   2.0000      -0.391918       -10.6646
  39   2.0000      -0.382911       -10.4195
  40   2.0000      -0.369129       -10.0445
  41   2.0000      -0.364620        -9.9218
  42   2.0000      -0.363450        -9.8900
  43   2.0000      -0.341722        -9.2987
  44   2.0000      -0.290961        -7.9175
  45   2.0000      -0.281184        -7.6514
  46   2.0000      -0.277553        -7.5526
  47   2.0000      -0.272585        -7.4174
  48   2.0000      -0.255648        -6.9565
  49   2.0000      -0.237801        -6.4709
  50   2.0000      -0.230765        -6.2794
  51   0.0000      -0.125930        -3.4267
  52   0.0000      -0.065532        -1.7832
  53   0.0000      -0.036738        -0.9997
  54   0.0000      -0.018324        -0.4986
  55   0.0000       0.043025         1.1708

MULLIKEN ATOMIC CHARGES
-----------------------
   0 C :   -0.404667
   1 N :    0.091872
   2 C :   -0.371375
   3 C :    0.208426
   4 O :   -0.439209
   5 C :    0.049015
   6 C :   -0.148806
   7 C :   -0.225745
   8 C :    0.040712
   9 C :   -0.226407
  10 C :   -0.143176
  11 N :    0.366710
  12 O :   -0.228273
  13 O :   -0.227642
  14 H :    0.145757
  15 H :    0.203444
  16 H :    0.148477
  17 H :    0.156675
  18 H :    0.151694
  19 H :    0.170541
  20 H :    0.156246
  21 H :    0.184061
  22 H :    0.184192
  23 H :    0.157480
Sum of atomic charges:    0.0000000

LOEWDIN ATOMIC CHARGES
----------------------
   0 C :   -0.104922
   1 N :   -0.827434
   2 C :   -0.097123
   3 C :    0.343738
   4 O :   -0.456633
   5 C :   -0.005724
   6 C :   -0.128410
   7 C :   -0.066494
   8 C :    0.189404
   9 C :   -0.066040
  10 C :   -0.123423
  11 N :   -0.494586
  12 O :   -0.020085
  13 O :   -0.019521
  14 H :    0.176329
  15 H :    0.210799
  16 H :    0.176219
  17 H :    0.175514
  18 H :    0.176867
  19 H :    0.195840
  20 H :    0.181590
  21 H :    0.200577
  22 H :    0.200689
  23 H :    0.182829

  Mayer bond orders larger than 0.100000
B(  0-C ,  1-N ) :   0.9300 B(  0-C , 14-H ) :   0.9508 B(  0-C , 15-H ) :   0.9540
B(  0-C , 16-H ) :   0.9530 B(  1-N ,  2-C ) :   0.9189 B(  1-N ,  3-C ) :   1.2502
B(  2-C , 17-H ) :   0.9544 B(  2-C , 18-H ) :   0.9531 B(  2-C , 19-H ) :   0.9519
B(  3-C ,  4-O ) :   1.8642 B(  3-C ,  5-C ) :   0.8596 B(  5-C ,  6-C ) :   1.3984
B(  5-C , 10-C ) :   1.3936 B(  6-C ,  7-C ) :   1.3103 B(  6-C , 20-H ) :   0.9516
B(  7-C ,  8-C ) :   1.4028 B(  7-C , 21-H ) :   0.9479 B(  8-C ,  9-C ) :   1.3992
B(  8-C , 11-N ) :   0.9663 B(  9-C , 10-C ) :   1.3014 B(  9-C , 22-H ) :   0.9492
B( 10-C , 23-H ) :   0.9580 B( 11-N , 12-O ) :   1.8413 B( 11-N , 13-O ) :   1.8415
B( 12-O , 13-O ) :   0.2442

Dispersion correction           -0.009414652
FINAL SINGLE POINT ENERGY      -683.930165128682

DIPOLE MOMENT
-------------

Method             : SCF
Type of density    : Electron Density
Multiplicity       :   1
Irrep              :   0
Energy             :  -683.9413722003776002 Eh
Relativity type    :
Basis              : AO
                                X                 Y                 Z
Electronic contribution:    -16.353733474      -3.496786486      -3.327043112
Nuclear contribution   :     18.431029849       4.503122283       4.296104223
                        -----------------------------------------
Total Dipole Moment    :      2.077296375       1.006335798       0.969061111
                        -----------------------------------------
Magnitude (a.u.)       :      2.503387985
Magnitude (Debye)      :      6.363106573

Rotational constants in cm-1:             0.068066             0.010529             0.010359
Rotational constants in MHz :          2040.555910           315.636829           310.556296

                             ****ORCA TERMINATED NORMALLY****
TOTAL RUN TIME: 0 days 0 hours 0 minutes 55 seconds 944 msec
