                         Program Version 6.0.0  -   RELEASE  -
|  1> ! r2scan-3c def2/J RI DEFGRID2 scfconv6 printgap
|  2> %output
|  3>     printlevel normal
|  4> end
|  5> %cpcm
|  6>     smd true
|  7>     smdsolvent "water"
|  8> end
|  9> * xyz 0 1
| 10> C 4.5054858993 0.2118758475 0.1919270671
| 11> N 3.0716311676 0.3411156379 0.3335702514
| 12> C 2.6340448236 1.3365640089 1.2841221276
| 13> C 2.2520311641 -0.430413488 -0.3790862083
| 14> O 2.6371582708 -1.288564863 -1.1770203876
| 15> C 0.7728419189 -0.228184604 -0.1943154584
| 16> C 0.1035861254 0.7329219131 -0.9506490915
| 17> C -1.2688983879 0.8478783236 -0.8658397709
| 18> C -1.9714993707 -0.0083705851 -0.0203361773
| 19> C -1.3136062999 -0.9776833483 0.7339342048
| 20> C 0.0588666055 -1.0867287049 0.6394919781
| 21> N -3.3886761185 0.1036381391 0.0680028977
| 22> O -3.9487664353 0.9532320392 -0.6065760745
| 23> O -3.9875935966 -0.6559030104 0.8129969689
| 24> H 4.9340937375 1.1625798405 -0.1248881824
| 25> H 4.7109487791 -0.5492014087 -0.5579096267
| 26> H 4.9496947085 -0.0842311811 1.1423854597
| 27> H 2.9618275951 2.3253579711 0.9596140959
| 28> H 3.0759297897 1.125645371 2.2587680477
| 29> H 1.5519356992 1.3297878807 1.374670001
| 30> H 0.6611241114 1.3838732529 -1.6048232343
| 31> H -1.8097547339 1.5842158014 -1.439223682
| 32> H -1.8879643125 -1.6272523516 1.3755109182
| 33> H 0.5833592432 -1.837840291 1.2080969316
| 34> *
| 35>
| 36>                          ****END OF INPUT****

CARTESIAN COORDINATES (ANGSTROEM)
---------------------------------
  C      4.505486    0.211876    0.191927
  N      3.071631    0.341116    0.333570
  C      2.634045    1.336564    1.284122
  C      2.252031   -0.430413   -0.379086
  O      2.637158   -1.288565   -1.177020
  C      0.772842   -0.228185   -0.194315
  C      0.103586    0.732922   -0.950649
  C     -1.268898    0.847878   -0.865840
  C     -1.971499   -0.008371   -0.020336
  C     -1.313606   -0.977683    0.733934
  C      0.058867   -1.086729    0.639492
  N     -3.388676    0.103638    0.068003
  O     -3.948766    0.953232   -0.606576
  O     -3.987594   -0.655903    0.812997
  H      4.934094    1.162580   -0.124888
  H      4.710949   -0.549201   -0.557910
  H      4.949695   -0.084231    1.142385
  H      2.961828    2.325358    0.959614
  H      3.075930    1.125645    2.258768
  H      1.551936    1.329788    1.374670
  H      0.661124    1.383873   -1.604823
  H     -1.809755    1.584216   -1.439224
  H     -1.887964   -1.627252    1.375511
  H      0.583359   -1.837840    1.208097

 Total Charge           Charge          ....    0
 Multiplicity           Mult            ....    1
 Number of Electrons    NEL             ....  102
 Basis Dimension        Dim             ....  341

ORBITAL ENERGIES
----------------

  NO   OCC          E(Eh)            E(eV)
   0   2.0000     -18.993135      -516.8295
   1   2.0000     -18.993064      -516.8276
   2   2.0000     -18.930673      -515.1298
   3   2.0000     -14.404342      -391.9621
   4   2.0000     -14.207282      -386.5998
   5   2.0000     -10.142138      -275.9816
   6   2.0000     -10.101087      -274.8645
   7   2.0000     -10.074578      -274.1432
   8   2.0000     -10.064768      -273.8763
   9   2.0000     -10.064679      -273.8739
  10   2.0000     -10.058552      -273.7071
  11   2.0000     -10.058404      -273.7031
  12   2.0000     -10.057879      -273.6888
  13   2.0000     -10.053717      -273.5755
  14   2.0000      -1.214281       -33.0423
  15   2.0000      -1.034917       -28.1615
  16   2.0000      -1.017754       -27.6945
  17   2.0000      -0.918093       -24.9826
  18   2.0000      -0.865874       -23.5616
  19   2.0000      -0.794418       -21.6172
  20   2.0000      -0.743413       -20.2293
  21   2.0000      -0.709474       -19.3058
  22   2.0000      -0.686729       -18.6868
  23   2.0000      -0.662412       -18.0251
  24   2.0000      -0.604592       -16.4518
  25   2.0000      -0.578231       -15.7345
  26   2.0000      -0.540677       -14.7126
  27   2.0000      -0.527563       -14.3557
  28   2.0000      -0.521136       -14.1808
  29   2.0000      -0.501381       -13.6433
  30   2.0000      -0.498007       -13.5515
  31   2.0000      -0.460165       -12.5217
  32   2.0000      -0.450897       -12.2695
  33   2.0000      -0.437393       -11.9021
  34   2.0000      -0.430171       -11.7056
  35   2.0000      -0.416259       -11.3270
  36   2.0000      -0.412450       -11.2233
  37   2.0000      -0.376795       -10.2531
  38   2.0000      -0.368477       -10.0268
  39   2.0000      -0.367055        -9.9881
  40   2.0000      -0.361847        -9.8464
  41   2.0000      -0.357622        -9.7314
  42   2.0000      -0.348005        -9.4697
  43   2.0000      -0.331139        -9.0108
  44   2.0000      -0.305417        -8.3108
  45   2.0000      -0.296274        -8.0620
  46   2.0000      -0.272951        -7.4274
  47   2.0000      -0.271110        -7.3773
  48   2.0000      -0.262636        -7.1467
  49   2.0000      -0.237264        -6.4563
  50   2.0000      -0.228595        -6.2204
  51   0.0000      -0.131817        -3.5869
  52   0.0000      -0.054402        -1.4803
  53   0.0000      -0.033017        -0.8984
  54   0.0000      -0.013423        -0.3653
  55   0.0000       0.063083         1.7166

MULLIKEN ATOMIC CHARGES
-----------------------
   0 C :   -0.428413
   1 N :    0.105688
   2 C :   -0.394995
   3 C :    0.253623
   4 O :   -0.556425
   5 C :    0.040800
   6 C :   -0.171035
   7 C :   -0.242949
   8 C :    0.082196
   9 C :   -0.244479
  10 C :   -0.174201
  11 N :    0.419761
  12 O :   -0.287881
  13 O :   -0.288022
  14 H :    0.176069
  15 H :    0.188961
  16 H :    0.178214
  17 H :    0.180727
  18 H :    0.176234
  19 H :    0.181222
  20 H :    0.196490
  21 H :    0.206521
  22 H :    0.206531
  23 H :    0.195361
Sum of atomic charges:    0.0000000

LOEWDIN ATOMIC CHARGES
----------------------
   0 C :   -0.102663
   1 N :   -0.805219
   2 C :   -0.089436
   3 C :    0.346844
   4 O :   -0.546496
   5 C :   -0.003679
   6 C :   -0.117537
   7 C :   -0.060137
   8 C :    0.190094
   9 C :   -0.060293
  10 C :   -0.116336
  11 N :   -0.491965
  12 O :   -0.053928
  13 O :   -0.053954
  14 H :    0.189055
  15 H :    0.203802
  16 H :    0.188636
  17 H :    0.187094
  18 H :    0.188389
  19 H :    0.199765
  20 H :    0.196275
  21 H :    0.207799
  22 H :    0.207752
  23 H :    0.196138

  Mayer bond orders larger than 0.100000
B(  0-C ,  1-N ) :   0.9181 B(  0-C , 14-H ) :   0.9426 B(  0-C , 15-H ) :   0.9560
B(  0-C , 16-H ) :   0.9442 B(  1-N ,  2-C ) :   0.9151 B(  1-N ,  3-C ) :   1.3263
B(  2-C , 17-H ) :   0.9454 B(  2-C , 18-H ) :   0.9448 B(  2-C , 19-H ) :   0.9454
B(  3-C ,  4-O ) :   1.7849 B(  3-C ,  5-C ) :   0.8539 B(  5-C ,  6-C ) :   1.3848
B(  5-C , 10-C ) :   1.3692 B(  6-C ,  7-C ) :   1.3281 B(  6-C , 20-H ) :   0.9462
B(  7-C ,  8-C ) :   1.3250 B(  7-C , 21-H ) :   0.9536 B(  8-C ,  9-C ) :   1.3229
B(  8-C , 11-N ) :   0.9989 B(  9-C , 10-C ) :   1.3239 B(  9-C , 22-H ) :   0.9541
B( 10-C , 23-H ) :   0.9520 B( 11-N , 12-O ) :   1.7860 B( 11-N , 13-O ) :   1.7857
B( 12-O , 13-O ) :   0.2293

Dispersion correction           -0.009414652
FINAL SINGLE POINT ENERGY      -683.945103607418

DIPOLE MOMENT
-------------

Method             : SCF
Type of density    : Electron Density
Multiplicity       :   1
Irrep              :   0
Energy             :  -683.9563106791136988 Eh
Relativity type    :
Basis              : AO
                                X                 Y                 Z
Electronic contribution:    -15.655024051      -2.936108927      -2.812276967
Nuclear contribution   :     18.431029849       4.503122283       4.296104223
                        -----------------------------------------
Total Dipole Moment    :      2.776005797       1.567013356       1.483827256
                        -----------------------------------------
Magnitude (a.u.)       :      3.516174394
Magnitude (Debye)      :      8.937405042

Rotational constants in cm-1:             0.068066             0.010529             0.010359
Rotational constants in MHz :          2040.555910           315.636829           310.556296

                             ****ORCA TERMINATED NORMALLY****
TOTAL RUN TIME: 0 days 0 hours 1 minutes 4 seconds 512 msec
