                         Program Version 6.0.0  -   RELEASE  -
|  1> ! r2scan-3c def2/J RI DEFGRID2 scfconv6 printgap
|  2> %output
|  3>     printlevel normal
|  4> end
|  5> * xyz 0 1
|  6> C -2.3852065451 0.1347720106 -0.1403440376
|  7> C -0.9577158566 0.3753769243 0.3342294268
|  8> N -0.0705850048 -0.6325816452 -0.2214674353
|  9> C 1.2987616276 -0.5838873704 0.2550972368
| 10> C 2.113274462 0.6400727315 -0.1794185983
| 11> H -2.4515491187 0.2530865047 -1.2193667051
| 12> H -2.6950005528 -0.8738258973 0.1163977341
| 13> H -3.0597028471 0.8447834829 0.3299283885
| 14> H -0.9107025319 0.2825566864 1.4238131176
| 15> H -0.6587481556 1.4052252635 0.0720351037
| 16> H -0.0803724015 -0.5670972194 -1.2352494167
| 17> H 1.2673266144 -0.633370779 1.3473956029
| 18> H 1.7922555056 -1.4893348689 -0.10978424
| 19> H 3.1356666151 0.5474843243 0.1757876773
| 20> H 2.1286216773 0.7182575729 -1.2650108469
| 21> H 1.6895130157 1.5543110168 0.2294884245
| 22> *
| 23>
| 24>                          ****END OF INPUT****

CARTESIAN COORDINATES (ANGSTROEM)
---------------------------------
  C     -2.385207    0.134772   -0.140344
  C     -0.957716    0.375377    0.334229
  N     -0.070585   -0.632582   -0.221467
  C      1.298762   -0.583887    0.255097
  C      2.113274    0.640073   -0.179419
  H     -2.451549    0.253087   -1.219367
  H     -2.695001   -0.873826    0.116398
  H     -3.059703    0.844783    0.329928
  H     -0.910703    0.282557    1.423813
  H     -0.658748    1.405225    0.072035
  H     -0.080372   -0.567097   -1.235249
  H      1.267327   -0.633371    1.347396
  H      1.792256   -1.489335   -0.109784
  H      3.135667    0.547484    0.175788
  H      2.128622    0.718258   -1.265011
  H      1.689513    1.554311    0.229488

 Total Charge           Charge          ....    0
 Multiplicity           Mult            ....    1
 Number of Electrons    NEL             ....   42
 Basis Dimension        Dim             ....  155

ORBITAL ENERGIES
----------------

  NO   OCC          E(Eh)            E(eV)
   0   2.0000     -14.135111      -384.6359
   1   2.0000     -10.047556      -273.4079
   2   2.0000     -10.047384      -273.4032
   3   2.0000     -10.015014      -272.5224
   4   2.0000     -10.014182      -272.4997
   5   2.0000      -0.866433       -23.5768
   6   2.0000      -0.724299       -19.7092
   7   2.0000      -0.676083       -18.3972
   8   2.0000      -0.585854       -15.9419
   9   2.0000      -0.559247       -15.2179
  10   2.0000      -0.448390       -12.2013
  11   2.0000      -0.427212       -11.6250
  12   2.0000      -0.416154       -11.3241
  13   2.0000      -0.378920       -10.3109
  14   2.0000      -0.367699       -10.0056
  15   2.0000      -0.349692        -9.5156
  16   2.0000      -0.332071        -9.0361
  17   2.0000      -0.315176        -8.5764
  18   2.0000      -0.310389        -8.4461
  19   2.0000      -0.301710        -8.2099
  20   2.0000      -0.184369        -5.0169
  21   0.0000       0.081300         2.2123
  22   0.0000       0.109381         2.9764
  23   0.0000       0.115961         3.1555
  24   0.0000       0.122145         3.3237
  25   0.0000       0.136484         3.7139

MULLIKEN ATOMIC CHARGES
-----------------------
   0 C :   -0.463467
   1 C :   -0.181955
   2 N :   -0.310401
   3 C :   -0.221081
   4 C :   -0.450259
   5 H :    0.134552
   6 H :    0.158954
   7 H :    0.141772
   8 H :    0.135664
   9 H :    0.116765
  10 H :    0.221854
  11 H :    0.137408
  12 H :    0.150166
  13 H :    0.144842
  14 H :    0.137520
  15 H :    0.147665
Sum of atomic charges:    0.0000000

LOEWDIN ATOMIC CHARGES
----------------------
   0 C :   -0.396498
   1 C :   -0.068686
   2 N :   -0.857000
   3 C :   -0.077862
   4 C :   -0.418451
   5 H :    0.148416
   6 H :    0.158228
   7 H :    0.151527
   8 H :    0.171718
   9 H :    0.147205
  10 H :    0.244679
  11 H :    0.173034
  12 H :    0.172025
  13 H :    0.152459
  14 H :    0.148966
  15 H :    0.150239

  Mayer bond orders larger than 0.100000
B(  0-C ,  1-C ) :   0.9497 B(  0-C ,  5-H ) :   0.9736 B(  0-C ,  6-H ) :   0.9770
B(  0-C ,  7-H ) :   0.9746 B(  1-C ,  2-N ) :   0.9289 B(  1-C ,  8-H ) :   0.9692
B(  1-C ,  9-H ) :   0.9328 B(  2-N ,  3-C ) :   0.9451 B(  2-N , 10-H ) :   0.9102
B(  3-C ,  4-C ) :   0.8682 B(  3-C , 11-H ) :   0.9859 B(  3-C , 12-H ) :   0.9834
B(  4-C , 13-H ) :   0.9700 B(  4-C , 14-H ) :   0.9753 B(  4-C , 15-H ) :   0.9781

Dispersion correction           -0.003397988
FINAL SINGLE POINT ENERGY      -213.713451107037

DIPOLE MOMENT
-------------

Method             : SCF
Type of density    : Electron Density
Multiplicity       :   1
Irrep              :   0
Energy             :  -213.7222044766420765 Eh
Relativity type    :
Basis              : AO
                                X                 Y                 Z
Electronic contribution:     -0.009475132      -1.607596702       0.003672845
Nuclear contribution   :      0.147192865       1.912332525      -0.127465050
                        -----------------------------------------
Total Dipole Moment    :      0.137717733       0.304735823      -0.123792205
                        -----------------------------------------
Magnitude (a.u.)       :      0.356587445
Magnitude (Debye)      :      0.906373254

Rotational constants in cm-1:             0.437185             0.079588             0.074589
Rotational constants in MHz :         13106.478262          2386.002510          2236.134472

                             ****ORCA TERMINATED NORMALLY****
TOTAL RUN TIME: 0 days 0 hours 0 minutes 14 seconds 512 msec
