                         Program Version 6.0.0  -   RELEASE  -
|  1> ! r2scan-3c def2/J RI DEFGRID2 scfconv6 printgap
|  2> %output
|  3>     printlevel normal
|  4> end
|  5> %cpcm
|  6>     smd true
|  7>     smdsolvent "water"
|  8> end
|  9> * xyz 0 1
| 10> C -2.3852065451 0.1347720106 -0.1403440376
| 11> C -0.9577158566 0.3753769243 0.3342294268
| 12> N -0.0705850048 -0.6325816452 -0.2214674353
| 13> C 1.2987616276 -0.5838873704 0.2550972368
| 14> C 2.113274462 0.6400727315 -0.1794185983
| 15> H -2.4515491187 0.2530865047 -1.2193667051
| 16> H -2.6950005528 -0.8738258973 0.1163977341
| 17> H -3.0597028471 0.8447834829 0.3299283885
| 18> H -0.9107025319 0.2825566864 1.4238131176
| 19> H -0.6587481556 1.4052252635 0.0720351037
| 20> H -0.0803724015 -0.5670972194 -1.2352494167
| 21> H 1.2673266144 -0.633370779 1.3473956029
| 22> H 1.7922555056 -1.4893348689 -0.10978424
| 23> H 3.1356666151 0.5474843243 0.1757876773
| 24> H 2.1286216773 0.7182575729 -1.2650108469
| 25> H 1.6895130157 1.5543110168 0.2294884245
| 26> *
| 27>
| 28>                          ****END OF INPUT****

CARTESIAN COORDINATES (ANGSTROEM)
---------------------------------
  C     -2.385207    0.134772   -0.140344
  C     -0.957716    0.375377    0.334229
  N     -0.070585   -0.632582   -0.221467
  C      1.298762   -0.583887    0.255097
  C      2.113274    0.640073   -0.179419
  H     -2.451549    0.253087   -1.219367
  H     -2.695001   -0.873826    0.116398
  H     -3.059703    0.844783    0.329928
  H     -0.910703    0.282557    1.423813
  H     -0.658748    1.405225    0.072035
  H     -0.080372   -0.567097   -1.235249
  H      1.267327   -0.633371    1.347396
  H      1.792256   -1.489335   -0.109784
  H      3.135667    0.547484    0.175788
  H      2.128622    0.718258   -1.265011
  H      1.689513    1.554311    0.229488

 Total Charge           Charge          ....    0
 Multiplicity           Mult            ....    1
 Number of Electrons    NEL             ....   42
 Basis Dimension        Dim             ....  155

ORBITAL ENERGIES
----------------

  NO   OCC          E(Eh)            E(eV)
   0   2.0000     -14.132508      -384.5651
   1   2.0000     -10.040905      -273.2269
   2   2.0000     -10.040898      -273.2267
   3   2.0000     -10.008486      -272.3447
   4   2.0000     -10.005946      -272.2756
   5   2.0000      -0.862049       -23.4576
   6   2.0000      -0.718076       -19.5398
   7   2.0000      -0.669413       -18.2156
   8   2.0000      -0.580029       -15.7834
   9   2.0000      -0.552744       -15.0409
  10   2.0000      -0.442599       -12.0437
  11   2.0000      -0.421333       -11.4650
  12   2.0000      -0.409596       -11.1457
  13   2.0000      -0.371293       -10.1034
  14   2.0000      -0.361555        -9.8384
  15   2.0000      -0.343163        -9.3379
  16   2.0000      -0.326112        -8.8740
  17   2.0000      -0.308453        -8.3934
  18   2.0000      -0.303384        -8.2555
  19   2.0000      -0.294594        -8.0163
  20   2.0000      -0.184837        -5.0297
  21   0.0000       0.090995         2.4761
  22   0.0000       0.118237         3.2174
  23   0.0000       0.122583         3.3357
  24   0.0000       0.130519         3.5516
  25   0.0000       0.141888         3.8610

MULLIKEN ATOMIC CHARGES
-----------------------
   0 C :   -0.504142
   1 C :   -0.190891
   2 N :   -0.380147
   3 C :   -0.217390
   4 C :   -0.495996
   5 H :    0.155486
   6 H :    0.155753
   7 H :    0.156765
   8 H :    0.150934
   9 H :    0.127410
  10 H :    0.270633
  11 H :    0.149127
  12 H :    0.154427
  13 H :    0.156091
  14 H :    0.153888
  15 H :    0.158054
Sum of atomic charges:    0.0000000

LOEWDIN ATOMIC CHARGES
----------------------
   0 C :   -0.405803
   1 C :   -0.070233
   2 N :   -0.878453
   3 C :   -0.080920
   4 C :   -0.424128
   5 H :    0.154148
   6 H :    0.154957
   7 H :    0.156268
   8 H :    0.174832
   9 H :    0.152476
  10 H :    0.255076
  11 H :    0.175810
  12 H :    0.173708
  13 H :    0.155580
  14 H :    0.153727
  15 H :    0.152956

  Mayer bond orders larger than 0.100000
B(  0-C ,  1-C ) :   0.9343 B(  0-C ,  5-H ) :   0.9707 B(  0-C ,  6-H ) :   0.9767
B(  0-C ,  7-H ) :   0.9706 B(  1-C ,  2-N ) :   0.9354 B(  1-C ,  8-H ) :   0.9693
B(  1-C ,  9-H ) :   0.9343 B(  2-N ,  3-C ) :   0.9498 B(  2-N , 10-H ) :   0.8950
B(  3-C ,  4-C ) :   0.8717 B(  3-C , 11-H ) :   0.9808 B(  3-C , 12-H ) :   0.9771
B(  4-C , 13-H ) :   0.9671 B(  4-C , 14-H ) :   0.9734 B(  4-C , 15-H ) :   0.9752

Dispersion correction           -0.003397988
FINAL SINGLE POINT ENERGY      -213.718227984710

DIPOLE MOMENT
-------------

Method             : SCF
Type of density    : Electron Density
Multiplicity       :   1
Irrep              :   0
Energy             :  -213.7269813543152850 Eh
Relativity type    :
Basis              : AO
                                X                 Y                 Z
Electronic contribution:      0.055054299      -1.437307390      -0.068924204
Nuclear contribution   :      0.147192865       1.912332525      -0.127465050
                        -----------------------------------------
Total Dipole Moment    :      0.202247164       0.475025135      -0.196389254
                        -----------------------------------------
Magnitude (a.u.)       :      0.552378071
Magnitude (Debye)      :      1.404033477

Rotational constants in cm-1:             0.437185             0.079588             0.074589
Rotational constants in MHz :         13106.478262          2386.002510          2236.134472

                             ****ORCA TERMINATED NORMALLY****
TOTAL RUN TIME: 0 days 0 hours 0 minutes 17 seconds 765 msec
