                         Program Version 6.0.0  -   RELEASE  -
|  1> ! pbe def2-sv(p) def2/J RI DEFGRID1 loosescf d4 GCP(DFT/SV(P)) printgap
|  2> %output
|  3>     printlevel normal
|  4> end
|  5> * xyz 0 1
|  6> C 3.0259566547 0.2327179065 -1.6758934577
|  7> C 3.5316969715 0.771156243 -0.335772861
|  8> C 3.3513258184 -0.2587419872 0.7532654399
|  9> O 4.3035150073 -0.8336884212 1.2686395064
| 10> N 2.0933533614 -0.6114857825 1.1192295222
| 11> C 0.8498789032 -0.1172597118 0.7026573547
| 12> C 0.5444778073 1.2417458608 0.7141951779
| 13> C -0.7026196705 1.6802401032 0.311717532
| 14> C -1.6687394635 0.7712215552 -0.0906582975
| 15> C -1.3811099581 -0.5892378666 -0.0724122614
| 16> C -0.1323466996 -1.0319084385 0.32405453
| 17> Cl -2.5856331682 -1.7425088071 -0.546855167
| 18> Cl -3.2313010055 1.3280421765 -0.5932211108
| 19> H 1.9533907379 0.0592330808 -1.647441399
| 20> H 3.5254327304 -0.7020021804 -1.9197130714
| 21> H 3.2400105835 0.9521762417 -2.4608394912
| 22> H 3.0147320533 1.6949624966 -0.0906731838
| 23> H 4.6011302267 0.9759137635 -0.4016723222
| 24> H 2.0610162677 -1.4446641367 1.6969651914
| 25> H 1.2680364657 1.9584934262 1.0632055267
| 26> H -0.9392734822 2.7310346499 0.3185036556
| 27> H 0.076287031 -2.08922647 0.3304046929
| 28> *
| 29>
| 30>                          ****END OF INPUT****

CARTESIAN COORDINATES (ANGSTROEM)
---------------------------------
  C      3.025957    0.232718   -1.675893
  C      3.531697    0.771156   -0.335773
  C      3.351326   -0.258742    0.753265
  O      4.303515   -0.833688    1.268640
  N      2.093353   -0.611486    1.119230
  C      0.849879   -0.117260    0.702657
  C      0.544478    1.241746    0.714195
  C     -0.702620    1.680240    0.311718
  C     -1.668739    0.771222   -0.090658
  C     -1.381110   -0.589238   -0.072412
  C     -0.132347   -1.031908    0.324055
  Cl    -2.585633   -1.742509   -0.546855
  Cl    -3.231301    1.328042   -0.593221
  H      1.953391    0.059233   -1.647441
  H      3.525433   -0.702002   -1.919713
  H      3.240011    0.952176   -2.460839
  H      3.014732    1.694962   -0.090673
  H      4.601130    0.975914   -0.401672
  H      2.061016   -1.444664    1.696965
  H      1.268036    1.958493    1.063206
  H     -0.939273    2.731035    0.318504
  H      0.076287   -2.089226    0.330405

 Total Charge           Charge          ....    0
 Multiplicity           Mult            ....    1
 Number of Electrons    NEL             ....  112
 Basis Dimension        Dim             ....  208

ORBITAL ENERGIES
----------------

  NO   OCC          E(Eh)            E(eV)
   0   2.0000    -100.655400     -2738.9727
   1   2.0000    -100.653350     -2738.9169
   2   2.0000     -18.723130      -509.4823
   3   2.0000     -14.038274      -382.0009
   4   2.0000      -9.993482      -271.9365
   5   2.0000      -9.975840      -271.4564
   6   2.0000      -9.970743      -271.3177
   7   2.0000      -9.964633      -271.1515
   8   2.0000      -9.925729      -270.0928
   9   2.0000      -9.925614      -270.0897
  10   2.0000      -9.920791      -269.9584
  11   2.0000      -9.902634      -269.4644
  12   2.0000      -9.891414      -269.1591
  13   2.0000      -9.191133      -250.1035
  14   2.0000      -9.189035      -250.0463
  15   2.0000      -7.022746      -191.0986
  16   2.0000      -7.020660      -191.0419
  17   2.0000      -7.011148      -190.7830
  18   2.0000      -7.010267      -190.7591
  19   2.0000      -7.009018      -190.7251
  20   2.0000      -7.008204      -190.7029
  21   2.0000      -0.944513       -25.7015
  22   2.0000      -0.867685       -23.6109
  23   2.0000      -0.843359       -22.9490
  24   2.0000      -0.791917       -21.5492
  25   2.0000      -0.769656       -20.9434
  26   2.0000      -0.712964       -19.4007
  27   2.0000      -0.692566       -18.8457
  28   2.0000      -0.671946       -18.2846
  29   2.0000      -0.600006       -16.3270
  30   2.0000      -0.583527       -15.8786
  31   2.0000      -0.571307       -15.5460
  32   2.0000      -0.528623       -14.3846
  33   2.0000      -0.506753       -13.7894
  34   2.0000      -0.464816       -12.6483
  35   2.0000      -0.457609       -12.4522
  36   2.0000      -0.433652       -11.8003
  37   2.0000      -0.423501       -11.5241
  38   2.0000      -0.411114       -11.1870
  39   2.0000      -0.403772       -10.9872
  40   2.0000      -0.396297       -10.7838
  41   2.0000      -0.386808       -10.5256
  42   2.0000      -0.372221       -10.1287
  43   2.0000      -0.359986        -9.7957
  44   2.0000      -0.352542        -9.5932
  45   2.0000      -0.335480        -9.1289
  46   2.0000      -0.331863        -9.0304
  47   2.0000      -0.316945        -8.6245
  48   2.0000      -0.314795        -8.5660
  49   2.0000      -0.307698        -8.3729
  50   2.0000      -0.292975        -7.9722
  51   2.0000      -0.269775        -7.3409
  52   2.0000      -0.259626        -7.0648
  53   2.0000      -0.242331        -6.5942
  54   2.0000      -0.213885        -5.8201
  55   2.0000      -0.204821        -5.5735
  56   0.0000      -0.069161        -1.8820
  57   0.0000      -0.065830        -1.7913
  58   0.0000      -0.027652        -0.7525
  59   0.0000      -0.012923        -0.3517
  60   0.0000       0.033060         0.8996

MULLIKEN ATOMIC CHARGES
-----------------------
   0 C :   -0.309786
   1 C :   -0.177103
   2 C :    0.037646
   3 O :   -0.205676
   4 N :   -0.199418
   5 C :    0.185237
   6 C :   -0.099999
   7 C :   -0.113934
   8 C :    0.088584
   9 C :    0.081107
  10 C :   -0.163474
  11 Cl:   -0.048648
  12 Cl:   -0.052180
  13 H :    0.135368
  14 H :    0.116895
  15 H :    0.115212
  16 H :    0.102395
  17 H :    0.105119
  18 H :    0.236779
  19 H :    0.066452
  20 H :    0.059277
  21 H :    0.040149
Sum of atomic charges:    0.0000000

LOEWDIN ATOMIC CHARGES
----------------------
   0 C :   -0.335186
   1 C :   -0.254941
   2 C :    0.029435
   3 O :   -0.190891
   4 N :   -0.115985
   5 C :   -0.007043
   6 C :   -0.132194
   7 C :   -0.124686
   8 C :   -0.160908
   9 C :   -0.147010
  10 C :   -0.146795
  11 Cl:    0.147661
  12 Cl:    0.143987
  13 H :    0.124007
  14 H :    0.126216
  15 H :    0.126246
  16 H :    0.127084
  17 H :    0.137714
  18 H :    0.243684
  19 H :    0.135219
  20 H :    0.137857
  21 H :    0.136528

  Mayer bond orders larger than 0.100000
B(  0-C ,  1-C ) :   1.1277 B(  0-C , 13-H ) :   0.9444 B(  0-C , 14-H ) :   0.9520
B(  0-C , 15-H ) :   0.9484 B(  1-C ,  2-C ) :   1.0391 B(  1-C , 16-H ) :   0.8922
B(  1-C , 17-H ) :   0.9038 B(  2-C ,  3-O ) :   2.1075 B(  2-C ,  4-N ) :   1.1552
B(  4-N ,  5-C ) :   0.9957 B(  4-N , 18-H ) :   0.8417 B(  5-C ,  6-C ) :   1.3495
B(  5-C , 10-C ) :   1.3075 B(  6-C ,  7-C ) :   1.3393 B(  6-C , 19-H ) :   0.9551
B(  7-C ,  8-C ) :   1.3754 B(  7-C , 20-H ) :   0.9630 B(  8-C ,  9-C ) :   1.4086
B(  8-C , 12-Cl) :   1.0379 B(  9-C , 10-C ) :   1.3673 B(  9-C , 11-Cl) :   1.0358
B( 10-C , 21-H ) :   0.9724

Dispersion correction           -0.029322702
FINAL SINGLE POINT ENERGY     -1397.087198615305

DIPOLE MOMENT
-------------

Method             : SCF
Type of density    : Electron Density
Multiplicity       :   1
Irrep              :   0
Energy             : -1397.1456591563326128 Eh
Relativity type    :
Basis              : AO
                                X                 Y                 Z
Electronic contribution:    -25.926566069      -3.957710970       1.164516247
Nuclear contribution   :     25.521116950       4.420811776      -1.363753971
                        -----------------------------------------
Total Dipole Moment    :     -0.405449118       0.463100806      -0.199237724
                        -----------------------------------------
Magnitude (a.u.)       :      0.646952096
Magnitude (Debye)      :      1.644421544

Rotational constants in cm-1:             0.041377             0.010287             0.009259
Rotational constants in MHz :          1240.464651           308.398371           277.563520

                             ****ORCA TERMINATED NORMALLY****
TOTAL RUN TIME: 0 days 0 hours 0 minutes 17 seconds 797 msec
