                         Program Version 6.0.0  -   RELEASE  -
|  1> ! pbe def2-sv(p) def2/J RI DEFGRID1 loosescf d4 GCP(DFT/SV(P)) printgap
|  2> %output
|  3>     printlevel normal
|  4> end
|  5> * xyz 0 1
|  6> C 3.7810287162 0.0284868221 -1.6810260635
|  7> C 3.4296419772 0.8155526928 -0.4137316649
|  8> C 3.3001340504 -0.1690555322 0.7227059199
|  9> O 4.2793681297 -0.6760411989 1.2573637488
| 10> N 2.0591581111 -0.5793094527 1.0868135701
| 11> C 0.8004908199 -0.1069936433 0.6912197201
| 12> C 0.4742184692 1.247185213 0.7398855374
| 13> C -0.7840188434 1.6745064605 0.3605024019
| 14> C -1.7376859845 0.7583132702 -0.0558632168
| 15> C -1.4263441557 -0.5967432494 -0.0781741941
| 16> C -0.1659669213 -1.0286339405 0.2943897617
| 17> Cl -2.6149298668 -1.7569490941 -0.5737951093
| 18> Cl -3.3153473903 1.300420739 -0.5263529036
| 19> H 3.9635725081 0.7136943198 -2.5034618104
| 20> H 2.9640883729 -0.6353062697 -1.9539968075
| 21> H 4.6749714833 -0.5685823326 -1.5163104457
| 22> H 2.5117745687 1.3715025401 -0.5773234335
| 23> H 4.2439937493 1.5009889414 -0.1785313861
| 24> H 2.056651478 -1.3975612783 1.6861564257
| 25> H 1.1938336665 1.9636908423 1.100681509
| 26> H -1.0391427181 2.7203990986 0.3968537474
| 27> H 0.0616917704 -2.0816633177 0.2703422559
| 28> *
| 29>
| 30>                          ****END OF INPUT****

CARTESIAN COORDINATES (ANGSTROEM)
---------------------------------
  C      3.781029    0.028487   -1.681026
  C      3.429642    0.815553   -0.413732
  C      3.300134   -0.169056    0.722706
  O      4.279368   -0.676041    1.257364
  N      2.059158   -0.579309    1.086814
  C      0.800491   -0.106994    0.691220
  C      0.474218    1.247185    0.739886
  C     -0.784019    1.674506    0.360502
  C     -1.737686    0.758313   -0.055863
  C     -1.426344   -0.596743   -0.078174
  C     -0.165967   -1.028634    0.294390
  Cl    -2.614930   -1.756949   -0.573795
  Cl    -3.315347    1.300421   -0.526353
  H      3.963573    0.713694   -2.503462
  H      2.964088   -0.635306   -1.953997
  H      4.674971   -0.568582   -1.516310
  H      2.511775    1.371503   -0.577323
  H      4.243994    1.500989   -0.178531
  H      2.056651   -1.397561    1.686156
  H      1.193834    1.963691    1.100682
  H     -1.039143    2.720399    0.396854
  H      0.061692   -2.081663    0.270342

 Total Charge           Charge          ....    0
 Multiplicity           Mult            ....    1
 Number of Electrons    NEL             ....  112
 Basis Dimension        Dim             ....  208

ORBITAL ENERGIES
----------------

  NO   OCC          E(Eh)            E(eV)
   0   2.0000    -100.655296     -2738.9698
   1   2.0000    -100.653318     -2738.9160
   2   2.0000     -18.722569      -509.4670
   3   2.0000     -14.039049      -382.0220
   4   2.0000      -9.993075      -271.9254
   5   2.0000      -9.975566      -271.4490
   6   2.0000      -9.970705      -271.3167
   7   2.0000      -9.964200      -271.1397
   8   2.0000      -9.925572      -270.0885
   9   2.0000      -9.925217      -270.0789
  10   2.0000      -9.921115      -269.9673
  11   2.0000      -9.901637      -269.4373
  12   2.0000      -9.889290      -269.1013
  13   2.0000      -9.191031      -250.1007
  14   2.0000      -9.188996      -250.0453
  15   2.0000      -7.022642      -191.0958
  16   2.0000      -7.020623      -191.0409
  17   2.0000      -7.011043      -190.7802
  18   2.0000      -7.010168      -190.7564
  19   2.0000      -7.008985      -190.7242
  20   2.0000      -7.008161      -190.7018
  21   2.0000      -0.944365       -25.6975
  22   2.0000      -0.867896       -23.6167
  23   2.0000      -0.843360       -22.9490
  24   2.0000      -0.791859       -21.5476
  25   2.0000      -0.769523       -20.9398
  26   2.0000      -0.711304       -19.3556
  27   2.0000      -0.692667       -18.8484
  28   2.0000      -0.671624       -18.2758
  29   2.0000      -0.601764       -16.3748
  30   2.0000      -0.583337       -15.8734
  31   2.0000      -0.568854       -15.4793
  32   2.0000      -0.525601       -14.3023
  33   2.0000      -0.505792       -13.7633
  34   2.0000      -0.464980       -12.6528
  35   2.0000      -0.457175       -12.4404
  36   2.0000      -0.436114       -11.8673
  37   2.0000      -0.423273       -11.5178
  38   2.0000      -0.412662       -11.2291
  39   2.0000      -0.410154       -11.1608
  40   2.0000      -0.393063       -10.6958
  41   2.0000      -0.380027       -10.3411
  42   2.0000      -0.371524       -10.1097
  43   2.0000      -0.358001        -9.7417
  44   2.0000      -0.354283        -9.6405
  45   2.0000      -0.332289        -9.0420
  46   2.0000      -0.329004        -8.9527
  47   2.0000      -0.318038        -8.6543
  48   2.0000      -0.314058        -8.5460
  49   2.0000      -0.306983        -8.3534
  50   2.0000      -0.292874        -7.9695
  51   2.0000      -0.269654        -7.3377
  52   2.0000      -0.258853        -7.0438
  53   2.0000      -0.241908        -6.5826
  54   2.0000      -0.214193        -5.8285
  55   2.0000      -0.205947        -5.6041
  56   0.0000      -0.068563        -1.8657
  57   0.0000      -0.065637        -1.7861
  58   0.0000      -0.027212        -0.7405
  59   0.0000      -0.015211        -0.4139
  60   0.0000       0.033491         0.9113

MULLIKEN ATOMIC CHARGES
-----------------------
   0 C :   -0.292825
   1 C :   -0.177364
   2 C :    0.041920
   3 O :   -0.214385
   4 N :   -0.204840
   5 C :    0.193129
   6 C :   -0.090250
   7 C :   -0.116689
   8 C :    0.091236
   9 C :    0.077883
  10 C :   -0.165085
  11 Cl:   -0.048995
  12 Cl:   -0.052170
  13 H :    0.115388
  14 H :    0.106581
  15 H :    0.122786
  16 H :    0.101015
  17 H :    0.108479
  18 H :    0.237231
  19 H :    0.067910
  20 H :    0.059593
  21 H :    0.039451
Sum of atomic charges:   -0.0000000

LOEWDIN ATOMIC CHARGES
----------------------
   0 C :   -0.327447
   1 C :   -0.258288
   2 C :    0.029917
   3 O :   -0.195452
   4 N :   -0.114874
   5 C :   -0.006153
   6 C :   -0.131846
   7 C :   -0.125708
   8 C :   -0.160109
   9 C :   -0.147579
  10 C :   -0.146433
  11 Cl:    0.147680
  12 Cl:    0.144079
  13 H :    0.123969
  14 H :    0.120375
  15 H :    0.128291
  16 H :    0.125297
  17 H :    0.138743
  18 H :    0.243812
  19 H :    0.137082
  20 H :    0.138014
  21 H :    0.136631

  Mayer bond orders larger than 0.100000
B(  0-C ,  1-C ) :   1.1401 B(  0-C , 13-H ) :   0.9510 B(  0-C , 14-H ) :   0.9556
B(  0-C , 15-H ) :   0.9492 B(  1-C ,  2-C ) :   1.0265 B(  1-C , 16-H ) :   0.8908
B(  1-C , 17-H ) :   0.9007 B(  2-C ,  3-O ) :   2.0830 B(  2-C ,  4-N ) :   1.1618
B(  4-N ,  5-C ) :   0.9914 B(  4-N , 18-H ) :   0.8413 B(  5-C ,  6-C ) :   1.3533
B(  5-C , 10-C ) :   1.3163 B(  6-C ,  7-C ) :   1.3327 B(  6-C , 19-H ) :   0.9541
B(  7-C ,  8-C ) :   1.3729 B(  7-C , 20-H ) :   0.9639 B(  8-C ,  9-C ) :   1.4116
B(  8-C , 12-Cl) :   1.0384 B(  9-C , 10-C ) :   1.3596 B(  9-C , 11-Cl) :   1.0349
B( 10-C , 21-H ) :   0.9733

Dispersion correction           -0.028580696
FINAL SINGLE POINT ENERGY     -1397.087151560798

DIPOLE MOMENT
-------------

Method             : SCF
Type of density    : Electron Density
Multiplicity       :   1
Irrep              :   0
Energy             : -1397.1460770003936886 Eh
Relativity type    :
Basis              : AO
                                X                 Y                 Z
Electronic contribution:    -27.785457432      -3.568742207       1.386003727
Nuclear contribution   :     27.390190174       3.964946760      -1.571860779
                        -----------------------------------------
Total Dipole Moment    :     -0.395267258       0.396204553      -0.185857052
                        -----------------------------------------
Magnitude (a.u.)       :      0.589709333
Magnitude (Debye)      :      1.498922003

Rotational constants in cm-1:             0.041168             0.009779             0.008914
Rotational constants in MHz :          1234.189967           293.179138           267.245998

                             ****ORCA TERMINATED NORMALLY****
TOTAL RUN TIME: 0 days 0 hours 0 minutes 14 seconds 670 msec
