                         Program Version 6.0.0  -   RELEASE  -
|  1> ! r2scan-3c def2/J RI DEFGRID2 scfconv6 printgap
|  2> %output
|  3>     printlevel normal
|  4> end
|  5> * xyz 0 1
|  6> C -3.3373053677 0.6445918944 0.4728437461
|  7> C -3.1365538052 0.6976181597 -0.896268115
|  8> C -1.9305805947 0.2883297632 -1.4372413534
|  9> C -0.9153941196 -0.1853498782 -0.6162572962
| 10> C -1.1248670518 -0.2407552726 0.7553036609
| 11> C -2.3283432289 0.1761257854 1.2969525807
| 12> C 0.3885091405 -0.6520590423 -1.2244560023
| 13> N 1.5200943936 -0.3860547898 -0.3749915914
| 14> C 2.1689180221 -1.2758165505 0.4308497607
| 15> C 3.1257296883 -0.5611208376 1.0916583162
| 16> N 3.0727676918 0.7461057906 0.7151139543
| 17> C 2.0996191918 0.8135682792 -0.1569841434
| 18> H -4.275675072 0.9683954887 0.896360218
| 19> H -3.9188452971 1.0627732465 -1.5440759693
| 20> H -1.7766963653 0.3349077369 -2.5051720022
| 21> H -0.342817461 -0.6040712279 1.4065870476
| 22> H -2.4770639966 0.1330905562 2.3652886698
| 23> H 0.3432713141 -1.7316064489 -1.3988394295
| 24> H 0.5421398264 -0.1534590774 -2.1855135838
| 25> H 1.9108777527 -2.3139211451 0.4617049836
| 26> H 3.8472631917 -0.8971531496 1.8089978917
| 27> H 1.78924576 1.7113422477 -0.6523823378
| 28> *
| 29>
| 30>                          ****END OF INPUT****

CARTESIAN COORDINATES (ANGSTROEM)
---------------------------------
  C     -3.337305    0.644592    0.472844
  C     -3.136554    0.697618   -0.896268
  C     -1.930581    0.288330   -1.437241
  C     -0.915394   -0.185350   -0.616257
  C     -1.124867   -0.240755    0.755304
  C     -2.328343    0.176126    1.296953
  C      0.388509   -0.652059   -1.224456
  N      1.520094   -0.386055   -0.374992
  C      2.168918   -1.275817    0.430850
  C      3.125730   -0.561121    1.091658
  N      3.072768    0.746106    0.715114
  C      2.099619    0.813568   -0.156984
  H     -4.275675    0.968395    0.896360
  H     -3.918845    1.062773   -1.544076
  H     -1.776696    0.334908   -2.505172
  H     -0.342817   -0.604071    1.406587
  H     -2.477064    0.133091    2.365289
  H      0.343271   -1.731606   -1.398839
  H      0.542140   -0.153459   -2.185514
  H      1.910878   -2.313921    0.461705
  H      3.847263   -0.897153    1.808998
  H      1.789246    1.711342   -0.652382

 Total Charge           Charge          ....    0
 Multiplicity           Mult            ....    1
 Number of Electrons    NEL             ....   84
 Basis Dimension        Dim             ....  288

ORBITAL ENERGIES
----------------

  NO   OCC          E(Eh)            E(eV)
   0   2.0000     -14.223928      -387.0528
   1   2.0000     -14.133422      -384.5900
   2   2.0000     -10.097837      -274.7761
   3   2.0000     -10.073913      -274.1251
   4   2.0000     -10.058186      -273.6972
   5   2.0000     -10.055092      -273.6130
   6   2.0000     -10.046680      -273.3841
   7   2.0000     -10.045444      -273.3504
   8   2.0000     -10.044277      -273.3187
   9   2.0000     -10.043181      -273.2888
  10   2.0000     -10.042961      -273.2829
  11   2.0000     -10.038053      -273.1493
  12   2.0000      -0.994628       -27.0652
  13   2.0000      -0.866082       -23.5673
  14   2.0000      -0.835517       -22.7356
  15   2.0000      -0.753523       -20.5044
  16   2.0000      -0.727366       -19.7926
  17   2.0000      -0.713130       -19.4053
  18   2.0000      -0.677336       -18.4313
  19   2.0000      -0.590622       -16.0716
  20   2.0000      -0.578288       -15.7360
  21   2.0000      -0.568914       -15.4809
  22   2.0000      -0.543789       -14.7972
  23   2.0000      -0.513054       -13.9609
  24   2.0000      -0.493974       -13.4417
  25   2.0000      -0.449264       -12.2251
  26   2.0000      -0.435842       -11.8599
  27   2.0000      -0.427086       -11.6216
  28   2.0000      -0.419337       -11.4107
  29   2.0000      -0.401530       -10.9262
  30   2.0000      -0.400088       -10.8869
  31   2.0000      -0.386845       -10.5266
  32   2.0000      -0.376689       -10.2502
  33   2.0000      -0.370371       -10.0783
  34   2.0000      -0.349515        -9.5108
  35   2.0000      -0.327457        -8.9106
  36   2.0000      -0.321088        -8.7372
  37   2.0000      -0.254057        -6.9132
  38   2.0000      -0.248400        -6.7593
  39   2.0000      -0.243488        -6.6257
  40   2.0000      -0.232897        -6.3374
  41   2.0000      -0.207999        -5.6599
  42   0.0000      -0.044302        -1.2055
  43   0.0000      -0.043478        -1.1831
  44   0.0000      -0.004508        -0.1227
  45   0.0000       0.035265         0.9596
  46   0.0000       0.069142         1.8814

MULLIKEN ATOMIC CHARGES
-----------------------
   0 C :   -0.139716
   1 C :   -0.145446
   2 C :   -0.255051
   3 C :    0.211641
   4 C :   -0.145772
   5 C :   -0.174545
   6 C :   -0.390453
   7 N :    0.203634
   8 C :   -0.194129
   9 C :   -0.130699
  10 N :   -0.187063
  11 C :   -0.153283
  12 H :    0.147721
  13 H :    0.146854
  14 H :    0.144162
  15 H :    0.164299
  16 H :    0.147490
  17 H :    0.173554
  18 H :    0.172158
  19 H :    0.135142
  20 H :    0.133468
  21 H :    0.136036
Sum of atomic charges:   -0.0000000

LOEWDIN ATOMIC CHARGES
----------------------
   0 C :   -0.163085
   1 C :   -0.156914
   2 C :   -0.161070
   3 C :   -0.067361
   4 C :   -0.138562
   5 C :   -0.153467
   6 C :    0.019754
   7 N :   -0.781896
   8 C :    0.057498
   9 C :    0.050665
  10 N :   -0.562539
  11 C :    0.227635
  12 H :    0.168172
  13 H :    0.168450
  14 H :    0.169132
  15 H :    0.184403
  16 H :    0.169347
  17 H :    0.201615
  18 H :    0.196194
  19 H :    0.187898
  20 H :    0.181858
  21 H :    0.202273

  Mayer bond orders larger than 0.100000
B(  0-C ,  1-C ) :   1.4257 B(  0-C ,  5-C ) :   1.4082 B(  0-C , 12-H ) :   0.9493
B(  1-C ,  2-C ) :   1.4263 B(  1-C , 13-H ) :   0.9470 B(  2-C ,  3-C ) :   1.3923
B(  2-C , 14-H ) :   0.9427 B(  3-C ,  4-C ) :   1.4311 B(  3-C ,  6-C ) :   0.8032
B(  4-C ,  5-C ) :   1.4344 B(  4-C , 15-H ) :   0.9433 B(  5-C , 16-H ) :   0.9516
B(  6-C ,  7-N ) :   0.9469 B(  6-C , 17-H ) :   0.9489 B(  6-C , 18-H ) :   0.9972
B(  7-N ,  8-C ) :   1.2059 B(  7-N , 11-C ) :   1.2540 B(  8-C ,  9-C ) :   1.4704
B(  8-C , 11-C ) :   0.1023 B(  8-C , 19-H ) :   0.9527 B(  9-C , 10-N ) :   1.3099
B(  9-C , 20-H ) :   0.9760 B( 10-N , 11-C ) :   1.6061 B( 11-C , 21-H ) :   0.9543

Dispersion correction           -0.008582519
FINAL SINGLE POINT ENERGY      -496.441440008531

DIPOLE MOMENT
-------------

Method             : SCF
Type of density    : Electron Density
Multiplicity       :   1
Irrep              :   0
Energy             :  -496.4458579393826767 Eh
Relativity type    :
Basis              : AO
                                X                 Y                 Z
Electronic contribution:      2.852350143       0.703143318       0.569247223
Nuclear contribution   :     -4.063619231      -1.395617963      -1.261890517
                        -----------------------------------------
Total Dipole Moment    :     -1.211269087      -0.692474645      -0.692643295
                        -----------------------------------------
Magnitude (a.u.)       :      1.557706221
Magnitude (Debye)      :      3.959374557

Rotational constants in cm-1:             0.085641             0.018147             0.016923
Rotational constants in MHz :          2567.441843           544.021848           507.341148

                             ****ORCA TERMINATED NORMALLY****
TOTAL RUN TIME: 0 days 0 hours 0 minutes 43 seconds 780 msec
