                         Program Version 6.0.0  -   RELEASE  -
|  1> ! r2scan-3c def2/J RI DEFGRID2 scfconv6 printgap
|  2> %output
|  3>     printlevel normal
|  4> end
|  5> %cpcm
|  6>     smd true
|  7>     smdsolvent "water"
|  8> end
|  9> * xyz 0 1
| 10> C -3.3373053677 0.6445918944 0.4728437461
| 11> C -3.1365538052 0.6976181597 -0.896268115
| 12> C -1.9305805947 0.2883297632 -1.4372413534
| 13> C -0.9153941196 -0.1853498782 -0.6162572962
| 14> C -1.1248670518 -0.2407552726 0.7553036609
| 15> C -2.3283432289 0.1761257854 1.2969525807
| 16> C 0.3885091405 -0.6520590423 -1.2244560023
| 17> N 1.5200943936 -0.3860547898 -0.3749915914
| 18> C 2.1689180221 -1.2758165505 0.4308497607
| 19> C 3.1257296883 -0.5611208376 1.0916583162
| 20> N 3.0727676918 0.7461057906 0.7151139543
| 21> C 2.0996191918 0.8135682792 -0.1569841434
| 22> H -4.275675072 0.9683954887 0.896360218
| 23> H -3.9188452971 1.0627732465 -1.5440759693
| 24> H -1.7766963653 0.3349077369 -2.5051720022
| 25> H -0.342817461 -0.6040712279 1.4065870476
| 26> H -2.4770639966 0.1330905562 2.3652886698
| 27> H 0.3432713141 -1.7316064489 -1.3988394295
| 28> H 0.5421398264 -0.1534590774 -2.1855135838
| 29> H 1.9108777527 -2.3139211451 0.4617049836
| 30> H 3.8472631917 -0.8971531496 1.8089978917
| 31> H 1.78924576 1.7113422477 -0.6523823378
| 32> *
| 33>
| 34>                          ****END OF INPUT****

CARTESIAN COORDINATES (ANGSTROEM)
---------------------------------
  C     -3.337305    0.644592    0.472844
  C     -3.136554    0.697618   -0.896268
  C     -1.930581    0.288330   -1.437241
  C     -0.915394   -0.185350   -0.616257
  C     -1.124867   -0.240755    0.755304
  C     -2.328343    0.176126    1.296953
  C      0.388509   -0.652059   -1.224456
  N      1.520094   -0.386055   -0.374992
  C      2.168918   -1.275817    0.430850
  C      3.125730   -0.561121    1.091658
  N      3.072768    0.746106    0.715114
  C      2.099619    0.813568   -0.156984
  H     -4.275675    0.968395    0.896360
  H     -3.918845    1.062773   -1.544076
  H     -1.776696    0.334908   -2.505172
  H     -0.342817   -0.604071    1.406587
  H     -2.477064    0.133091    2.365289
  H      0.343271   -1.731606   -1.398839
  H      0.542140   -0.153459   -2.185514
  H      1.910878   -2.313921    0.461705
  H      3.847263   -0.897153    1.808998
  H      1.789246    1.711342   -0.652382

 Total Charge           Charge          ....    0
 Multiplicity           Mult            ....    1
 Number of Electrons    NEL             ....   84
 Basis Dimension        Dim             ....  288

ORBITAL ENERGIES
----------------

  NO   OCC          E(Eh)            E(eV)
   0   2.0000     -14.220831      -386.9685
   1   2.0000     -14.143249      -384.8574
   2   2.0000     -10.078402      -274.2473
   3   2.0000     -10.075341      -274.1640
   4   2.0000     -10.052895      -273.5532
   5   2.0000     -10.048647      -273.4376
   6   2.0000     -10.039882      -273.1991
   7   2.0000     -10.034802      -273.0608
   8   2.0000     -10.034699      -273.0580
   9   2.0000     -10.034297      -273.0471
  10   2.0000     -10.033839      -273.0347
  11   2.0000     -10.032619      -273.0014
  12   2.0000      -0.994597       -27.0644
  13   2.0000      -0.865510       -23.5517
  14   2.0000      -0.828566       -22.5464
  15   2.0000      -0.744628       -20.2624
  16   2.0000      -0.717775       -19.5317
  17   2.0000      -0.711576       -19.3630
  18   2.0000      -0.668181       -18.1821
  19   2.0000      -0.579909       -15.7801
  20   2.0000      -0.568662       -15.4741
  21   2.0000      -0.567975       -15.4554
  22   2.0000      -0.539627       -14.6840
  23   2.0000      -0.504399       -13.7254
  24   2.0000      -0.481735       -13.1087
  25   2.0000      -0.438701       -11.9377
  26   2.0000      -0.422679       -11.5017
  27   2.0000      -0.418405       -11.3854
  28   2.0000      -0.412717       -11.2306
  29   2.0000      -0.395802       -10.7703
  30   2.0000      -0.387944       -10.5565
  31   2.0000      -0.378632       -10.3031
  32   2.0000      -0.372601       -10.1390
  33   2.0000      -0.366569        -9.9749
  34   2.0000      -0.341610        -9.2957
  35   2.0000      -0.316149        -8.6028
  36   2.0000      -0.308634        -8.3984
  37   2.0000      -0.257134        -6.9970
  38   2.0000      -0.251470        -6.8429
  39   2.0000      -0.241875        -6.5818
  40   2.0000      -0.234528        -6.3818
  41   2.0000      -0.210580        -5.7302
  42   0.0000      -0.036624        -0.9966
  43   0.0000      -0.035103        -0.9552
  44   0.0000      -0.005002        -0.1361
  45   0.0000       0.030275         0.8238
  46   0.0000       0.084089         2.2882

MULLIKEN ATOMIC CHARGES
-----------------------
   0 C :   -0.176232
   1 C :   -0.180614
   2 C :   -0.275882
   3 C :    0.182041
   4 C :   -0.184000
   5 C :   -0.218621
   6 C :   -0.357133
   7 N :    0.207302
   8 C :   -0.197266
   9 C :   -0.188741
  10 N :   -0.271872
  11 C :   -0.161870
  12 H :    0.179241
  13 H :    0.178758
  14 H :    0.180046
  15 H :    0.183409
  16 H :    0.177957
  17 H :    0.206285
  18 H :    0.202928
  19 H :    0.177688
  20 H :    0.162371
  21 H :    0.174206
Sum of atomic charges:   -0.0000000

LOEWDIN ATOMIC CHARGES
----------------------
   0 C :   -0.177660
   1 C :   -0.168116
   2 C :   -0.162873
   3 C :   -0.066655
   4 C :   -0.152830
   5 C :   -0.167705
   6 C :    0.028214
   7 N :   -0.762268
   8 C :    0.071367
   9 C :    0.024097
  10 N :   -0.632726
  11 C :    0.223938
  12 H :    0.177597
  13 H :    0.178578
  14 H :    0.182478
  15 H :    0.188687
  16 H :    0.178505
  17 H :    0.216311
  18 H :    0.210541
  19 H :    0.205162
  20 H :    0.189861
  21 H :    0.215495

  Mayer bond orders larger than 0.100000
B(  0-C ,  1-C ) :   1.3864 B(  0-C ,  5-C ) :   1.3784 B(  0-C , 12-H ) :   0.9559
B(  1-C ,  2-C ) :   1.3879 B(  1-C , 13-H ) :   0.9565 B(  2-C ,  3-C ) :   1.3859
B(  2-C , 14-H ) :   0.9513 B(  3-C ,  4-C ) :   1.3881 B(  3-C ,  6-C ) :   0.8009
B(  4-C ,  5-C ) :   1.4007 B(  4-C , 15-H ) :   0.9489 B(  5-C , 16-H ) :   0.9604
B(  6-C ,  7-N ) :   0.9489 B(  6-C , 17-H ) :   0.9362 B(  6-C , 18-H ) :   0.9827
B(  7-N ,  8-C ) :   1.2002 B(  7-N , 11-C ) :   1.2674 B(  8-C ,  9-C ) :   1.4689
B(  8-C , 19-H ) :   0.9585 B(  9-C , 10-N ) :   1.2958 B(  9-C , 20-H ) :   0.9721
B( 10-N , 11-C ) :   1.5993 B( 11-C , 21-H ) :   0.9479

Dispersion correction           -0.008582519
FINAL SINGLE POINT ENERGY      -496.456067211687

DIPOLE MOMENT
-------------

Method             : SCF
Type of density    : Electron Density
Multiplicity       :   1
Irrep              :   0
Energy             :  -496.4604851425384595 Eh
Relativity type    :
Basis              : AO
                                X                 Y                 Z
Electronic contribution:      2.486338816       0.332624904       0.135086499
Nuclear contribution   :     -4.063619231      -1.395617963      -1.261890517
                        -----------------------------------------
Total Dipole Moment    :     -1.577280415      -1.062993059      -1.126804019
                        -----------------------------------------
Magnitude (a.u.)       :      2.210758930
Magnitude (Debye)      :      5.619302627

Rotational constants in cm-1:             0.085641             0.018147             0.016923
Rotational constants in MHz :          2567.441843           544.021848           507.341148

                             ****ORCA TERMINATED NORMALLY****
TOTAL RUN TIME: 0 days 0 hours 1 minutes 2 seconds 83 msec
