                         Program Version 6.0.0  -   RELEASE  -
|  1> ! r2scan-3c def2/J RI DEFGRID2 scfconv6 printgap
|  2> %output
|  3>     printlevel normal
|  4> end
|  5> * xyz 0 1
|  6> C 1.9470667286 -0.2111031232 0.5222275351
|  7> O 1.0066580107 -0.2731045272 -0.5299248219
|  8> C 0.0280182869 0.7518925383 -0.5106512784
|  9> C -1.1179664841 0.4747322635 0.4662889032
| 10> N -1.9137676987 -0.6433331146 -0.0207867895
| 11> H 2.6636772323 -1.0060864149 0.3296702074
| 12> H 1.480187467 -0.3713522311 1.4990216949
| 13> H 2.460137034 0.7568475298 0.5262814113
| 14> H 0.4985062454 1.7148671527 -0.2750815147
| 15> H -0.373816029 0.7802480583 -1.5251173001
| 16> H -0.7012767658 0.3070892415 1.4737977317
| 17> H -1.7608868553 1.3575539601 0.5102362874
| 18> H -2.5694973549 -0.9426744018 0.6917403438
| 19> H -1.295199096 -1.4224921091 -0.2242967953
| 20> *
| 21>
| 22>                          ****END OF INPUT****

CARTESIAN COORDINATES (ANGSTROEM)
---------------------------------
  C      1.947067   -0.211103    0.522228
  O      1.006658   -0.273105   -0.529925
  C      0.028018    0.751893   -0.510651
  C     -1.117966    0.474732    0.466289
  N     -1.913768   -0.643333   -0.020787
  H      2.663677   -1.006086    0.329670
  H      1.480187   -0.371352    1.499022
  H      2.460137    0.756848    0.526281
  H      0.498506    1.714867   -0.275082
  H     -0.373816    0.780248   -1.525117
  H     -0.701277    0.307089    1.473798
  H     -1.760887    1.357554    0.510236
  H     -2.569497   -0.942674    0.691740
  H     -1.295199   -1.422492   -0.224297

 Total Charge           Charge          ....    0
 Multiplicity           Mult            ....    1
 Number of Electrons    NEL             ....   42
 Basis Dimension        Dim             ....  150

ORBITAL ENERGIES
----------------

  NO   OCC          E(Eh)            E(eV)
   0   2.0000     -18.953022      -515.7380
   1   2.0000     -14.133018      -384.5790
   2   2.0000     -10.073591      -274.1163
   3   2.0000     -10.072043      -274.0742
   4   2.0000     -10.052143      -273.5327
   5   2.0000      -0.997182       -27.1347
   6   2.0000      -0.844219       -22.9724
   7   2.0000      -0.703261       -19.1367
   8   2.0000      -0.641313       -17.4510
   9   2.0000      -0.557818       -15.1790
  10   2.0000      -0.468466       -12.7476
  11   2.0000      -0.457594       -12.4518
  12   2.0000      -0.443240       -12.0612
  13   2.0000      -0.412029       -11.2119
  14   2.0000      -0.396287       -10.7835
  15   2.0000      -0.359879        -9.7928
  16   2.0000      -0.344296        -9.3688
  17   2.0000      -0.334463        -9.1012
  18   2.0000      -0.280872        -7.6429
  19   2.0000      -0.226610        -6.1664
  20   2.0000      -0.203023        -5.5245
  21   0.0000       0.065596         1.7850
  22   0.0000       0.088565         2.4100
  23   0.0000       0.102734         2.7955
  24   0.0000       0.117595         3.1999
  25   0.0000       0.136166         3.7053

MULLIKEN ATOMIC CHARGES
-----------------------
   0 C :   -0.289758
   1 O :   -0.260619
   2 C :   -0.155410
   3 C :   -0.179268
   4 N :   -0.562709
   5 H :    0.148599
   6 H :    0.129892
   7 H :    0.134665
   8 H :    0.120283
   9 H :    0.151202
  10 H :    0.121040
  11 H :    0.138721
  12 H :    0.240357
  13 H :    0.263004
Sum of atomic charges:    0.0000000

LOEWDIN ATOMIC CHARGES
----------------------
   0 C :   -0.076400
   1 O :   -0.785558
   2 C :    0.024822
   3 C :   -0.066981
   4 N :   -0.734106
   5 H :    0.175328
   6 H :    0.151711
   7 H :    0.156074
   8 H :    0.164264
   9 H :    0.187695
  10 H :    0.150755
  11 H :    0.173418
  12 H :    0.235644
  13 H :    0.243335

  Mayer bond orders larger than 0.100000
B(  0-C ,  1-O ) :   0.8934 B(  0-C ,  5-H ) :   0.9739 B(  0-C ,  6-H ) :   0.9591
B(  0-C ,  7-H ) :   0.9702 B(  1-O ,  2-C ) :   0.9113 B(  2-C ,  3-C ) :   0.9514
B(  2-C ,  8-H ) :   0.9657 B(  2-C ,  9-H ) :   0.9627 B(  3-C ,  4-N ) :   0.9272
B(  3-C , 10-H ) :   0.9678 B(  3-C , 11-H ) :   0.9707 B(  4-N , 12-H ) :   0.9184
B(  4-N , 13-H ) :   0.9102

Dispersion correction           -0.002839681
FINAL SINGLE POINT ENERGY      -249.617174621064

DIPOLE MOMENT
-------------

Method             : SCF
Type of density    : Electron Density
Multiplicity       :   1
Irrep              :   0
Energy             :  -249.6270816867607607 Eh
Relativity type    :
Basis              : AO
                                X                 Y                 Z
Electronic contribution:     -0.160583881      -0.924270309      -2.059875266
Nuclear contribution   :      0.381420246       1.093809207       2.812385331
                        -----------------------------------------
Total Dipole Moment    :      0.220836365       0.169538898       0.752510065
                        -----------------------------------------
Magnitude (a.u.)       :      0.802361225
Magnitude (Debye)      :      2.039440158

Rotational constants in cm-1:             0.345841             0.095340             0.091705
Rotational constants in MHz :         10368.051831          2858.214351          2749.242669

                             ****ORCA TERMINATED NORMALLY****
TOTAL RUN TIME: 0 days 0 hours 0 minutes 16 seconds 91 msec
