                         Program Version 6.0.0  -   RELEASE  -
|  1> ! r2scan-3c def2/J RI DEFGRID2 scfconv6 printgap
|  2> %output
|  3>     printlevel normal
|  4> end
|  5> %cpcm
|  6>     smd true
|  7>     smdsolvent "water"
|  8> end
|  9> * xyz 0 1
| 10> C 1.9470667286 -0.2111031232 0.5222275351
| 11> O 1.0066580107 -0.2731045272 -0.5299248219
| 12> C 0.0280182869 0.7518925383 -0.5106512784
| 13> C -1.1179664841 0.4747322635 0.4662889032
| 14> N -1.9137676987 -0.6433331146 -0.0207867895
| 15> H 2.6636772323 -1.0060864149 0.3296702074
| 16> H 1.480187467 -0.3713522311 1.4990216949
| 17> H 2.460137034 0.7568475298 0.5262814113
| 18> H 0.4985062454 1.7148671527 -0.2750815147
| 19> H -0.373816029 0.7802480583 -1.5251173001
| 20> H -0.7012767658 0.3070892415 1.4737977317
| 21> H -1.7608868553 1.3575539601 0.5102362874
| 22> H -2.5694973549 -0.9426744018 0.6917403438
| 23> H -1.295199096 -1.4224921091 -0.2242967953
| 24> *
| 25>
| 26>                          ****END OF INPUT****

CARTESIAN COORDINATES (ANGSTROEM)
---------------------------------
  C      1.947067   -0.211103    0.522228
  O      1.006658   -0.273105   -0.529925
  C      0.028018    0.751893   -0.510651
  C     -1.117966    0.474732    0.466289
  N     -1.913768   -0.643333   -0.020787
  H      2.663677   -1.006086    0.329670
  H      1.480187   -0.371352    1.499022
  H      2.460137    0.756848    0.526281
  H      0.498506    1.714867   -0.275082
  H     -0.373816    0.780248   -1.525117
  H     -0.701277    0.307089    1.473798
  H     -1.760887    1.357554    0.510236
  H     -2.569497   -0.942674    0.691740
  H     -1.295199   -1.422492   -0.224297

 Total Charge           Charge          ....    0
 Multiplicity           Mult            ....    1
 Number of Electrons    NEL             ....   42
 Basis Dimension        Dim             ....  150

ORBITAL ENERGIES
----------------

  NO   OCC          E(Eh)            E(eV)
   0   2.0000     -18.956501      -515.8326
   1   2.0000     -14.131224      -384.5301
   2   2.0000     -10.068553      -273.9793
   3   2.0000     -10.062307      -273.8093
   4   2.0000     -10.044501      -273.3248
   5   2.0000      -0.999201       -27.1896
   6   2.0000      -0.840891       -22.8818
   7   2.0000      -0.698590       -19.0096
   8   2.0000      -0.634511       -17.2659
   9   2.0000      -0.551853       -15.0167
  10   2.0000      -0.463932       -12.6242
  11   2.0000      -0.453926       -12.3520
  12   2.0000      -0.439561       -11.9611
  13   2.0000      -0.406125       -11.0512
  14   2.0000      -0.391452       -10.6520
  15   2.0000      -0.353503        -9.6193
  16   2.0000      -0.337973        -9.1967
  17   2.0000      -0.327940        -8.9237
  18   2.0000      -0.282545        -7.6884
  19   2.0000      -0.228127        -6.2077
  20   2.0000      -0.205200        -5.5838
  21   0.0000       0.070233         1.9111
  22   0.0000       0.097808         2.6615
  23   0.0000       0.114601         3.1184
  24   0.0000       0.127086         3.4582
  25   0.0000       0.144670         3.9367

MULLIKEN ATOMIC CHARGES
-----------------------
   0 C :   -0.308850
   1 O :   -0.319545
   2 C :   -0.158822
   3 C :   -0.207569
   4 N :   -0.643908
   5 H :    0.162446
   6 H :    0.151524
   7 H :    0.154218
   8 H :    0.146579
   9 H :    0.153573
  10 H :    0.143369
  11 H :    0.155355
  12 H :    0.285550
  13 H :    0.286080
Sum of atomic charges:    0.0000000

LOEWDIN ATOMIC CHARGES
----------------------
   0 C :   -0.076621
   1 O :   -0.822781
   2 C :    0.023175
   3 C :   -0.066685
   4 N :   -0.758368
   5 H :    0.179802
   6 H :    0.161692
   7 H :    0.164928
   8 H :    0.175444
   9 H :    0.186424
  10 H :    0.160430
  11 H :    0.179094
  12 H :    0.246415
  13 H :    0.247049

  Mayer bond orders larger than 0.100000
B(  0-C ,  1-O ) :   0.8839 B(  0-C ,  5-H ) :   0.9674 B(  0-C ,  6-H ) :   0.9541
B(  0-C ,  7-H ) :   0.9642 B(  1-O ,  2-C ) :   0.9032 B(  2-C ,  3-C ) :   0.9430
B(  2-C ,  8-H ) :   0.9597 B(  2-C ,  9-H ) :   0.9616 B(  3-C ,  4-N ) :   0.9341
B(  3-C , 10-H ) :   0.9701 B(  3-C , 11-H ) :   0.9677 B(  4-N , 12-H ) :   0.9010
B(  4-N , 13-H ) :   0.8991

Dispersion correction           -0.002839681
FINAL SINGLE POINT ENERGY      -249.625770944243

DIPOLE MOMENT
-------------

Method             : SCF
Type of density    : Electron Density
Multiplicity       :   1
Irrep              :   0
Energy             :  -249.6356780099388857 Eh
Relativity type    :
Basis              : AO
                                X                 Y                 Z
Electronic contribution:     -0.090584563      -0.793915529      -1.707638030
Nuclear contribution   :      0.381420246       1.093809207       2.812385331
                        -----------------------------------------
Total Dipole Moment    :      0.290835682       0.299893679       1.104747301
                        -----------------------------------------
Magnitude (a.u.)       :      1.181096191
Magnitude (Debye)      :      3.002107935

Rotational constants in cm-1:             0.345841             0.095340             0.091705
Rotational constants in MHz :         10368.051831          2858.214351          2749.242669

                             ****ORCA TERMINATED NORMALLY****
TOTAL RUN TIME: 0 days 0 hours 0 minutes 18 seconds 160 msec
