                         Program Version 6.0.0  -   RELEASE  -
|  1> ! r2scan-3c def2/J RI DEFGRID2 scfconv6 printgap
|  2> %output
|  3>     printlevel normal
|  4> end
|  5> * xyz 0 1
|  6> C 1.7370076151 -1.4236858773 -0.1510161312
|  7> C 1.0546951984 -0.1283745297 0.2850550863
|  8> C 1.9899219663 1.0603455879 0.0685393807
|  9> C -0.2788399678 0.0731607204 -0.461823467
| 10> C -1.4727121061 0.1115197802 0.4930463022
| 11> O -2.7122879037 0.2273605794 -0.1749284483
| 12> H 1.084504817 -2.2759149224 0.0226991246
| 13> H 2.6567258247 -1.5765502182 0.4087708998
| 14> H 1.9824506552 -1.3844038204 -1.2100247124
| 15> H 0.8426723014 -0.2017547388 1.357641823
| 16> H 2.9138445144 0.922915592 0.6253234247
| 17> H 1.522237563 1.9823883101 0.4054946418
| 18> H 2.2374355841 1.1602040501 -0.9860355046
| 19> H -0.4402229909 -0.7367570454 -1.175140942
| 20> H -0.2503084129 1.0070624691 -1.0269678094
| 21> H -1.5366465228 -0.8249022646 1.0532147891
| 22> H -1.3529660228 0.9348785267 1.2113240346
| 23> H -2.7138241293 1.042597279 -0.6956614617
| 24> *
| 25>
| 26>                          ****END OF INPUT****

CARTESIAN COORDINATES (ANGSTROEM)
---------------------------------
  C      1.737008   -1.423686   -0.151016
  C      1.054695   -0.128375    0.285055
  C      1.989922    1.060346    0.068539
  C     -0.278840    0.073161   -0.461823
  C     -1.472712    0.111520    0.493046
  O     -2.712288    0.227361   -0.174928
  H      1.084505   -2.275915    0.022699
  H      2.656726   -1.576550    0.408771
  H      1.982451   -1.384404   -1.210025
  H      0.842672   -0.201755    1.357642
  H      2.913845    0.922916    0.625323
  H      1.522238    1.982388    0.405495
  H      2.237436    1.160204   -0.986036
  H     -0.440223   -0.736757   -1.175141
  H     -0.250308    1.007062   -1.026968
  H     -1.536647   -0.824902    1.053215
  H     -1.352966    0.934879    1.211324
  H     -2.713824    1.042597   -0.695661

 Total Charge           Charge          ....    0
 Multiplicity           Mult            ....    1
 Number of Electrons    NEL             ....   50
 Basis Dimension        Dim             ....  179

ORBITAL ENERGIES
----------------

  NO   OCC          E(Eh)            E(eV)
   0   2.0000     -18.945736      -515.5397
   1   2.0000     -10.073943      -274.1259
   2   2.0000     -10.038298      -273.1560
   3   2.0000     -10.024325      -272.7758
   4   2.0000     -10.018763      -272.6244
   5   2.0000     -10.017684      -272.5951
   6   2.0000      -0.982379       -26.7319
   7   2.0000      -0.779181       -21.2026
   8   2.0000      -0.692207       -18.8359
   9   2.0000      -0.653039       -17.7701
  10   2.0000      -0.593227       -16.1425
  11   2.0000      -0.533903       -14.5282
  12   2.0000      -0.473026       -12.8717
  13   2.0000      -0.432893       -11.7796
  14   2.0000      -0.421822       -11.4784
  15   2.0000      -0.406452       -11.0601
  16   2.0000      -0.379314       -10.3216
  17   2.0000      -0.360646        -9.8137
  18   2.0000      -0.358446        -9.7538
  19   2.0000      -0.332399        -9.0450
  20   2.0000      -0.317867        -8.6496
  21   2.0000      -0.297715        -8.1012
  22   2.0000      -0.295753        -8.0479
  23   2.0000      -0.281485        -7.6596
  24   2.0000      -0.233220        -6.3462
  25   0.0000       0.061431         1.6716
  26   0.0000       0.077819         2.1176
  27   0.0000       0.117629         3.2008
  28   0.0000       0.122396         3.3306
  29   0.0000       0.123686         3.3657

MULLIKEN ATOMIC CHARGES
-----------------------
   0 C :   -0.501699
   1 C :    0.000972
   2 C :   -0.501321
   3 C :   -0.273751
   4 C :   -0.205015
   5 O :   -0.413833
   6 H :    0.148317
   7 H :    0.142602
   8 H :    0.151374
   9 H :    0.148175
  10 H :    0.142707
  11 H :    0.145952
  12 H :    0.151425
  13 H :    0.162721
  14 H :    0.136796
  15 H :    0.140576
  16 H :    0.131479
  17 H :    0.292522
Sum of atomic charges:   -0.0000000

LOEWDIN ATOMIC CHARGES
----------------------
   0 C :   -0.415689
   1 C :   -0.246483
   2 C :   -0.416894
   3 C :   -0.290830
   4 C :    0.001318
   5 O :   -0.618196
   6 H :    0.153518
   7 H :    0.151910
   8 H :    0.153515
   9 H :    0.156168
  10 H :    0.152242
  11 H :    0.152066
  12 H :    0.153283
  13 H :    0.165268
  14 H :    0.155695
  15 H :    0.174947
  16 H :    0.153801
  17 H :    0.264361

  Mayer bond orders larger than 0.100000
B(  0-C ,  1-C ) :   0.9074 B(  0-C ,  6-H ) :   0.9734 B(  0-C ,  7-H ) :   0.9746
B(  0-C ,  8-H ) :   0.9856 B(  1-C ,  2-C ) :   0.9022 B(  1-C ,  3-C ) :   0.8174
B(  1-C ,  9-H ) :   0.9629 B(  2-C , 10-H ) :   0.9732 B(  2-C , 11-H ) :   0.9751
B(  2-C , 12-H ) :   0.9857 B(  3-C ,  4-C ) :   0.8896 B(  3-C , 13-H ) :   0.9728
B(  3-C , 14-H ) :   0.9715 B(  4-C ,  5-O ) :   0.9552 B(  4-C , 15-H ) :   0.9750
B(  4-C , 16-H ) :   0.9838 B(  5-O , 17-H ) :   0.8964

Dispersion correction           -0.004231125
FINAL SINGLE POINT ENERGY      -272.894599024121

DIPOLE MOMENT
-------------

Method             : SCF
Type of density    : Electron Density
Multiplicity       :   1
Irrep              :   0
Energy             :  -272.9001508460107743 Eh
Relativity type    :
Basis              : AO
                                X                 Y                 Z
Electronic contribution:     -5.959875178       0.327708901      -0.032563954
Nuclear contribution   :      6.476142152       0.050060174      -0.011378816
                        -----------------------------------------
Total Dipole Moment    :      0.516266974       0.377769074      -0.043942771
                        -----------------------------------------
Magnitude (a.u.)       :      0.641226972
Magnitude (Debye)      :      1.629869435

Rotational constants in cm-1:             0.225140             0.055737             0.049274
Rotational constants in MHz :          6749.536625          1670.957983          1477.184289

                             ****ORCA TERMINATED NORMALLY****
TOTAL RUN TIME: 0 days 0 hours 0 minutes 24 seconds 159 msec
