                         Program Version 6.0.0  -   RELEASE  -
|  1> ! r2scan-3c def2/J RI DEFGRID2 scfconv6 printgap
|  2> %output
|  3>     printlevel normal
|  4> end
|  5> %cpcm
|  6>     smd true
|  7>     smdsolvent "water"
|  8> end
|  9> * xyz 0 1
| 10> C 1.7370076151 -1.4236858773 -0.1510161312
| 11> C 1.0546951984 -0.1283745297 0.2850550863
| 12> C 1.9899219663 1.0603455879 0.0685393807
| 13> C -0.2788399678 0.0731607204 -0.461823467
| 14> C -1.4727121061 0.1115197802 0.4930463022
| 15> O -2.7122879037 0.2273605794 -0.1749284483
| 16> H 1.084504817 -2.2759149224 0.0226991246
| 17> H 2.6567258247 -1.5765502182 0.4087708998
| 18> H 1.9824506552 -1.3844038204 -1.2100247124
| 19> H 0.8426723014 -0.2017547388 1.357641823
| 20> H 2.9138445144 0.922915592 0.6253234247
| 21> H 1.522237563 1.9823883101 0.4054946418
| 22> H 2.2374355841 1.1602040501 -0.9860355046
| 23> H -0.4402229909 -0.7367570454 -1.175140942
| 24> H -0.2503084129 1.0070624691 -1.0269678094
| 25> H -1.5366465228 -0.8249022646 1.0532147891
| 26> H -1.3529660228 0.9348785267 1.2113240346
| 27> H -2.7138241293 1.042597279 -0.6956614617
| 28> *
| 29>
| 30>                          ****END OF INPUT****

CARTESIAN COORDINATES (ANGSTROEM)
---------------------------------
  C      1.737008   -1.423686   -0.151016
  C      1.054695   -0.128375    0.285055
  C      1.989922    1.060346    0.068539
  C     -0.278840    0.073161   -0.461823
  C     -1.472712    0.111520    0.493046
  O     -2.712288    0.227361   -0.174928
  H      1.084505   -2.275915    0.022699
  H      2.656726   -1.576550    0.408771
  H      1.982451   -1.384404   -1.210025
  H      0.842672   -0.201755    1.357642
  H      2.913845    0.922916    0.625323
  H      1.522238    1.982388    0.405495
  H      2.237436    1.160204   -0.986036
  H     -0.440223   -0.736757   -1.175141
  H     -0.250308    1.007062   -1.026968
  H     -1.536647   -0.824902    1.053215
  H     -1.352966    0.934879    1.211324
  H     -2.713824    1.042597   -0.695661

 Total Charge           Charge          ....    0
 Multiplicity           Mult            ....    1
 Number of Electrons    NEL             ....   50
 Basis Dimension        Dim             ....  179

ORBITAL ENERGIES
----------------

  NO   OCC          E(Eh)            E(eV)
   0   2.0000     -18.949631      -515.6457
   1   2.0000     -10.067308      -273.9454
   2   2.0000     -10.027139      -272.8523
   3   2.0000     -10.013921      -272.4926
   4   2.0000     -10.006624      -272.2941
   5   2.0000     -10.006581      -272.2929
   6   2.0000      -0.985004       -26.8033
   7   2.0000      -0.768281       -20.9060
   8   2.0000      -0.683840       -18.6082
   9   2.0000      -0.642020       -17.4703
  10   2.0000      -0.586697       -15.9648
  11   2.0000      -0.523013       -14.2319
  12   2.0000      -0.468750       -12.7553
  13   2.0000      -0.424364       -11.5475
  14   2.0000      -0.413762       -11.2590
  15   2.0000      -0.396146       -10.7797
  16   2.0000      -0.373463       -10.1625
  17   2.0000      -0.355928        -9.6853
  18   2.0000      -0.347317        -9.4510
  19   2.0000      -0.325007        -8.8439
  20   2.0000      -0.308485        -8.3943
  21   2.0000      -0.289455        -7.8765
  22   2.0000      -0.284194        -7.7333
  23   2.0000      -0.276251        -7.5172
  24   2.0000      -0.236779        -6.4431
  25   0.0000       0.075703         2.0600
  26   0.0000       0.090990         2.4760
  27   0.0000       0.128385         3.4935
  28   0.0000       0.132153         3.5961
  29   0.0000       0.133989         3.6460

MULLIKEN ATOMIC CHARGES
-----------------------
   0 C :   -0.543865
   1 C :    0.017744
   2 C :   -0.541697
   3 C :   -0.289285
   4 C :   -0.200101
   5 O :   -0.506521
   6 H :    0.157556
   7 H :    0.153227
   8 H :    0.160996
   9 H :    0.156878
  10 H :    0.152739
  11 H :    0.157683
  12 H :    0.161004
  13 H :    0.159540
  14 H :    0.158551
  15 H :    0.152669
  16 H :    0.143251
  17 H :    0.349632
Sum of atomic charges:   -0.0000000

LOEWDIN ATOMIC CHARGES
----------------------
   0 C :   -0.424178
   1 C :   -0.242451
   2 C :   -0.424620
   3 C :   -0.289964
   4 C :    0.000591
   5 O :   -0.657775
   6 H :    0.155359
   7 H :    0.153978
   8 H :    0.155575
   9 H :    0.159363
  10 H :    0.153942
  11 H :    0.155291
  12 H :    0.155587
  13 H :    0.163764
  14 H :    0.163105
  15 H :    0.177647
  16 H :    0.161400
  17 H :    0.283386

  Mayer bond orders larger than 0.100000
B(  0-C ,  1-C ) :   0.8982 B(  0-C ,  6-H ) :   0.9718 B(  0-C ,  7-H ) :   0.9732
B(  0-C ,  8-H ) :   0.9831 B(  1-C ,  2-C ) :   0.8968 B(  1-C ,  3-C ) :   0.8183
B(  1-C ,  9-H ) :   0.9636 B(  2-C , 10-H ) :   0.9728 B(  2-C , 11-H ) :   0.9719
B(  2-C , 12-H ) :   0.9830 B(  3-C ,  4-C ) :   0.8984 B(  3-C , 13-H ) :   0.9719
B(  3-C , 14-H ) :   0.9699 B(  4-C ,  5-O ) :   0.9399 B(  4-C , 15-H ) :   0.9725
B(  4-C , 16-H ) :   0.9745 B(  5-O , 17-H ) :   0.8683

Dispersion correction           -0.004231125
FINAL SINGLE POINT ENERGY      -272.900999310048

DIPOLE MOMENT
-------------

Method             : SCF
Type of density    : Electron Density
Multiplicity       :   1
Irrep              :   0
Energy             :  -272.9065511319377038 Eh
Relativity type    :
Basis              : AO
                                X                 Y                 Z
Electronic contribution:     -5.800790230       0.513769694      -0.036103424
Nuclear contribution   :      6.476142152       0.050060174      -0.011378816
                        -----------------------------------------
Total Dipole Moment    :      0.675351922       0.563829867      -0.047482240
                        -----------------------------------------
Magnitude (a.u.)       :      0.881055561
Magnitude (Debye)      :      2.239465262

Rotational constants in cm-1:             0.225140             0.055737             0.049274
Rotational constants in MHz :          6749.536625          1670.957983          1477.184289

                             ****ORCA TERMINATED NORMALLY****
TOTAL RUN TIME: 0 days 0 hours 0 minutes 29 seconds 792 msec
