                         Program Version 6.0.0  -   RELEASE  -
|  1> ! r2scan-3c def2/J RI DEFGRID2 scfconv6 printgap
|  2> %output
|  3>     printlevel normal
|  4> end
|  5> * xyz 0 1
|  6> C -2.3974989007 -0.629489163 -1.0050815777
|  7> C -1.843582296 0.2662599204 0.1005054477
|  8> C -1.5450450439 -0.5411614492 1.3619798965
|  9> C -0.5907356014 1.0057050873 -0.3833187436
| 10> O 0.4616177595 0.0892875587 -0.7075693453
| 11> C 1.5484334836 0.0558024435 0.0535658216
| 12> O 1.7235057099 0.7719333802 1.0182313832
| 13> C 2.5321276589 -0.9603468146 -0.4472878631
| 14> H -3.27570755 -1.162592833 -0.6516510441
| 15> H -1.6471622336 -1.355041342 -1.308612856
| 16> H -2.6762779456 -0.0371462977 -1.8725291284
| 17> H -2.5815542935 1.0375460584 0.3422265246
| 18> H -1.0990709621 0.0910907763 2.127252956
| 19> H -0.8509035799 -1.3498147353 1.1410981262
| 20> H -2.4596772439 -0.9738867578 1.7577202409
| 21> H -0.8034282284 1.5555073334 -1.3029562479
| 22> H -0.2272447491 1.6942817881 0.3858816879
| 23> H 2.0270589715 -1.9057220359 -0.6207056673
| 24> H 3.3333269753 -1.0784087691 0.2745211916
| 25> H 2.9386875354 -0.6148538173 -1.394624968
| 26> *
| 27>
| 28>                          ****END OF INPUT****

CARTESIAN COORDINATES (ANGSTROEM)
---------------------------------
  C     -2.397499   -0.629489   -1.005082
  C     -1.843582    0.266260    0.100505
  C     -1.545045   -0.541161    1.361980
  C     -0.590736    1.005705   -0.383319
  O      0.461618    0.089288   -0.707569
  C      1.548433    0.055802    0.053566
  O      1.723506    0.771933    1.018231
  C      2.532128   -0.960347   -0.447288
  H     -3.275708   -1.162593   -0.651651
  H     -1.647162   -1.355041   -1.308613
  H     -2.676278   -0.037146   -1.872529
  H     -2.581554    1.037546    0.342227
  H     -1.099071    0.091091    2.127253
  H     -0.850904   -1.349815    1.141098
  H     -2.459677   -0.973887    1.757720
  H     -0.803428    1.555507   -1.302956
  H     -0.227245    1.694282    0.385882
  H      2.027059   -1.905722   -0.620706
  H      3.333327   -1.078409    0.274521
  H      2.938688   -0.614854   -1.394625

 Total Charge           Charge          ....    0
 Multiplicity           Mult            ....    1
 Number of Electrons    NEL             ....   64
 Basis Dimension        Dim             ....  222

ORBITAL ENERGIES
----------------

  NO   OCC          E(Eh)            E(eV)
   0   2.0000     -18.997097      -516.9373
   1   2.0000     -18.928574      -515.0727
   2   2.0000     -10.156795      -276.3804
   3   2.0000     -10.084570      -274.4151
   4   2.0000     -10.044593      -273.3273
   5   2.0000     -10.039573      -273.1907
   6   2.0000     -10.019636      -272.6481
   7   2.0000     -10.018550      -272.6186
   8   2.0000      -1.072489       -29.1839
   9   2.0000      -0.976572       -26.5739
  10   2.0000      -0.782344       -21.2887
  11   2.0000      -0.727464       -19.7953
  12   2.0000      -0.662985       -18.0407
  13   2.0000      -0.654816       -17.8184
  14   2.0000      -0.567492       -15.4422
  15   2.0000      -0.508335       -13.8325
  16   2.0000      -0.466576       -12.6962
  17   2.0000      -0.462980       -12.5983
  18   2.0000      -0.441799       -12.0220
  19   2.0000      -0.421475       -11.4689
  20   2.0000      -0.404538       -11.0081
  21   2.0000      -0.400698       -10.9035
  22   2.0000      -0.377293       -10.2667
  23   2.0000      -0.364056        -9.9065
  24   2.0000      -0.353610        -9.6222
  25   2.0000      -0.349116        -9.4999
  26   2.0000      -0.326623        -8.8879
  27   2.0000      -0.316234        -8.6052
  28   2.0000      -0.307760        -8.3746
  29   2.0000      -0.295968        -8.0537
  30   2.0000      -0.266473        -7.2511
  31   2.0000      -0.237435        -6.4609
  32   0.0000      -0.014450        -0.3932
  33   0.0000       0.068023         1.8510
  34   0.0000       0.090875         2.4728
  35   0.0000       0.105351         2.8668
  36   0.0000       0.124505         3.3880

MULLIKEN ATOMIC CHARGES
-----------------------
   0 C :   -0.505022
   1 C :    0.014396
   2 C :   -0.508983
   3 C :   -0.221588
   4 O :   -0.173792
   5 C :    0.441416
   6 O :   -0.436148
   7 C :   -0.521912
   8 H :    0.145418
   9 H :    0.163532
  10 H :    0.142714
  11 H :    0.145639
  12 H :    0.165615
  13 H :    0.149697
  14 H :    0.149314
  15 H :    0.146745
  16 H :    0.190667
  17 H :    0.165103
  18 H :    0.177497
  19 H :    0.169692
Sum of atomic charges:   -0.0000000

LOEWDIN ATOMIC CHARGES
----------------------
   0 C :   -0.410819
   1 C :   -0.220318
   2 C :   -0.405980
   3 C :    0.039011
   4 O :   -0.602769
   5 C :    0.354165
   6 O :   -0.440082
   7 C :   -0.335281
   8 H :    0.153855
   9 H :    0.161707
  10 H :    0.154210
  11 H :    0.162827
  12 H :    0.163157
  13 H :    0.158940
  14 H :    0.153825
  15 H :    0.181567
  16 H :    0.201213
  17 H :    0.176177
  18 H :    0.174658
  19 H :    0.179938

  Mayer bond orders larger than 0.100000
B(  0-C ,  1-C ) :   0.9403 B(  0-C ,  8-H ) :   0.9726 B(  0-C ,  9-H ) :   0.9843
B(  0-C , 10-H ) :   0.9701 B(  1-C ,  2-C ) :   0.8914 B(  1-C ,  3-C ) :   0.9556
B(  1-C , 11-H ) :   0.9422 B(  2-C , 12-H ) :   0.9679 B(  2-C , 13-H ) :   0.9813
B(  2-C , 14-H ) :   0.9707 B(  3-C ,  4-O ) :   0.7933 B(  3-C , 15-H ) :   0.9600
B(  3-C , 16-H ) :   0.9593 B(  4-O ,  5-C ) :   1.0504 B(  5-C ,  6-O ) :   1.8353
B(  5-C ,  7-C ) :   0.9583 B(  7-C , 17-H ) :   0.9584 B(  7-C , 18-H ) :   0.9898
B(  7-C , 19-H ) :   0.9446

Dispersion correction           -0.005416975
FINAL SINGLE POINT ENERGY      -386.237712839833

DIPOLE MOMENT
-------------

Method             : SCF
Type of density    : Electron Density
Multiplicity       :   1
Irrep              :   0
Energy             :  -386.2443304058495528 Eh
Relativity type    :
Basis              : AO
                                X                 Y                 Z
Electronic contribution:      6.403056056       3.480831621       0.450537884
Nuclear contribution   :     -6.836811385      -3.832813090      -1.048372226
                        -----------------------------------------
Total Dipole Moment    :     -0.433755328      -0.351981469      -0.597834342
                        -----------------------------------------
Magnitude (a.u.)       :      0.818193461
Magnitude (Debye)      :      2.079682503

Rotational constants in cm-1:             0.119111             0.040596             0.037717
Rotational constants in MHz :          3570.864834          1217.027636          1130.727042

                             ****ORCA TERMINATED NORMALLY****
TOTAL RUN TIME: 0 days 0 hours 0 minutes 31 seconds 678 msec
