                         Program Version 6.0.0  -   RELEASE  -
|  1> ! r2scan-3c def2/J RI DEFGRID2 scfconv6 printgap
|  2> %output
|  3>     printlevel normal
|  4> end
|  5> %cpcm
|  6>     smd true
|  7>     smdsolvent "water"
|  8> end
|  9> * xyz 0 1
| 10> C -2.3974989007 -0.629489163 -1.0050815777
| 11> C -1.843582296 0.2662599204 0.1005054477
| 12> C -1.5450450439 -0.5411614492 1.3619798965
| 13> C -0.5907356014 1.0057050873 -0.3833187436
| 14> O 0.4616177595 0.0892875587 -0.7075693453
| 15> C 1.5484334836 0.0558024435 0.0535658216
| 16> O 1.7235057099 0.7719333802 1.0182313832
| 17> C 2.5321276589 -0.9603468146 -0.4472878631
| 18> H -3.27570755 -1.162592833 -0.6516510441
| 19> H -1.6471622336 -1.355041342 -1.308612856
| 20> H -2.6762779456 -0.0371462977 -1.8725291284
| 21> H -2.5815542935 1.0375460584 0.3422265246
| 22> H -1.0990709621 0.0910907763 2.127252956
| 23> H -0.8509035799 -1.3498147353 1.1410981262
| 24> H -2.4596772439 -0.9738867578 1.7577202409
| 25> H -0.8034282284 1.5555073334 -1.3029562479
| 26> H -0.2272447491 1.6942817881 0.3858816879
| 27> H 2.0270589715 -1.9057220359 -0.6207056673
| 28> H 3.3333269753 -1.0784087691 0.2745211916
| 29> H 2.9386875354 -0.6148538173 -1.394624968
| 30> *
| 31>
| 32>                          ****END OF INPUT****

CARTESIAN COORDINATES (ANGSTROEM)
---------------------------------
  C     -2.397499   -0.629489   -1.005082
  C     -1.843582    0.266260    0.100505
  C     -1.545045   -0.541161    1.361980
  C     -0.590736    1.005705   -0.383319
  O      0.461618    0.089288   -0.707569
  C      1.548433    0.055802    0.053566
  O      1.723506    0.771933    1.018231
  C      2.532128   -0.960347   -0.447288
  H     -3.275708   -1.162593   -0.651651
  H     -1.647162   -1.355041   -1.308613
  H     -2.676278   -0.037146   -1.872529
  H     -2.581554    1.037546    0.342227
  H     -1.099071    0.091091    2.127253
  H     -0.850904   -1.349815    1.141098
  H     -2.459677   -0.973887    1.757720
  H     -0.803428    1.555507   -1.302956
  H     -0.227245    1.694282    0.385882
  H      2.027059   -1.905722   -0.620706
  H      3.333327   -1.078409    0.274521
  H      2.938688   -0.614854   -1.394625

 Total Charge           Charge          ....    0
 Multiplicity           Mult            ....    1
 Number of Electrons    NEL             ....   64
 Basis Dimension        Dim             ....  222

ORBITAL ENERGIES
----------------

  NO   OCC          E(Eh)            E(eV)
   0   2.0000     -19.001844      -517.0665
   1   2.0000     -18.943095      -515.4678
   2   2.0000     -10.166012      -276.6313
   3   2.0000     -10.077259      -274.2162
   4   2.0000     -10.034319      -273.0477
   5   2.0000     -10.030172      -272.9349
   6   2.0000     -10.010138      -272.3897
   7   2.0000     -10.009011      -272.3590
   8   2.0000      -1.078737       -29.3539
   9   2.0000      -0.989303       -26.9203
  10   2.0000      -0.774538       -21.0763
  11   2.0000      -0.721958       -19.6455
  12   2.0000      -0.656478       -17.8637
  13   2.0000      -0.645731       -17.5712
  14   2.0000      -0.562175       -15.2976
  15   2.0000      -0.504488       -13.7278
  16   2.0000      -0.467389       -12.7183
  17   2.0000      -0.462400       -12.5825
  18   2.0000      -0.448448       -12.2029
  19   2.0000      -0.415344       -11.3021
  20   2.0000      -0.398745       -10.8504
  21   2.0000      -0.395299       -10.7566
  22   2.0000      -0.370913       -10.0930
  23   2.0000      -0.357495        -9.7279
  24   2.0000      -0.348433        -9.4813
  25   2.0000      -0.342407        -9.3174
  26   2.0000      -0.325855        -8.8670
  27   2.0000      -0.313276        -8.5247
  28   2.0000      -0.297925        -8.1070
  29   2.0000      -0.290804        -7.9132
  30   2.0000      -0.268941        -7.3183
  31   2.0000      -0.252739        -6.8774
  32   0.0000      -0.021027        -0.5722
  33   0.0000       0.073420         1.9979
  34   0.0000       0.101268         2.7556
  35   0.0000       0.113433         3.0867
  36   0.0000       0.133212         3.6249

MULLIKEN ATOMIC CHARGES
-----------------------
   0 C :   -0.549859
   1 C :    0.047944
   2 C :   -0.566626
   3 C :   -0.227646
   4 O :   -0.189212
   5 C :    0.483816
   6 O :   -0.523927
   7 C :   -0.560189
   8 H :    0.159319
   9 H :    0.165833
  10 H :    0.159515
  11 H :    0.164555
  12 H :    0.166830
  13 H :    0.165421
  14 H :    0.165460
  15 H :    0.173012
  16 H :    0.186457
  17 H :    0.193008
  18 H :    0.185823
  19 H :    0.200468
Sum of atomic charges:    0.0000000

LOEWDIN ATOMIC CHARGES
----------------------
   0 C :   -0.417691
   1 C :   -0.214759
   2 C :   -0.415377
   3 C :    0.043362
   4 O :   -0.603775
   5 C :    0.365009
   6 O :   -0.502618
   7 C :   -0.334141
   8 H :    0.157881
   9 H :    0.160715
  10 H :    0.158999
  11 H :    0.170344
  12 H :    0.160723
  13 H :    0.161567
  14 H :    0.158801
  15 H :    0.192310
  16 H :    0.200211
  17 H :    0.187899
  18 H :    0.178464
  19 H :    0.192077

  Mayer bond orders larger than 0.100000
B(  0-C ,  1-C ) :   0.9318 B(  0-C ,  8-H ) :   0.9700 B(  0-C ,  9-H ) :   0.9838
B(  0-C , 10-H ) :   0.9675 B(  1-C ,  2-C ) :   0.8676 B(  1-C ,  3-C ) :   0.9534
B(  1-C , 11-H ) :   0.9409 B(  2-C , 12-H ) :   0.9705 B(  2-C , 13-H ) :   0.9782
B(  2-C , 14-H ) :   0.9669 B(  3-C ,  4-O ) :   0.7799 B(  3-C , 15-H ) :   0.9527
B(  3-C , 16-H ) :   0.9557 B(  4-O ,  5-C ) :   1.0787 B(  5-C ,  6-O ) :   1.7635
B(  5-C ,  7-C ) :   0.9571 B(  7-C , 17-H ) :   0.9470 B(  7-C , 18-H ) :   0.9825
B(  7-C , 19-H ) :   0.9319

Dispersion correction           -0.005416975
FINAL SINGLE POINT ENERGY      -386.242517139554

DIPOLE MOMENT
-------------

Method             : SCF
Type of density    : Electron Density
Multiplicity       :   1
Irrep              :   0
Energy             :  -386.2491347055707251 Eh
Relativity type    :
Basis              : AO
                                X                 Y                 Z
Electronic contribution:      6.217646857       3.352192303       0.155725246
Nuclear contribution   :     -6.836811385      -3.832813090      -1.048372226
                        -----------------------------------------
Total Dipole Moment    :     -0.619164527      -0.480620787      -0.892646979
                        -----------------------------------------
Magnitude (a.u.)       :      1.187930841
Magnitude (Debye)      :      3.019480236

Rotational constants in cm-1:             0.119111             0.040596             0.037717
Rotational constants in MHz :          3570.864834          1217.027636          1130.727042

                             ****ORCA TERMINATED NORMALLY****
TOTAL RUN TIME: 0 days 0 hours 0 minutes 39 seconds 129 msec
