                         Program Version 6.0.0  -   RELEASE  -
|  1> ! r2scan-3c def2/J RI DEFGRID2 scfconv6 printgap
|  2> %output
|  3>     printlevel normal
|  4> end
|  5> * xyz 0 1
|  6> C 1.7683702206 -2.4384797266 0.8084350462
|  7> O 0.9685828667 -1.7960196147 -0.1912242838
|  8> C 0.6798636646 -0.4808355259 -0.0423635029
|  9> C 1.6473620173 0.5278855046 0.0249658178
| 10> C 1.2847511194 1.8622795767 0.1066515029
| 11> C -0.047663718 2.2299009609 0.0875510319
| 12> C -1.0189419133 1.2494076838 -0.0251234689
| 13> C -0.671790887 -0.0988067668 -0.0716202515
| 14> C -1.7189769535 -1.1583662768 -0.1868978189
| 15> O -2.6295033873 -1.1186972906 -0.985731041
| 16> O -1.5613253774 -2.1350638051 0.6814288042
| 17> Cl -2.6839028656 1.7070414846 -0.0652587941
| 18> Cl 3.3342873339 0.1345213369 -0.0640447095
| 19> H 2.5180276988 -3.0371409125 0.2938479047
| 20> H 1.1102372833 -3.0833208209 1.3935067153
| 21> H 2.2516408439 -1.7213109511 1.467782567
| 22> H 2.0536099108 2.6151924651 0.1652882753
| 23> H -0.3342424715 3.265863783 0.1444721326
| 24> H -2.2425065661 -2.8313395332 0.5885067793
| 25> *
| 26>
| 27>                          ****END OF INPUT****

CARTESIAN COORDINATES (ANGSTROEM)
---------------------------------
  C      1.768370   -2.438480    0.808435
  O      0.968583   -1.796020   -0.191224
  C      0.679864   -0.480836   -0.042364
  C      1.647362    0.527886    0.024966
  C      1.284751    1.862280    0.106652
  C     -0.047664    2.229901    0.087551
  C     -1.018942    1.249408   -0.025123
  C     -0.671791   -0.098807   -0.071620
  C     -1.718977   -1.158366   -0.186898
  O     -2.629503   -1.118697   -0.985731
  O     -1.561325   -2.135064    0.681429
  Cl    -2.683903    1.707041   -0.065259
  Cl     3.334287    0.134521   -0.064045
  H      2.518028   -3.037141    0.293848
  H      1.110237   -3.083321    1.393507
  H      2.251641   -1.721311    1.467783
  H      2.053610    2.615192    0.165288
  H     -0.334242    3.265864    0.144472
  H     -2.242507   -2.831340    0.588507

 Total Charge           Charge          ....    0
 Multiplicity           Mult            ....    1
 Number of Electrons    NEL             ....  112
 Basis Dimension        Dim             ....  308

ORBITAL ENERGIES
----------------

  NO   OCC          E(Eh)            E(eV)
   0   2.0000    -101.235648     -2754.7620
   1   2.0000    -101.225610     -2754.4889
   2   2.0000     -19.013667      -517.3882
   3   2.0000     -18.997384      -516.9451
   4   2.0000     -18.942835      -515.4607
   5   2.0000     -10.177255      -276.9372
   6   2.0000     -10.132488      -275.7190
   7   2.0000     -10.121325      -275.4153
   8   2.0000     -10.116399      -275.2812
   9   2.0000     -10.093819      -274.6668
  10   2.0000     -10.078717      -274.2558
  11   2.0000     -10.070774      -274.0397
  12   2.0000     -10.063442      -273.8402
  13   2.0000      -9.391476      -255.5550
  14   2.0000      -9.381546      -255.2848
  15   2.0000      -7.137844      -194.2306
  16   2.0000      -7.128040      -193.9638
  17   2.0000      -7.127728      -193.9553
  18   2.0000      -7.127139      -193.9393
  19   2.0000      -7.117890      -193.6876
  20   2.0000      -7.116950      -193.6621
  21   2.0000      -1.090544       -29.6752
  22   2.0000      -1.048037       -28.5185
  23   2.0000      -0.989487       -26.9253
  24   2.0000      -0.886584       -24.1252
  25   2.0000      -0.856037       -23.2940
  26   2.0000      -0.803012       -21.8511
  27   2.0000      -0.764424       -20.8010
  28   2.0000      -0.713090       -19.4042
  29   2.0000      -0.678734       -18.4693
  30   2.0000      -0.655315       -17.8320
  31   2.0000      -0.597815       -16.2674
  32   2.0000      -0.574745       -15.6396
  33   2.0000      -0.519493       -14.1361
  34   2.0000      -0.500925       -13.6309
  35   2.0000      -0.491463       -13.3734
  36   2.0000      -0.460862       -12.5407
  37   2.0000      -0.456090       -12.4108
  38   2.0000      -0.446106       -12.1392
  39   2.0000      -0.434425       -11.8213
  40   2.0000      -0.424275       -11.5451
  41   2.0000      -0.421662       -11.4740
  42   2.0000      -0.393209       -10.6998
  43   2.0000      -0.388464       -10.5706
  44   2.0000      -0.377160       -10.2631
  45   2.0000      -0.360844        -9.8191
  46   2.0000      -0.353239        -9.6121
  47   2.0000      -0.344622        -9.3776
  48   2.0000      -0.310741        -8.4557
  49   2.0000      -0.304158        -8.2766
  50   2.0000      -0.296072        -8.0565
  51   2.0000      -0.287130        -7.8132
  52   2.0000      -0.278517        -7.5788
  53   2.0000      -0.256768        -6.9870
  54   2.0000      -0.241378        -6.5682
  55   2.0000      -0.227305        -6.1853
  56   0.0000      -0.080963        -2.2031
  57   0.0000      -0.055368        -1.5067
  58   0.0000      -0.015618        -0.4250
  59   0.0000      -0.007293        -0.1985
  60   0.0000       0.011072         0.3013

MULLIKEN ATOMIC CHARGES
-----------------------
   0 C :   -0.255889
   1 O :   -0.238300
   2 C :    0.245372
   3 C :    0.018740
   4 C :   -0.148892
   5 C :   -0.257498
   6 C :    0.098908
   7 C :    0.009932
   8 C :    0.278064
   9 O :   -0.374866
  10 O :   -0.298895
  11 Cl:   -0.093653
  12 Cl:   -0.122316
  13 H :    0.157583
  14 H :    0.157015
  15 H :    0.154259
  16 H :    0.165750
  17 H :    0.166174
  18 H :    0.338512
Sum of atomic charges:   -0.0000000

LOEWDIN ATOMIC CHARGES
----------------------
   0 C :   -0.051523
   1 O :   -0.676821
   2 C :    0.201225
   3 C :   -0.153718
   4 C :   -0.145326
   5 C :   -0.171400
   6 C :   -0.127440
   7 C :   -0.012843
   8 C :    0.362128
   9 O :   -0.403333
  10 O :   -0.368713
  11 Cl:    0.196210
  12 Cl:    0.162410
  13 H :    0.175506
  14 H :    0.169814
  15 H :    0.173428
  16 H :    0.183301
  17 H :    0.182890
  18 H :    0.304205

  Mayer bond orders larger than 0.100000
B(  0-C ,  1-O ) :   0.8306 B(  0-C , 13-H ) :   0.9723 B(  0-C , 14-H ) :   0.9626
B(  0-C , 15-H ) :   0.9547 B(  1-O ,  2-C ) :   1.1003 B(  2-C ,  3-C ) :   1.2527
B(  2-C ,  7-C ) :   1.3650 B(  3-C ,  4-C ) :   1.2897 B(  3-C , 12-Cl) :   1.0579
B(  4-C ,  5-C ) :   1.3280 B(  4-C , 16-H ) :   0.9447 B(  5-C ,  6-C ) :   1.3301
B(  5-C , 17-H ) :   0.9382 B(  6-C ,  7-C ) :   1.2376 B(  6-C , 11-Cl) :   1.0362
B(  7-C ,  8-C ) :   0.9488 B(  8-C ,  9-O ) :   1.9497 B(  8-C , 10-O ) :   1.0723
B( 10-O , 18-H ) :   0.8540

Dispersion correction           -0.008679559
FINAL SINGLE POINT ENERGY     -1454.384940540411

DIPOLE MOMENT
-------------

Method             : SCF
Type of density    : Electron Density
Multiplicity       :   1
Irrep              :   0
Energy             : -1454.3891887123522793 Eh
Relativity type    :
Basis              : AO
                                X                 Y                 Z
Electronic contribution:     -3.311253006       6.711779637      -3.018714258
Nuclear contribution   :      4.104961881      -7.042256775       3.969023864
                        -----------------------------------------
Total Dipole Moment    :      0.793708875      -0.330477139       0.950309606
                        -----------------------------------------
Magnitude (a.u.)       :      1.281513661
Magnitude (Debye)      :      3.257348862

Rotational constants in cm-1:             0.031874             0.016260             0.011245
Rotational constants in MHz :           955.573398           487.450766           337.131264

                             ****ORCA TERMINATED NORMALLY****
TOTAL RUN TIME: 0 days 0 hours 0 minutes 47 seconds 673 msec
