                         Program Version 6.0.0  -   RELEASE  -
|  1> ! r2scan-3c def2/J RI DEFGRID2 scfconv6 printgap
|  2> %output
|  3>     printlevel normal
|  4> end
|  5> %cpcm
|  6>     smd true
|  7>     smdsolvent "water"
|  8> end
|  9> * xyz 0 1
| 10> C 1.7683702206 -2.4384797266 0.8084350462
| 11> O 0.9685828667 -1.7960196147 -0.1912242838
| 12> C 0.6798636646 -0.4808355259 -0.0423635029
| 13> C 1.6473620173 0.5278855046 0.0249658178
| 14> C 1.2847511194 1.8622795767 0.1066515029
| 15> C -0.047663718 2.2299009609 0.0875510319
| 16> C -1.0189419133 1.2494076838 -0.0251234689
| 17> C -0.671790887 -0.0988067668 -0.0716202515
| 18> C -1.7189769535 -1.1583662768 -0.1868978189
| 19> O -2.6295033873 -1.1186972906 -0.985731041
| 20> O -1.5613253774 -2.1350638051 0.6814288042
| 21> Cl -2.6839028656 1.7070414846 -0.0652587941
| 22> Cl 3.3342873339 0.1345213369 -0.0640447095
| 23> H 2.5180276988 -3.0371409125 0.2938479047
| 24> H 1.1102372833 -3.0833208209 1.3935067153
| 25> H 2.2516408439 -1.7213109511 1.467782567
| 26> H 2.0536099108 2.6151924651 0.1652882753
| 27> H -0.3342424715 3.265863783 0.1444721326
| 28> H -2.2425065661 -2.8313395332 0.5885067793
| 29> *
| 30>
| 31>                          ****END OF INPUT****

CARTESIAN COORDINATES (ANGSTROEM)
---------------------------------
  C      1.768370   -2.438480    0.808435
  O      0.968583   -1.796020   -0.191224
  C      0.679864   -0.480836   -0.042364
  C      1.647362    0.527886    0.024966
  C      1.284751    1.862280    0.106652
  C     -0.047664    2.229901    0.087551
  C     -1.018942    1.249408   -0.025123
  C     -0.671791   -0.098807   -0.071620
  C     -1.718977   -1.158366   -0.186898
  O     -2.629503   -1.118697   -0.985731
  O     -1.561325   -2.135064    0.681429
  Cl    -2.683903    1.707041   -0.065259
  Cl     3.334287    0.134521   -0.064045
  H      2.518028   -3.037141    0.293848
  H      1.110237   -3.083321    1.393507
  H      2.251641   -1.721311    1.467783
  H      2.053610    2.615192    0.165288
  H     -0.334242    3.265864    0.144472
  H     -2.242507   -2.831340    0.588507

 Total Charge           Charge          ....    0
 Multiplicity           Mult            ....    1
 Number of Electrons    NEL             ....  112
 Basis Dimension        Dim             ....  308

ORBITAL ENERGIES
----------------

  NO   OCC          E(Eh)            E(eV)
   0   2.0000    -101.232668     -2754.6809
   1   2.0000    -101.230648     -2754.6260
   2   2.0000     -19.008225      -517.2401
   3   2.0000     -18.994492      -516.8664
   4   2.0000     -18.953921      -515.7624
   5   2.0000     -10.184632      -277.1379
   6   2.0000     -10.130267      -275.6586
   7   2.0000     -10.119926      -275.3772
   8   2.0000     -10.113160      -275.1931
   9   2.0000     -10.077959      -274.2352
  10   2.0000     -10.076929      -274.2072
  11   2.0000     -10.064412      -273.8666
  12   2.0000     -10.057601      -273.6812
  13   2.0000      -9.388561      -255.4757
  14   2.0000      -9.386806      -255.4280
  15   2.0000      -7.134892      -194.1503
  16   2.0000      -7.133135      -194.1025
  17   2.0000      -7.124860      -193.8773
  18   2.0000      -7.124201      -193.8594
  19   2.0000      -7.123181      -193.8316
  20   2.0000      -7.122300      -193.8076
  21   2.0000      -1.090104       -29.6632
  22   2.0000      -1.045085       -28.4382
  23   2.0000      -0.996808       -27.1245
  24   2.0000      -0.885088       -24.0845
  25   2.0000      -0.855561       -23.2810
  26   2.0000      -0.802866       -21.8471
  27   2.0000      -0.759983       -20.6802
  28   2.0000      -0.710089       -19.3225
  29   2.0000      -0.670447       -18.2438
  30   2.0000      -0.650008       -17.6876
  31   2.0000      -0.591350       -16.0915
  32   2.0000      -0.569935       -15.5087
  33   2.0000      -0.516502       -14.0547
  34   2.0000      -0.496889       -13.5210
  35   2.0000      -0.487556       -13.2671
  36   2.0000      -0.467016       -12.7082
  37   2.0000      -0.450828       -12.2677
  38   2.0000      -0.444291       -12.0898
  39   2.0000      -0.434677       -11.8282
  40   2.0000      -0.425409       -11.5760
  41   2.0000      -0.411847       -11.2069
  42   2.0000      -0.389729       -10.6051
  43   2.0000      -0.384133       -10.4528
  44   2.0000      -0.372883       -10.1466
  45   2.0000      -0.359948        -9.7947
  46   2.0000      -0.352985        -9.6052
  47   2.0000      -0.337604        -9.1867
  48   2.0000      -0.315399        -8.5824
  49   2.0000      -0.303837        -8.2678
  50   2.0000      -0.295049        -8.0287
  51   2.0000      -0.292101        -7.9485
  52   2.0000      -0.275295        -7.4912
  53   2.0000      -0.264411        -7.1950
  54   2.0000      -0.243989        -6.6393
  55   2.0000      -0.225531        -6.1370
  56   0.0000      -0.080975        -2.2035
  57   0.0000      -0.052399        -1.4258
  58   0.0000      -0.016192        -0.4406
  59   0.0000      -0.006519        -0.1774
  60   0.0000       0.010223         0.2782

MULLIKEN ATOMIC CHARGES
-----------------------
   0 C :   -0.272910
   1 O :   -0.279736
   2 C :    0.275239
   3 C :    0.013526
   4 C :   -0.162213
   5 C :   -0.275488
   6 C :    0.090633
   7 C :    0.010588
   8 C :    0.293261
   9 O :   -0.448166
  10 O :   -0.316860
  11 Cl:   -0.117515
  12 Cl:   -0.128522
  13 H :    0.177789
  14 H :    0.173475
  15 H :    0.170698
  16 H :    0.203684
  17 H :    0.202137
  18 H :    0.390381
Sum of atomic charges:   -0.0000000

LOEWDIN ATOMIC CHARGES
----------------------
   0 C :   -0.048096
   1 O :   -0.699414
   2 C :    0.203535
   3 C :   -0.152502
   4 C :   -0.134828
   5 C :   -0.165305
   6 C :   -0.134037
   7 C :   -0.018975
   8 C :    0.368449
   9 O :   -0.463518
  10 O :   -0.353024
  11 Cl:    0.177934
  12 Cl:    0.159276
  13 H :    0.182815
  14 H :    0.177091
  15 H :    0.180244
  16 H :    0.197770
  17 H :    0.196051
  18 H :    0.326536

  Mayer bond orders larger than 0.100000
B(  0-C ,  1-O ) :   0.8231 B(  0-C , 13-H ) :   0.9645 B(  0-C , 14-H ) :   0.9553
B(  0-C , 15-H ) :   0.9474 B(  1-O ,  2-C ) :   1.1009 B(  2-C ,  3-C ) :   1.2398
B(  2-C ,  7-C ) :   1.3590 B(  3-C ,  4-C ) :   1.2671 B(  3-C , 12-Cl) :   1.0534
B(  4-C ,  5-C ) :   1.3476 B(  4-C , 16-H ) :   0.9429 B(  5-C ,  6-C ) :   1.3056
B(  5-C , 17-H ) :   0.9398 B(  6-C ,  7-C ) :   1.2091 B(  6-C , 11-Cl) :   1.0250
B(  7-C ,  8-C ) :   0.9529 B(  8-C ,  9-O ) :   1.8944 B(  8-C , 10-O ) :   1.1115
B( 10-O , 18-H ) :   0.8271

Dispersion correction           -0.008679559
FINAL SINGLE POINT ENERGY     -1454.396655085338

DIPOLE MOMENT
-------------

Method             : SCF
Type of density    : Electron Density
Multiplicity       :   1
Irrep              :   0
Energy             : -1454.4009032572789692 Eh
Relativity type    :
Basis              : AO
                                X                 Y                 Z
Electronic contribution:     -2.895473496       6.731664929      -2.580460669
Nuclear contribution   :      4.104961881      -7.042256775       3.969023864
                        -----------------------------------------
Total Dipole Moment    :      1.209488385      -0.310591846       1.388563195
                        -----------------------------------------
Magnitude (a.u.)       :      1.867468124
Magnitude (Debye)      :      4.746726743

Rotational constants in cm-1:             0.031874             0.016260             0.011245
Rotational constants in MHz :           955.573398           487.450766           337.131264

                             ****ORCA TERMINATED NORMALLY****
TOTAL RUN TIME: 0 days 0 hours 1 minutes 4 seconds 279 msec
