                         Program Version 6.0.0  -   RELEASE  -
|  1> ! pbe def2-sv(p) def2/J RI DEFGRID1 loosescf d4 GCP(DFT/SV(P)) printgap
|  2> %output
|  3>     printlevel normal
|  4> end
|  5> * xyz 0 1
|  6> C 1.8086662277 -1.3826446108 0.0936982971
|  7> C 0.8560156355 -0.19988852 0.2634701272
|  8> C 1.6232372028 1.1110213475 0.1015939434
|  9> C -0.2920745416 -0.3095604499 -0.749061248
| 10> C -1.4882692244 0.5977162178 -0.4506821574
| 11> O -2.2863635781 0.139882109 0.622786987
| 12> H 2.222389305 -1.3912426748 -0.9121749619
| 13> H 1.2890120684 -2.3234129122 0.2594814633
| 14> H 2.6302742195 -1.3148572923 0.8026371621
| 15> H 0.4441306311 -0.2399911545 1.2783495836
| 16> H 2.0620111892 1.1685566916 -0.8921025648
| 17> H 2.4243957103 1.171742636 0.8344670056
| 18> H 0.9728166468 1.9709255603 0.2389629665
| 19> H -0.6579633145 -1.3385702924 -0.7716184468
| 20> H 0.0851241502 -0.0651093101 -1.7431624887
| 21> H -1.158113433 1.6267188601 -0.2591712167
| 22> H -2.1609327527 0.6114354021 -1.3117615968
| 23> H -1.7418352585 0.0883439101 1.4201402449
| 24> *
| 25>
| 26>                          ****END OF INPUT****

CARTESIAN COORDINATES (ANGSTROEM)
---------------------------------
  C      1.808666   -1.382645    0.093698
  C      0.856016   -0.199889    0.263470
  C      1.623237    1.111021    0.101594
  C     -0.292075   -0.309560   -0.749061
  C     -1.488269    0.597716   -0.450682
  O     -2.286364    0.139882    0.622787
  H      2.222389   -1.391243   -0.912175
  H      1.289012   -2.323413    0.259481
  H      2.630274   -1.314857    0.802637
  H      0.444131   -0.239991    1.278350
  H      2.062011    1.168557   -0.892103
  H      2.424396    1.171743    0.834467
  H      0.972817    1.970926    0.238963
  H     -0.657963   -1.338570   -0.771618
  H      0.085124   -0.065109   -1.743162
  H     -1.158113    1.626719   -0.259171
  H     -2.160933    0.611435   -1.311762
  H     -1.741835    0.088344    1.420140

 Total Charge           Charge          ....    0
 Multiplicity           Mult            ....    1
 Number of Electrons    NEL             ....   50
 Basis Dimension        Dim             ....  108

ORBITAL ENERGIES
----------------

  NO   OCC          E(Eh)            E(eV)
   0   2.0000     -18.736751      -509.8529
   1   2.0000      -9.924839      -270.0686
   2   2.0000      -9.901755      -269.4404
   3   2.0000      -9.881822      -268.8980
   4   2.0000      -9.877508      -268.7807
   5   2.0000      -9.875935      -268.7379
   6   2.0000      -0.913109       -24.8470
   7   2.0000      -0.734254       -19.9801
   8   2.0000      -0.650001       -17.6874
   9   2.0000      -0.614830       -16.7304
  10   2.0000      -0.562469       -15.3056
  11   2.0000      -0.501572       -13.6485
  12   2.0000      -0.450477       -12.2581
  13   2.0000      -0.425153       -11.5690
  14   2.0000      -0.404492       -11.0068
  15   2.0000      -0.378102       -10.2887
  16   2.0000      -0.367759       -10.0072
  17   2.0000      -0.350412        -9.5352
  18   2.0000      -0.344221        -9.3667
  19   2.0000      -0.320476        -8.7206
  20   2.0000      -0.298639        -8.1264
  21   2.0000      -0.290498        -7.9048
  22   2.0000      -0.288793        -7.8585
  23   2.0000      -0.263399        -7.1675
  24   2.0000      -0.209308        -5.6955
  25   0.0000       0.018909         0.5145
  26   0.0000       0.045145         1.2285
  27   0.0000       0.061898         1.6843
  28   0.0000       0.073456         1.9988
  29   0.0000       0.086101         2.3429

MULLIKEN ATOMIC CHARGES
-----------------------
   0 C :   -0.232397
   1 C :   -0.202156
   2 C :   -0.251544
   3 C :   -0.163889
   4 C :    0.030802
   5 O :   -0.442712
   6 H :    0.094881
   7 H :    0.101137
   8 H :    0.098176
   9 H :    0.053431
  10 H :    0.095761
  11 H :    0.100464
  12 H :    0.103963
  13 H :    0.087456
  14 H :    0.075231
  15 H :    0.071634
  16 H :    0.085992
  17 H :    0.293771
Sum of atomic charges:    0.0000000

LOEWDIN ATOMIC CHARGES
----------------------
   0 C :   -0.327621
   1 C :   -0.161729
   2 C :   -0.331220
   3 C :   -0.243645
   4 C :   -0.121218
   5 O :   -0.343478
   6 H :    0.117888
   7 H :    0.118010
   8 H :    0.116780
   9 H :    0.101858
  10 H :    0.118156
  11 H :    0.118851
  12 H :    0.115113
  13 H :    0.119126
  14 H :    0.119285
  15 H :    0.093775
  16 H :    0.113560
  17 H :    0.276509

  Mayer bond orders larger than 0.100000
B(  0-C ,  1-C ) :   1.1133 B(  0-C ,  6-H ) :   0.9502 B(  0-C ,  7-H ) :   0.9490
B(  0-C ,  8-H ) :   0.9517 B(  1-C ,  2-C ) :   1.1065 B(  1-C ,  3-C ) :   1.0724
B(  1-C ,  9-H ) :   0.8971 B(  2-C , 10-H ) :   0.9493 B(  2-C , 11-H ) :   0.9491
B(  2-C , 12-H ) :   0.9446 B(  3-C ,  4-C ) :   1.1031 B(  3-C , 13-H ) :   0.9152
B(  3-C , 14-H ) :   0.9022 B(  4-C ,  5-O ) :   1.0648 B(  4-C , 15-H ) :   0.9189
B(  4-C , 16-H ) :   0.9269 B(  5-O , 17-H ) :   0.8514

Dispersion correction           -0.012836382
FINAL SINGLE POINT ENERGY      -272.300376396321

DIPOLE MOMENT
-------------

Method             : SCF
Type of density    : Electron Density
Multiplicity       :   1
Irrep              :   0
Energy             :  -272.3701697222899156 Eh
Relativity type    :
Basis              : AO
                                X                 Y                 Z
Electronic contribution:     -5.350564148       0.117274946       1.074213993
Nuclear contribution   :      5.980926396      -0.031191909      -0.981414116
                        -----------------------------------------
Total Dipole Moment    :      0.630362249       0.086083037       0.092799877
                        -----------------------------------------
Magnitude (a.u.)       :      0.642945309
Magnitude (Debye)      :      1.634237101

Rotational constants in cm-1:             0.191660             0.064907             0.058057
Rotational constants in MHz :          5745.820921          1945.869005          1740.511237

                             ****ORCA TERMINATED NORMALLY****
TOTAL RUN TIME: 0 days 0 hours 0 minutes 8 seconds 228 msec
