                         Program Version 6.0.0  -   RELEASE  -
|  1> ! r2scan-3c def2/J RI DEFGRID2 scfconv6 printgap
|  2> %output
|  3>     printlevel normal
|  4> end
|  5> * xyz 0 1
|  6> C -2.3991750181 -0.2694032462 -1.2066969075
|  7> C -1.9327320862 0.1721977587 0.1784076039
|  8> C -1.8312913087 -1.0191765268 1.1281800112
|  9> C -0.5918545363 0.9034718592 0.084590874
| 10> O 0.412893426 0.0155068402 -0.4219945724
| 11> C 1.6546234804 0.1368105982 0.0248625553
| 12> O 1.9963086944 0.9640225345 0.8467570169
| 13> C 2.5735994173 -0.858021764 -0.6190685631
| 14> H -1.6678831319 -0.9404162834 -1.6490652381
| 15> H -2.5211860581 0.590186391 -1.8606256786
| 16> H -3.3511005803 -0.7879219418 -1.1346052657
| 17> H -2.6499844529 0.8915345794 0.5860659344
| 18> H -1.493095257 -0.6985845211 2.1110867902
| 19> H -1.1248017325 -1.7489636108 0.7402017642
| 20> H -2.8002492884 -1.4986114674 1.2347222741
| 21> H -0.6619973843 1.7526632529 -0.6024752965
| 22> H -0.2681421996 1.2700963919 1.0644441589
| 23> H 2.009966705 -1.7170314648 -0.9664708523
| 24> H 3.34403982 -1.1508682018 0.087342189
| 25> H 3.0526420572 -0.379337903 -1.4706705577
| 26> *
| 27>
| 28>                          ****END OF INPUT****

CARTESIAN COORDINATES (ANGSTROEM)
---------------------------------
  C     -2.399175   -0.269403   -1.206697
  C     -1.932732    0.172198    0.178408
  C     -1.831291   -1.019177    1.128180
  C     -0.591855    0.903472    0.084591
  O      0.412893    0.015507   -0.421995
  C      1.654623    0.136811    0.024863
  O      1.996309    0.964023    0.846757
  C      2.573599   -0.858022   -0.619069
  H     -1.667883   -0.940416   -1.649065
  H     -2.521186    0.590186   -1.860626
  H     -3.351101   -0.787922   -1.134605
  H     -2.649984    0.891535    0.586066
  H     -1.493095   -0.698585    2.111087
  H     -1.124802   -1.748964    0.740202
  H     -2.800249   -1.498611    1.234722
  H     -0.661997    1.752663   -0.602475
  H     -0.268142    1.270096    1.064444
  H      2.009967   -1.717031   -0.966471
  H      3.344040   -1.150868    0.087342
  H      3.052642   -0.379338   -1.470671

 Total Charge           Charge          ....    0
 Multiplicity           Mult            ....    1
 Number of Electrons    NEL             ....   64
 Basis Dimension        Dim             ....  222

ORBITAL ENERGIES
----------------

  NO   OCC          E(Eh)            E(eV)
   0   2.0000     -18.998285      -516.9696
   1   2.0000     -18.927126      -515.0333
   2   2.0000     -10.156139      -276.3626
   3   2.0000     -10.085607      -274.4433
   4   2.0000     -10.046059      -273.3672
   5   2.0000     -10.039445      -273.1872
   6   2.0000     -10.020766      -272.6789
   7   2.0000     -10.020289      -272.6659
   8   2.0000      -1.073491       -29.2112
   9   2.0000      -0.975340       -26.5404
  10   2.0000      -0.784659       -21.3516
  11   2.0000      -0.727103       -19.7855
  12   2.0000      -0.662521       -18.0281
  13   2.0000      -0.656571       -17.8662
  14   2.0000      -0.567337       -15.4380
  15   2.0000      -0.514232       -13.9930
  16   2.0000      -0.464834       -12.6488
  17   2.0000      -0.461398       -12.5553
  18   2.0000      -0.441360       -12.0100
  19   2.0000      -0.420733       -11.4487
  20   2.0000      -0.409473       -11.1423
  21   2.0000      -0.401645       -10.9293
  22   2.0000      -0.377357       -10.2684
  23   2.0000      -0.369043       -10.0422
  24   2.0000      -0.354359        -9.6426
  25   2.0000      -0.343871        -9.3572
  26   2.0000      -0.331148        -9.0110
  27   2.0000      -0.311766        -8.4836
  28   2.0000      -0.308560        -8.3963
  29   2.0000      -0.297210        -8.0875
  30   2.0000      -0.269618        -7.3367
  31   2.0000      -0.236223        -6.4280
  32   0.0000      -0.013855        -0.3770
  33   0.0000       0.064077         1.7436
  34   0.0000       0.089983         2.4486
  35   0.0000       0.107410         2.9228
  36   0.0000       0.128150         3.4871

MULLIKEN ATOMIC CHARGES
-----------------------
   0 C :   -0.502722
   1 C :    0.012487
   2 C :   -0.500388
   3 C :   -0.209704
   4 O :   -0.177717
   5 C :    0.424954
   6 O :   -0.431167
   7 C :   -0.522272
   8 H :    0.163784
   9 H :    0.143876
  10 H :    0.145310
  11 H :    0.145227
  12 H :    0.150377
  13 H :    0.157725
  14 H :    0.148807
  15 H :    0.148078
  16 H :    0.187397
  17 H :    0.166701
  18 H :    0.174834
  19 H :    0.174413
Sum of atomic charges:    0.0000000

LOEWDIN ATOMIC CHARGES
----------------------
   0 C :   -0.409015
   1 C :   -0.220475
   2 C :   -0.407334
   3 C :    0.042869
   4 O :   -0.607048
   5 C :    0.355552
   6 O :   -0.437599
   7 C :   -0.335833
   8 H :    0.162799
   9 H :    0.154807
  10 H :    0.153473
  11 H :    0.163100
  12 H :    0.157624
  13 H :    0.161261
  14 H :    0.154264
  15 H :    0.180864
  16 H :    0.198794
  17 H :    0.173490
  18 H :    0.176990
  19 H :    0.181415

  Mayer bond orders larger than 0.100000
B(  0-C ,  1-C ) :   0.9179 B(  0-C ,  8-H ) :   0.9839 B(  0-C ,  9-H ) :   0.9709
B(  0-C , 10-H ) :   0.9723 B(  1-C ,  2-C ) :   0.9100 B(  1-C ,  3-C ) :   0.9580
B(  1-C , 11-H ) :   0.9397 B(  2-C , 12-H ) :   0.9703 B(  2-C , 13-H ) :   0.9814
B(  2-C , 14-H ) :   0.9738 B(  3-C ,  4-O ) :   0.7898 B(  3-C , 15-H ) :   0.9470
B(  3-C , 16-H ) :   0.9605 B(  4-O ,  5-C ) :   1.0645 B(  5-C ,  6-O ) :   1.8335
B(  5-C ,  7-C ) :   0.9481 B(  7-C , 17-H ) :   0.9786 B(  7-C , 18-H ) :   0.9737
B(  7-C , 19-H ) :   0.9394

Dispersion correction           -0.005261807
FINAL SINGLE POINT ENERGY      -386.237144022556

DIPOLE MOMENT
-------------

Method             : SCF
Type of density    : Electron Density
Multiplicity       :   1
Irrep              :   0
Energy             :  -386.2438882190680260 Eh
Relativity type    :
Basis              : AO
                                X                 Y                 Z
Electronic contribution:      7.033686058       3.675280669       1.239557143
Nuclear contribution   :     -7.593251939      -4.129596709      -1.738738312
                        -----------------------------------------
Total Dipole Moment    :     -0.559565881      -0.454316040      -0.499181168
                        -----------------------------------------
Magnitude (a.u.)       :      0.876754742
Magnitude (Debye)      :      2.228533450

Rotational constants in cm-1:             0.125378             0.036626             0.035012
Rotational constants in MHz :          3758.746923          1098.013455          1049.626950

                             ****ORCA TERMINATED NORMALLY****
TOTAL RUN TIME: 0 days 0 hours 0 minutes 31 seconds 503 msec
