                         Program Version 6.0.0  -   RELEASE  -
|  1> ! r2scan-3c def2/J RI DEFGRID2 scfconv6 printgap
|  2> %output
|  3>     printlevel normal
|  4> end
|  5> %cpcm
|  6>     smd true
|  7>     smdsolvent "water"
|  8> end
|  9> * xyz 0 1
| 10> C -2.3991750181 -0.2694032462 -1.2066969075
| 11> C -1.9327320862 0.1721977587 0.1784076039
| 12> C -1.8312913087 -1.0191765268 1.1281800112
| 13> C -0.5918545363 0.9034718592 0.084590874
| 14> O 0.412893426 0.0155068402 -0.4219945724
| 15> C 1.6546234804 0.1368105982 0.0248625553
| 16> O 1.9963086944 0.9640225345 0.8467570169
| 17> C 2.5735994173 -0.858021764 -0.6190685631
| 18> H -1.6678831319 -0.9404162834 -1.6490652381
| 19> H -2.5211860581 0.590186391 -1.8606256786
| 20> H -3.3511005803 -0.7879219418 -1.1346052657
| 21> H -2.6499844529 0.8915345794 0.5860659344
| 22> H -1.493095257 -0.6985845211 2.1110867902
| 23> H -1.1248017325 -1.7489636108 0.7402017642
| 24> H -2.8002492884 -1.4986114674 1.2347222741
| 25> H -0.6619973843 1.7526632529 -0.6024752965
| 26> H -0.2681421996 1.2700963919 1.0644441589
| 27> H 2.009966705 -1.7170314648 -0.9664708523
| 28> H 3.34403982 -1.1508682018 0.087342189
| 29> H 3.0526420572 -0.379337903 -1.4706705577
| 30> *
| 31>
| 32>                          ****END OF INPUT****

CARTESIAN COORDINATES (ANGSTROEM)
---------------------------------
  C     -2.399175   -0.269403   -1.206697
  C     -1.932732    0.172198    0.178408
  C     -1.831291   -1.019177    1.128180
  C     -0.591855    0.903472    0.084591
  O      0.412893    0.015507   -0.421995
  C      1.654623    0.136811    0.024863
  O      1.996309    0.964023    0.846757
  C      2.573599   -0.858022   -0.619069
  H     -1.667883   -0.940416   -1.649065
  H     -2.521186    0.590186   -1.860626
  H     -3.351101   -0.787922   -1.134605
  H     -2.649984    0.891535    0.586066
  H     -1.493095   -0.698585    2.111087
  H     -1.124802   -1.748964    0.740202
  H     -2.800249   -1.498611    1.234722
  H     -0.661997    1.752663   -0.602475
  H     -0.268142    1.270096    1.064444
  H      2.009967   -1.717031   -0.966471
  H      3.344040   -1.150868    0.087342
  H      3.052642   -0.379338   -1.470671

 Total Charge           Charge          ....    0
 Multiplicity           Mult            ....    1
 Number of Electrons    NEL             ....   64
 Basis Dimension        Dim             ....  222

ORBITAL ENERGIES
----------------

  NO   OCC          E(Eh)            E(eV)
   0   2.0000     -19.002861      -517.0941
   1   2.0000     -18.942305      -515.4463
   2   2.0000     -10.165642      -276.6212
   3   2.0000     -10.078057      -274.2379
   4   2.0000     -10.034637      -273.0564
   5   2.0000     -10.030194      -272.9355
   6   2.0000     -10.009612      -272.3754
   7   2.0000     -10.009054      -272.3602
   8   2.0000      -1.079659       -29.3790
   9   2.0000      -0.988571       -26.9004
  10   2.0000      -0.775952       -21.1147
  11   2.0000      -0.721433       -19.6312
  12   2.0000      -0.655387       -17.8340
  13   2.0000      -0.645895       -17.5757
  14   2.0000      -0.561423       -15.2771
  15   2.0000      -0.509689       -13.8693
  16   2.0000      -0.466143       -12.6844
  17   2.0000      -0.460829       -12.5398
  18   2.0000      -0.447554       -12.1786
  19   2.0000      -0.414127       -11.2690
  20   2.0000      -0.401955       -10.9378
  21   2.0000      -0.395725       -10.7682
  22   2.0000      -0.371239       -10.1019
  23   2.0000      -0.360416        -9.8074
  24   2.0000      -0.345933        -9.4133
  25   2.0000      -0.341102        -9.2819
  26   2.0000      -0.328924        -8.9505
  27   2.0000      -0.305333        -8.3085
  28   2.0000      -0.297789        -8.1032
  29   2.0000      -0.291111        -7.9215
  30   2.0000      -0.273366        -7.4387
  31   2.0000      -0.252454        -6.8696
  32   0.0000      -0.020705        -0.5634
  33   0.0000       0.070241         1.9114
  34   0.0000       0.101822         2.7707
  35   0.0000       0.114141         3.1059
  36   0.0000       0.136349         3.7102

MULLIKEN ATOMIC CHARGES
-----------------------
   0 C :   -0.546604
   1 C :    0.030155
   2 C :   -0.545097
   3 C :   -0.213447
   4 O :   -0.192077
   5 C :    0.471171
   6 O :   -0.521160
   7 C :   -0.558796
   8 H :    0.164655
   9 H :    0.160025
  10 H :    0.160023
  11 H :    0.163335
  12 H :    0.161301
  13 H :    0.163074
  14 H :    0.163788
  15 H :    0.174489
  16 H :    0.182803
  17 H :    0.187811
  18 H :    0.188961
  19 H :    0.205590
Sum of atomic charges:   -0.0000000

LOEWDIN ATOMIC CHARGES
----------------------
   0 C :   -0.416264
   1 C :   -0.214700
   2 C :   -0.415186
   3 C :    0.045465
   4 O :   -0.606225
   5 C :    0.366511
   6 O :   -0.502161
   7 C :   -0.334253
   8 H :    0.161271
   9 H :    0.159198
  10 H :    0.157730
  11 H :    0.170590
  12 H :    0.159915
  13 H :    0.161254
  14 H :    0.158496
  15 H :    0.190608
  16 H :    0.198288
  17 H :    0.183196
  18 H :    0.182764
  19 H :    0.193502

  Mayer bond orders larger than 0.100000
B(  0-C ,  1-C ) :   0.9096 B(  0-C ,  8-H ) :   0.9830 B(  0-C ,  9-H ) :   0.9686
B(  0-C , 10-H ) :   0.9699 B(  1-C ,  2-C ) :   0.9006 B(  1-C ,  3-C ) :   0.9604
B(  1-C , 11-H ) :   0.9366 B(  2-C , 12-H ) :   0.9694 B(  2-C , 13-H ) :   0.9789
B(  2-C , 14-H ) :   0.9713 B(  3-C ,  4-O ) :   0.7774 B(  3-C , 15-H ) :   0.9379
B(  3-C , 16-H ) :   0.9573 B(  4-O ,  5-C ) :   1.0947 B(  5-C ,  6-O ) :   1.7584
B(  5-C ,  7-C ) :   0.9483 B(  7-C , 17-H ) :   0.9675 B(  7-C , 18-H ) :   0.9659
B(  7-C , 19-H ) :   0.9265

Dispersion correction           -0.005261807
FINAL SINGLE POINT ENERGY      -386.241876571632

DIPOLE MOMENT
-------------

Method             : SCF
Type of density    : Electron Density
Multiplicity       :   1
Irrep              :   0
Energy             :  -386.2486207681440078 Eh
Relativity type    :
Basis              : AO
                                X                 Y                 Z
Electronic contribution:      6.817638308       3.530079280       1.026482061
Nuclear contribution   :     -7.593251939      -4.129596709      -1.738738312
                        -----------------------------------------
Total Dipole Moment    :     -0.775613631      -0.599517429      -0.712256250
                        -----------------------------------------
Magnitude (a.u.)       :      1.211737025
Magnitude (Debye)      :      3.079990748

Rotational constants in cm-1:             0.125378             0.036626             0.035012
Rotational constants in MHz :          3758.746923          1098.013455          1049.626950

                             ****ORCA TERMINATED NORMALLY****
TOTAL RUN TIME: 0 days 0 hours 0 minutes 37 seconds 427 msec
