                         Program Version 6.0.0  -   RELEASE  -
|  1> ! r2scan-3c def2/J RI DEFGRID2 scfconv6 printgap
|  2> %output
|  3>     printlevel normal
|  4> end
|  5> * xyz 0 1
|  6> C -1.4135064918 0.3777405732 1.7149968421
|  7> O -1.5111197089 -0.4651189917 0.5471387185
|  8> C -0.816266135 -0.126596316 -0.5342269657
|  9> C 0.7240956502 -0.028609285 -0.4507638213
| 10> Cl 1.2392871406 1.5026106908 0.2687872971
| 11> Cl 1.3159338099 -1.4109449716 0.4861243642
| 12> F -1.1029011677 -1.0589433192 -1.4837066534
| 13> F -1.2766433666 1.0537116342 -1.0883638715
| 14> H -1.5865946536 1.4195275103 1.4465052057
| 15> H -0.4423624351 0.2572321509 2.1937259421
| 16> H -2.2041592193 0.0153992428 2.3646258985
| 17> H 1.1364681794 -0.0865159672 -1.4613430126
| 18> *
| 19>
| 20>                          ****END OF INPUT****

CARTESIAN COORDINATES (ANGSTROEM)
---------------------------------
  C     -1.413506    0.377741    1.714997
  O     -1.511120   -0.465119    0.547139
  C     -0.816266   -0.126596   -0.534227
  C      0.724096   -0.028609   -0.450764
  Cl     1.239287    1.502611    0.268787
  Cl     1.315934   -1.410945    0.486124
  F     -1.102901   -1.058943   -1.483707
  F     -1.276643    1.053712   -1.088364
  H     -1.586595    1.419528    1.446505
  H     -0.442362    0.257232    2.193726
  H     -2.204159    0.015399    2.364626
  H      1.136468   -0.086516   -1.461343

 Total Charge           Charge          ....    0
 Multiplicity           Mult            ....    1
 Number of Electrons    NEL             ....   82
 Basis Dimension        Dim             ....  203

ORBITAL ENERGIES
----------------

  NO   OCC          E(Eh)            E(eV)
   0   2.0000    -101.241477     -2754.9206
   1   2.0000    -101.239790     -2754.8747
   2   2.0000     -24.512245      -667.0121
   3   2.0000     -24.505418      -666.8263
   4   2.0000     -19.009913      -517.2860
   5   2.0000     -10.270649      -279.4786
   6   2.0000     -10.185345      -277.1573
   7   2.0000     -10.103478      -274.9296
   8   2.0000      -9.397579      -255.7211
   9   2.0000      -9.395680      -255.6695
  10   2.0000      -7.144419      -194.4095
  11   2.0000      -7.142525      -194.3580
  12   2.0000      -7.133365      -194.1087
  13   2.0000      -7.133193      -194.1041
  14   2.0000      -7.131574      -194.0600
  15   2.0000      -7.131228      -194.0506
  16   2.0000      -1.241182       -33.7743
  17   2.0000      -1.169670       -31.8283
  18   2.0000      -1.060643       -28.8616
  19   2.0000      -0.894703       -24.3461
  20   2.0000      -0.807759       -21.9802
  21   2.0000      -0.734680       -19.9916
  22   2.0000      -0.685615       -18.6565
  23   2.0000      -0.598991       -16.2994
  24   2.0000      -0.545120       -14.8335
  25   2.0000      -0.543233       -14.7821
  26   2.0000      -0.523746       -14.2518
  27   2.0000      -0.466112       -12.6835
  28   2.0000      -0.447324       -12.1723
  29   2.0000      -0.437336       -11.9005
  30   2.0000      -0.432850       -11.7784
  31   2.0000      -0.404983       -11.0201
  32   2.0000      -0.389541       -10.6000
  33   2.0000      -0.379214       -10.3189
  34   2.0000      -0.367573       -10.0022
  35   2.0000      -0.349123        -9.5001
  36   2.0000      -0.320016        -8.7081
  37   2.0000      -0.316773        -8.6198
  38   2.0000      -0.299470        -8.1490
  39   2.0000      -0.293499        -7.9865
  40   2.0000      -0.281678        -7.6649
  41   0.0000      -0.044430        -1.2090
  42   0.0000      -0.021163        -0.5759
  43   0.0000       0.050939         1.3861
  44   0.0000       0.066475         1.8089
  45   0.0000       0.101193         2.7536

MULLIKEN ATOMIC CHARGES
-----------------------
   0 C :   -0.290925
   1 O :   -0.198677
   2 C :    0.422304
   3 C :   -0.002007
   4 Cl:   -0.095078
   5 Cl:   -0.097403
   6 F :   -0.214790
   7 F :   -0.234961
   8 H :    0.173264
   9 H :    0.169721
  10 H :    0.159951
  11 H :    0.208602
Sum of atomic charges:    0.0000000

LOEWDIN ATOMIC CHARGES
----------------------
   0 C :   -0.047379
   1 O :   -0.618914
   2 C :    0.427642
   3 C :   -0.292356
   4 Cl:    0.124002
   5 Cl:    0.133087
   6 F :   -0.203477
   7 F :   -0.241393
   8 H :    0.175789
   9 H :    0.171326
  10 H :    0.183580
  11 H :    0.188094

  Mayer bond orders larger than 0.100000
B(  0-C ,  1-O ) :   0.8215 B(  0-C ,  8-H ) :   0.9581 B(  0-C ,  9-H ) :   0.9522
B(  0-C , 10-H ) :   0.9653 B(  1-O ,  2-C ) :   1.2048 B(  2-C ,  3-C ) :   0.9120
B(  2-C ,  6-F ) :   1.0302 B(  2-C ,  7-F ) :   0.9362 B(  3-C ,  4-Cl) :   1.0060
B(  3-C ,  5-Cl) :   1.0538 B(  3-C , 11-H ) :   0.9218

Dispersion correction           -0.003895396
FINAL SINGLE POINT ENERGY     -1311.940679161214

DIPOLE MOMENT
-------------

Method             : SCF
Type of density    : Electron Density
Multiplicity       :   1
Irrep              :   0
Energy             : -1311.9530995407221781 Eh
Relativity type    :
Basis              : AO
                                X                 Y                 Z
Electronic contribution:      4.313506199      -1.085101989      -5.064338712
Nuclear contribution   :     -4.152453480       1.381312109       5.640577859
                        -----------------------------------------
Total Dipole Moment    :      0.161052719       0.296210120       0.576239147
                        -----------------------------------------
Magnitude (a.u.)       :      0.667630113
Magnitude (Debye)      :      1.696980886

Rotational constants in cm-1:             0.052072             0.043294             0.036077
Rotational constants in MHz :          1561.081557          1297.933757          1081.574637

                             ****ORCA TERMINATED NORMALLY****
TOTAL RUN TIME: 0 days 0 hours 0 minutes 19 seconds 919 msec
