                         Program Version 6.0.0  -   RELEASE  -
|  1> ! r2scan-3c def2/J RI DEFGRID2 scfconv6 printgap
|  2> %output
|  3>     printlevel normal
|  4> end
|  5> %cpcm
|  6>     smd true
|  7>     smdsolvent "water"
|  8> end
|  9> * xyz 0 1
| 10> C -1.4135064918 0.3777405732 1.7149968421
| 11> O -1.5111197089 -0.4651189917 0.5471387185
| 12> C -0.816266135 -0.126596316 -0.5342269657
| 13> C 0.7240956502 -0.028609285 -0.4507638213
| 14> Cl 1.2392871406 1.5026106908 0.2687872971
| 15> Cl 1.3159338099 -1.4109449716 0.4861243642
| 16> F -1.1029011677 -1.0589433192 -1.4837066534
| 17> F -1.2766433666 1.0537116342 -1.0883638715
| 18> H -1.5865946536 1.4195275103 1.4465052057
| 19> H -0.4423624351 0.2572321509 2.1937259421
| 20> H -2.2041592193 0.0153992428 2.3646258985
| 21> H 1.1364681794 -0.0865159672 -1.4613430126
| 22> *
| 23>
| 24>                          ****END OF INPUT****

CARTESIAN COORDINATES (ANGSTROEM)
---------------------------------
  C     -1.413506    0.377741    1.714997
  O     -1.511120   -0.465119    0.547139
  C     -0.816266   -0.126596   -0.534227
  C      0.724096   -0.028609   -0.450764
  Cl     1.239287    1.502611    0.268787
  Cl     1.315934   -1.410945    0.486124
  F     -1.102901   -1.058943   -1.483707
  F     -1.276643    1.053712   -1.088364
  H     -1.586595    1.419528    1.446505
  H     -0.442362    0.257232    2.193726
  H     -2.204159    0.015399    2.364626
  H      1.136468   -0.086516   -1.461343

 Total Charge           Charge          ....    0
 Multiplicity           Mult            ....    1
 Number of Electrons    NEL             ....   82
 Basis Dimension        Dim             ....  203

ORBITAL ENERGIES
----------------

  NO   OCC          E(Eh)            E(eV)
   0   2.0000    -101.237251     -2754.8057
   1   2.0000    -101.236821     -2754.7939
   2   2.0000     -24.517681      -667.1600
   3   2.0000     -24.509179      -666.9287
   4   2.0000     -19.008357      -517.2437
   5   2.0000     -10.270814      -279.4831
   6   2.0000     -10.177343      -276.9396
   7   2.0000     -10.086383      -274.4644
   8   2.0000      -9.393203      -255.6020
   9   2.0000      -9.392932      -255.5947
  10   2.0000      -7.139933      -194.2875
  11   2.0000      -7.139735      -194.2821
  12   2.0000      -7.129175      -193.9947
  13   2.0000      -7.128809      -193.9848
  14   2.0000      -7.128778      -193.9839
  15   2.0000      -7.128493      -193.9762
  16   2.0000      -1.245506       -33.8919
  17   2.0000      -1.174366       -31.9561
  18   2.0000      -1.059123       -28.8202
  19   2.0000      -0.889898       -24.2154
  20   2.0000      -0.804038       -21.8790
  21   2.0000      -0.728621       -19.8268
  22   2.0000      -0.678924       -18.4745
  23   2.0000      -0.595937       -16.2163
  24   2.0000      -0.547604       -14.9010
  25   2.0000      -0.540206       -14.6998
  26   2.0000      -0.518561       -14.1108
  27   2.0000      -0.459696       -12.5090
  28   2.0000      -0.443596       -12.0709
  29   2.0000      -0.429678       -11.6921
  30   2.0000      -0.427060       -11.6209
  31   2.0000      -0.403053       -10.9676
  32   2.0000      -0.390455       -10.6248
  33   2.0000      -0.380809       -10.3623
  34   2.0000      -0.371381       -10.1058
  35   2.0000      -0.344154        -9.3649
  36   2.0000      -0.317066        -8.6278
  37   2.0000      -0.312532        -8.5044
  38   2.0000      -0.296375        -8.0648
  39   2.0000      -0.291300        -7.9267
  40   2.0000      -0.276245        -7.5170
  41   0.0000      -0.039924        -1.0864
  42   0.0000      -0.016833        -0.4581
  43   0.0000       0.062690         1.7059
  44   0.0000       0.077900         2.1198
  45   0.0000       0.111164         3.0249

MULLIKEN ATOMIC CHARGES
-----------------------
   0 C :   -0.305597
   1 O :   -0.228661
   2 C :    0.411445
   3 C :   -0.007184
   4 Cl:   -0.107420
   5 Cl:   -0.115358
   6 F :   -0.223929
   7 F :   -0.243686
   8 H :    0.189915
   9 H :    0.182980
  10 H :    0.186398
  11 H :    0.261096
Sum of atomic charges:   -0.0000000

LOEWDIN ATOMIC CHARGES
----------------------
   0 C :   -0.041702
   1 O :   -0.640100
   2 C :    0.424885
   3 C :   -0.286972
   4 Cl:    0.120157
   5 Cl:    0.123589
   6 F :   -0.213260
   7 F :   -0.247721
   8 H :    0.182723
   9 H :    0.176763
  10 H :    0.194634
  11 H :    0.207005

  Mayer bond orders larger than 0.100000
B(  0-C ,  1-O ) :   0.8093 B(  0-C ,  8-H ) :   0.9485 B(  0-C ,  9-H ) :   0.9459
B(  0-C , 10-H ) :   0.9551 B(  1-O ,  2-C ) :   1.2131 B(  2-C ,  3-C ) :   0.9138
B(  2-C ,  6-F ) :   1.0243 B(  2-C ,  7-F ) :   0.9351 B(  3-C ,  4-Cl) :   0.9950
B(  3-C ,  5-Cl) :   1.0261 B(  3-C , 11-H ) :   0.9036

Dispersion correction           -0.003895396
FINAL SINGLE POINT ENERGY     -1311.943257118701

DIPOLE MOMENT
-------------

Method             : SCF
Type of density    : Electron Density
Multiplicity       :   1
Irrep              :   0
Energy             : -1311.9556774982090701 Eh
Relativity type    :
Basis              : AO
                                X                 Y                 Z
Electronic contribution:      4.397062852      -0.956164073      -4.979036732
Nuclear contribution   :     -4.152453480       1.381312109       5.640577859
                        -----------------------------------------
Total Dipole Moment    :      0.244609372       0.425148036       0.661541128
                        -----------------------------------------
Magnitude (a.u.)       :      0.823541900
Magnitude (Debye)      :      2.093277153

Rotational constants in cm-1:             0.052072             0.043294             0.036077
Rotational constants in MHz :          1561.081557          1297.933757          1081.574637

                             ****ORCA TERMINATED NORMALLY****
TOTAL RUN TIME: 0 days 0 hours 0 minutes 23 seconds 508 msec
