                         Program Version 6.0.0  -   RELEASE  -
|  1> ! pbe def2-sv(p) def2/J RI DEFGRID1 loosescf d4 GCP(DFT/SV(P)) printgap
|  2> %output
|  3>     printlevel normal
|  4> end
|  5> * xyz 0 1
|  6> C 1.7370076151 -1.4236858773 -0.1510161312
|  7> C 1.0546951984 -0.1283745297 0.2850550863
|  8> C 1.9899219663 1.0603455879 0.0685393807
|  9> C -0.2788399678 0.0731607204 -0.461823467
| 10> C -1.4727121061 0.1115197802 0.4930463022
| 11> O -2.7122879037 0.2273605794 -0.1749284483
| 12> H 1.084504817 -2.2759149224 0.0226991246
| 13> H 2.6567258247 -1.5765502182 0.4087708998
| 14> H 1.9824506552 -1.3844038204 -1.2100247124
| 15> H 0.8426723014 -0.2017547388 1.357641823
| 16> H 2.9138445144 0.922915592 0.6253234247
| 17> H 1.522237563 1.9823883101 0.4054946418
| 18> H 2.2374355841 1.1602040501 -0.9860355046
| 19> H -0.4402229909 -0.7367570454 -1.175140942
| 20> H -0.2503084129 1.0070624691 -1.0269678094
| 21> H -1.5366465228 -0.8249022646 1.0532147891
| 22> H -1.3529660228 0.9348785267 1.2113240346
| 23> H -2.7138241293 1.042597279 -0.6956614617
| 24> *
| 25>
| 26>                          ****END OF INPUT****

CARTESIAN COORDINATES (ANGSTROEM)
---------------------------------
  C      1.737008   -1.423686   -0.151016
  C      1.054695   -0.128375    0.285055
  C      1.989922    1.060346    0.068539
  C     -0.278840    0.073161   -0.461823
  C     -1.472712    0.111520    0.493046
  O     -2.712288    0.227361   -0.174928
  H      1.084505   -2.275915    0.022699
  H      2.656726   -1.576550    0.408771
  H      1.982451   -1.384404   -1.210025
  H      0.842672   -0.201755    1.357642
  H      2.913845    0.922916    0.625323
  H      1.522238    1.982388    0.405495
  H      2.237436    1.160204   -0.986036
  H     -0.440223   -0.736757   -1.175141
  H     -0.250308    1.007062   -1.026968
  H     -1.536647   -0.824902    1.053215
  H     -1.352966    0.934879    1.211324
  H     -2.713824    1.042597   -0.695661

 Total Charge           Charge          ....    0
 Multiplicity           Mult            ....    1
 Number of Electrons    NEL             ....   50
 Basis Dimension        Dim             ....  108

ORBITAL ENERGIES
----------------

  NO   OCC          E(Eh)            E(eV)
   0   2.0000     -18.736133      -509.8361
   1   2.0000      -9.926192      -270.1054
   2   2.0000      -9.897635      -269.3284
   3   2.0000      -9.880529      -268.8629
   4   2.0000      -9.874984      -268.7120
   5   2.0000      -9.873855      -268.6813
   6   2.0000      -0.912930       -24.8421
   7   2.0000      -0.732037       -19.9197
   8   2.0000      -0.648637       -17.6503
   9   2.0000      -0.612228       -16.6596
  10   2.0000      -0.558231       -15.1902
  11   2.0000      -0.503782       -13.7086
  12   2.0000      -0.450874       -12.2689
  13   2.0000      -0.414482       -11.2786
  14   2.0000      -0.404159       -10.9977
  15   2.0000      -0.389324       -10.5941
  16   2.0000      -0.361558        -9.8385
  17   2.0000      -0.343631        -9.3507
  18   2.0000      -0.342110        -9.3093
  19   2.0000      -0.316112        -8.6019
  20   2.0000      -0.303465        -8.2577
  21   2.0000      -0.285268        -7.7625
  22   2.0000      -0.284190        -7.7332
  23   2.0000      -0.262751        -7.1498
  24   2.0000      -0.208585        -5.6759
  25   0.0000       0.029384         0.7996
  26   0.0000       0.037519         1.0209
  27   0.0000       0.065823         1.7911
  28   0.0000       0.073798         2.0082
  29   0.0000       0.084519         2.2999

MULLIKEN ATOMIC CHARGES
-----------------------
   0 C :   -0.255420
   1 C :   -0.185765
   2 C :   -0.255457
   3 C :   -0.146128
   4 C :   -0.008729
   5 O :   -0.435112
   6 H :    0.104169
   7 H :    0.097094
   8 H :    0.098760
   9 H :    0.078759
  10 H :    0.097556
  11 H :    0.099635
  12 H :    0.098617
  13 H :    0.087298
  14 H :    0.066321
  15 H :    0.091103
  16 H :    0.075002
  17 H :    0.292296
Sum of atomic charges:   -0.0000000

LOEWDIN ATOMIC CHARGES
----------------------
   0 C :   -0.328863
   1 C :   -0.156342
   2 C :   -0.329552
   3 C :   -0.242422
   4 C :   -0.124643
   5 O :   -0.343569
   6 H :    0.117669
   7 H :    0.115992
   8 H :    0.116728
   9 H :    0.113652
  10 H :    0.116338
  11 H :    0.115396
  12 H :    0.116425
  13 H :    0.119337
  14 H :    0.109264
  15 H :    0.111943
  16 H :    0.092693
  17 H :    0.279955

  Mayer bond orders larger than 0.100000
B(  0-C ,  1-C ) :   1.1174 B(  0-C ,  6-H ) :   0.9498 B(  0-C ,  7-H ) :   0.9516
B(  0-C ,  8-H ) :   0.9491 B(  1-C ,  2-C ) :   1.1143 B(  1-C ,  3-C ) :   1.0102
B(  1-C ,  9-H ) :   0.9153 B(  2-C , 10-H ) :   0.9513 B(  2-C , 11-H ) :   0.9502
B(  2-C , 12-H ) :   0.9487 B(  3-C ,  4-C ) :   1.1106 B(  3-C , 13-H ) :   0.9180
B(  3-C , 14-H ) :   0.9212 B(  4-C ,  5-O ) :   1.0625 B(  4-C , 15-H ) :   0.9264
B(  4-C , 16-H ) :   0.9262 B(  5-O , 17-H ) :   0.8559

Dispersion correction           -0.012412816
FINAL SINGLE POINT ENERGY      -272.296821068488

DIPOLE MOMENT
-------------

Method             : SCF
Type of density    : Electron Density
Multiplicity       :   1
Irrep              :   0
Energy             :  -272.3664130294923780 Eh
Relativity type    :
Basis              : AO
                                X                 Y                 Z
Electronic contribution:     -6.032669305       0.364095479      -0.064590197
Nuclear contribution   :      6.476142152       0.050060174      -0.011378816
                        -----------------------------------------
Total Dipole Moment    :      0.443472847       0.414155653      -0.075969013
                        -----------------------------------------
Magnitude (a.u.)       :      0.611526256
Magnitude (Debye)      :      1.554376214

Rotational constants in cm-1:             0.225140             0.055737             0.049274
Rotational constants in MHz :          6749.536625          1670.957983          1477.184289

                             ****ORCA TERMINATED NORMALLY****
TOTAL RUN TIME: 0 days 0 hours 0 minutes 8 seconds 196 msec
