                         Program Version 6.0.0  -   RELEASE  -
|  1> ! pbe def2-sv(p) def2/J RI DEFGRID1 loosescf d4 GCP(DFT/SV(P)) printgap
|  2> %output
|  3>     printlevel normal
|  4> end
|  5> * xyz 0 1
|  6> C 1.8862163246 1.1331449576 0.0440817987
|  7> C 1.3858035712 -0.2472097429 -0.3836960916
|  8> H 2.0148423434 -0.6003122354 -1.220544144
|  9> C -0.0595371887 -0.2323411352 -0.9053569725
| 10> C -1.1141740861 0.4286593128 -0.0096266204
| 11> C -2.4010212782 0.6348644139 -0.8091188867
| 12> C -1.4038797181 -0.4069627777 1.2342152442
| 13> O 1.4889180484 -1.186949828 0.6751693595
| 14> H 2.960969674 1.1097820885 0.2110414857
| 15> H 1.6725807856 1.8614238107 -0.7324397968
| 16> H 1.4005264351 1.4404189074 0.9663179479
| 17> H -0.0449499857 0.2843854452 -1.8671812273
| 18> H -0.3519772104 -1.2693316631 -1.0845328213
| 19> H -0.7504586914 1.4118615325 0.3025497998
| 20> H -2.7787426626 -0.3190275872 -1.1710014548
| 21> H -2.2256527595 1.2825802632 -1.665020033
| 22> H -3.1648204874 1.0909875713 -0.1839043821
| 23> H -2.1022245989 0.1117010167 1.8875085608
| 24> H -1.8406442457 -1.3621777305 0.9500681173
| 25> H -0.4892932939 -0.6070505176 1.7837633634
| 26> H 2.4019833986 -1.2065346503 0.9907902071
| 27> *
| 28>
| 29>                          ****END OF INPUT****

CARTESIAN COORDINATES (ANGSTROEM)
---------------------------------
  C      1.886216    1.133145    0.044082
  C      1.385804   -0.247210   -0.383696
  H      2.014842   -0.600312   -1.220544
  C     -0.059537   -0.232341   -0.905357
  C     -1.114174    0.428659   -0.009627
  C     -2.401021    0.634864   -0.809119
  C     -1.403880   -0.406963    1.234215
  O      1.488918   -1.186950    0.675169
  H      2.960970    1.109782    0.211041
  H      1.672581    1.861424   -0.732440
  H      1.400526    1.440419    0.966318
  H     -0.044950    0.284385   -1.867181
  H     -0.351977   -1.269332   -1.084533
  H     -0.750459    1.411862    0.302550
  H     -2.778743   -0.319028   -1.171001
  H     -2.225653    1.282580   -1.665020
  H     -3.164820    1.090988   -0.183904
  H     -2.102225    0.111701    1.887509
  H     -1.840644   -1.362178    0.950068
  H     -0.489293   -0.607051    1.783763
  H      2.401983   -1.206535    0.990790

 Total Charge           Charge          ....    0
 Multiplicity           Mult            ....    1
 Number of Electrons    NEL             ....   58
 Basis Dimension        Dim             ....  126

ORBITAL ENERGIES
----------------

  NO   OCC          E(Eh)            E(eV)
   0   2.0000     -18.739994      -509.9412
   1   2.0000      -9.937205      -270.4051
   2   2.0000      -9.886595      -269.0279
   3   2.0000      -9.877223      -268.7729
   4   2.0000      -9.876678      -268.7581
   5   2.0000      -9.865903      -268.4649
   6   2.0000      -9.855416      -268.1795
   7   2.0000      -0.917779       -24.9740
   8   2.0000      -0.725850       -19.7514
   9   2.0000      -0.674278       -18.3480
  10   2.0000      -0.610763       -16.6197
  11   2.0000      -0.599010       -16.2999
  12   2.0000      -0.534059       -14.5325
  13   2.0000      -0.485664       -13.2156
  14   2.0000      -0.456584       -12.4243
  15   2.0000      -0.417442       -11.3592
  16   2.0000      -0.391954       -10.6656
  17   2.0000      -0.380919       -10.3653
  18   2.0000      -0.367619       -10.0034
  19   2.0000      -0.360082        -9.7983
  20   2.0000      -0.335161        -9.1202
  21   2.0000      -0.329974        -8.9790
  22   2.0000      -0.315218        -8.5775
  23   2.0000      -0.306795        -8.3483
  24   2.0000      -0.297882        -8.1058
  25   2.0000      -0.277542        -7.5523
  26   2.0000      -0.271289        -7.3821
  27   2.0000      -0.256491        -6.9795
  28   2.0000      -0.210789        -5.7359
  29   0.0000       0.020005         0.5444
  30   0.0000       0.052269         1.4223
  31   0.0000       0.068220         1.8564
  32   0.0000       0.074197         2.0190
  33   0.0000       0.084057         2.2873

MULLIKEN ATOMIC CHARGES
-----------------------
   0 C :   -0.286173
   1 C :    0.047286
   2 H :    0.055794
   3 C :   -0.120907
   4 C :   -0.206532
   5 C :   -0.230617
   6 C :   -0.240697
   7 O :   -0.420452
   8 H :    0.093008
   9 H :    0.100091
  10 H :    0.119232
  11 H :    0.076528
  12 H :    0.082227
  13 H :    0.071438
  14 H :    0.090757
  15 H :    0.091442
  16 H :    0.095768
  17 H :    0.086608
  18 H :    0.085513
  19 H :    0.115602
  20 H :    0.294085
Sum of atomic charges:   -0.0000000

LOEWDIN ATOMIC CHARGES
----------------------
   0 C :   -0.356843
   1 C :   -0.055611
   2 H :    0.095468
   3 C :   -0.219284
   4 C :   -0.158479
   5 C :   -0.328012
   6 C :   -0.336660
   7 O :   -0.326966
   8 H :    0.114554
   9 H :    0.124631
  10 H :    0.123605
  11 H :    0.117352
  12 H :    0.121378
  13 H :    0.112111
  14 H :    0.115485
  15 H :    0.113180
  16 H :    0.116046
  17 H :    0.111367
  18 H :    0.115065
  19 H :    0.119971
  20 H :    0.281642

  Mayer bond orders larger than 0.100000
B(  0-C ,  1-C ) :   1.1070 B(  0-C ,  8-H ) :   0.9434 B(  0-C ,  9-H ) :   0.9386
B(  0-C , 10-H ) :   0.9358 B(  1-C ,  2-H ) :   0.9061 B(  1-C ,  3-C ) :   1.0860
B(  1-C ,  7-O ) :   1.0450 B(  3-C ,  4-C ) :   1.0879 B(  3-C , 11-H ) :   0.9137
B(  3-C , 12-H ) :   0.9058 B(  4-C ,  5-C ) :   1.1132 B(  4-C ,  6-C ) :   1.1156
B(  4-C , 13-H ) :   0.8972 B(  5-C , 14-H ) :   0.9497 B(  5-C , 15-H ) :   0.9488
B(  5-C , 16-H ) :   0.9518 B(  6-C , 17-H ) :   0.9485 B(  6-C , 18-H ) :   0.9485
B(  6-C , 19-H ) :   0.9319 B(  7-O , 20-H ) :   0.8512

Dispersion correction           -0.016703508
FINAL SINGLE POINT ENERGY      -311.516811298608

DIPOLE MOMENT
-------------

Method             : SCF
Type of density    : Electron Density
Multiplicity       :   1
Irrep              :   0
Energy             :  -311.5966541753454635 Eh
Relativity type    :
Basis              : AO
                                X                 Y                 Z
Electronic contribution:      3.665136066      -2.725757802       0.638475263
Nuclear contribution   :     -3.071836558       3.011439255      -0.771080277
                        -----------------------------------------
Total Dipole Moment    :      0.593299508       0.285681453      -0.132605014
                        -----------------------------------------
Magnitude (a.u.)       :      0.671715929
Magnitude (Debye)      :      1.707366204

Rotational constants in cm-1:             0.132240             0.054282             0.047586
Rotational constants in MHz :          3964.458766          1627.348295          1426.598964

                             ****ORCA TERMINATED NORMALLY****
TOTAL RUN TIME: 0 days 0 hours 0 minutes 9 seconds 392 msec
