                         Program Version 6.0.0  -   RELEASE  -
|  1> ! pbe def2-sv(p) def2/J RI DEFGRID1 loosescf d4 GCP(DFT/SV(P)) printgap
|  2> %output
|  3>     printlevel normal
|  4> end
|  5> * xyz 0 1
|  6> C 1.7851377564 -1.3825210697 0.1242948283
|  7> C 0.8167447842 -0.2091580191 0.2614162315
|  8> C 1.5811317888 1.1079525243 0.1453117479
|  9> C -0.2882834731 -0.3171203857 -0.7964531124
| 10> C -1.4913636509 0.5774193789 -0.5086841533
| 11> O -2.1174996241 0.1390477119 0.6831883917
| 12> H 2.24789197 -1.3759874072 -0.8603818869
| 13> H 1.2647564383 -2.3283305919 0.2547181635
| 14> H 2.5699899731 -1.3170161023 0.8738960097
| 15> H 0.3401290207 -0.2600474672 1.2460084934
| 16> H 2.3578625283 1.1588459102 0.9045374542
| 17> H 0.9214948072 1.9607485507 0.2807000164
| 18> H 2.050833922 1.1857675591 -0.833167938
| 19> H -0.6474561895 -1.3475526208 -0.8272267037
| 20> H 0.1116702868 -0.0614714715 -1.7788616402
| 21> H -1.1734635882 1.6225812274 -0.4069551925
| 22> H -2.1965934008 0.5108643933 -1.3489048287
| 23> H -2.8745192988 0.7069096549 0.875719808
| 24> *
| 25>
| 26>                          ****END OF INPUT****

CARTESIAN COORDINATES (ANGSTROEM)
---------------------------------
  C      1.785138   -1.382521    0.124295
  C      0.816745   -0.209158    0.261416
  C      1.581132    1.107953    0.145312
  C     -0.288283   -0.317120   -0.796453
  C     -1.491364    0.577419   -0.508684
  O     -2.117500    0.139048    0.683188
  H      2.247892   -1.375987   -0.860382
  H      1.264756   -2.328331    0.254718
  H      2.569990   -1.317016    0.873896
  H      0.340129   -0.260047    1.246008
  H      2.357863    1.158846    0.904537
  H      0.921495    1.960749    0.280700
  H      2.050834    1.185768   -0.833168
  H     -0.647456   -1.347553   -0.827227
  H      0.111670   -0.061471   -1.778862
  H     -1.173464    1.622581   -0.406955
  H     -2.196593    0.510864   -1.348905
  H     -2.874519    0.706910    0.875720

 Total Charge           Charge          ....    0
 Multiplicity           Mult            ....    1
 Number of Electrons    NEL             ....   50
 Basis Dimension        Dim             ....  108

ORBITAL ENERGIES
----------------

  NO   OCC          E(Eh)            E(eV)
   0   2.0000     -18.738172      -509.8916
   1   2.0000      -9.926372      -270.1103
   2   2.0000      -9.885257      -268.9915
   3   2.0000      -9.877543      -268.7816
   4   2.0000      -9.867703      -268.5138
   5   2.0000      -9.865533      -268.4548
   6   2.0000      -0.914063       -24.8729
   7   2.0000      -0.724743       -19.7213
   8   2.0000      -0.648344       -17.6423
   9   2.0000      -0.604752       -16.4561
  10   2.0000      -0.547764       -14.9054
  11   2.0000      -0.492225       -13.3941
  12   2.0000      -0.460092       -12.5198
  13   2.0000      -0.412994       -11.2381
  14   2.0000      -0.402134       -10.9426
  15   2.0000      -0.379154       -10.3173
  16   2.0000      -0.354314        -9.6414
  17   2.0000      -0.336367        -9.1530
  18   2.0000      -0.333976        -9.0880
  19   2.0000      -0.318298        -8.6613
  20   2.0000      -0.294528        -8.0145
  21   2.0000      -0.278031        -7.5656
  22   2.0000      -0.276224        -7.5164
  23   2.0000      -0.261285        -7.1099
  24   2.0000      -0.209553        -5.7022
  25   0.0000       0.026195         0.7128
  26   0.0000       0.050108         1.3635
  27   0.0000       0.074158         2.0180
  28   0.0000       0.077401         2.1062
  29   0.0000       0.086211         2.3459

MULLIKEN ATOMIC CHARGES
-----------------------
   0 C :   -0.234544
   1 C :   -0.185248
   2 C :   -0.256762
   3 C :   -0.146851
   4 C :    0.012456
   5 O :   -0.439726
   6 H :    0.087234
   7 H :    0.099228
   8 H :    0.095284
   9 H :    0.087716
  10 H :    0.097608
  11 H :    0.101489
  12 H :    0.088223
  13 H :    0.084889
  14 H :    0.075625
  15 H :    0.065978
  16 H :    0.069768
  17 H :    0.297634
Sum of atomic charges:    0.0000000

LOEWDIN ATOMIC CHARGES
----------------------
   0 C :   -0.328512
   1 C :   -0.160690
   2 C :   -0.331072
   3 C :   -0.229626
   4 C :   -0.120814
   5 O :   -0.349718
   6 H :    0.113696
   7 H :    0.116971
   8 H :    0.115620
   9 H :    0.119757
  10 H :    0.117737
  11 H :    0.113976
  12 H :    0.113917
  13 H :    0.120314
  14 H :    0.117493
  15 H :    0.092049
  16 H :    0.094451
  17 H :    0.284449

  Mayer bond orders larger than 0.100000
B(  0-C ,  1-C ) :   1.1144 B(  0-C ,  6-H ) :   0.9495 B(  0-C ,  7-H ) :   0.9498
B(  0-C ,  8-H ) :   0.9527 B(  1-C ,  2-C ) :   1.1066 B(  1-C ,  3-C ) :   1.0830
B(  1-C ,  9-H ) :   0.9005 B(  2-C , 10-H ) :   0.9505 B(  2-C , 11-H ) :   0.9474
B(  2-C , 12-H ) :   0.9490 B(  3-C ,  4-C ) :   1.1305 B(  3-C , 13-H ) :   0.9136
B(  3-C , 14-H ) :   0.9130 B(  4-C ,  5-O ) :   1.0744 B(  4-C , 15-H ) :   0.9136
B(  4-C , 16-H ) :   0.9214 B(  5-O , 17-H ) :   0.8534

Dispersion correction           -0.012819499
FINAL SINGLE POINT ENERGY      -272.300581601688

DIPOLE MOMENT
-------------

Method             : SCF
Type of density    : Electron Density
Multiplicity       :   1
Irrep              :   0
Energy             :  -272.3702574565913892 Eh
Relativity type    :
Basis              : AO
                                X                 Y                 Z
Electronic contribution:     -4.943455082       0.026870509       1.312298052
Nuclear contribution   :      4.633684494       0.429220346      -1.509609554
                        -----------------------------------------
Total Dipole Moment    :     -0.309770588       0.456090855      -0.197311502
                        -----------------------------------------
Magnitude (a.u.)       :      0.585583908
Magnitude (Debye)      :      1.488436007

Rotational constants in cm-1:             0.188574             0.066865             0.060248
Rotational constants in MHz :          5653.299172          2004.571009          1806.181320

                             ****ORCA TERMINATED NORMALLY****
TOTAL RUN TIME: 0 days 0 hours 0 minutes 8 seconds 16 msec
