                         Program Version 6.0.0  -   RELEASE  -
|  1> ! pbe def2-sv(p) def2/J RI DEFGRID1 loosescf d4 GCP(DFT/SV(P)) printgap
|  2> %output
|  3>     printlevel normal
|  4> end
|  5> * xyz 0 1
|  6> C 2.2107374076 0.7274638479 0.1996283333
|  7> C 1.6291547205 -0.531100765 -0.4325989489
|  8> C 0.2652886759 -0.9178193463 0.1425523721
|  9> C -0.8884505464 -0.0137677146 -0.3083657618
| 10> H -0.7767022283 0.1945962543 -1.3862945465
| 11> C -2.2364615743 -0.6978793748 -0.0720085742
| 12> O -0.8111705411 1.2088966126 0.4078596379
| 13> H 1.5211393425 1.5595205094 0.0924561162
| 14> H 3.1552383432 0.9886820921 -0.2720271855
| 15> H 2.385632317 0.5696682457 1.2614485662
| 16> H 1.5334671437 -0.3871383405 -1.5114853536
| 17> H 2.3204075587 -1.3613480233 -0.2701867246
| 18> H 0.0310827636 -1.9371565792 -0.1675722661
| 19> H 0.3085918358 -0.8906626289 1.2326266183
| 20> H -3.0535799785 -0.0510236225 -0.3844413199
| 21> H -2.2922255186 -1.6215038253 -0.6402616746
| 22> H -2.3537993772 -0.9241018067 0.9851466839
| 23> H -1.5844562881 1.7485358944 0.1965968241
| 24> *
| 25>
| 26>                          ****END OF INPUT****

CARTESIAN COORDINATES (ANGSTROEM)
---------------------------------
  C      2.210737    0.727464    0.199628
  C      1.629155   -0.531101   -0.432599
  C      0.265289   -0.917819    0.142552
  C     -0.888451   -0.013768   -0.308366
  H     -0.776702    0.194596   -1.386295
  C     -2.236462   -0.697879   -0.072009
  O     -0.811171    1.208897    0.407860
  H      1.521139    1.559521    0.092456
  H      3.155238    0.988682   -0.272027
  H      2.385632    0.569668    1.261449
  H      1.533467   -0.387138   -1.511485
  H      2.320408   -1.361348   -0.270187
  H      0.031083   -1.937157   -0.167572
  H      0.308592   -0.890663    1.232627
  H     -3.053580   -0.051024   -0.384441
  H     -2.292226   -1.621504   -0.640262
  H     -2.353799   -0.924102    0.985147
  H     -1.584456    1.748536    0.196597

 Total Charge           Charge          ....    0
 Multiplicity           Mult            ....    1
 Number of Electrons    NEL             ....   50
 Basis Dimension        Dim             ....  108

ORBITAL ENERGIES
----------------

  NO   OCC          E(Eh)            E(eV)
   0   2.0000     -18.740588      -509.9573
   1   2.0000      -9.936718      -270.3919
   2   2.0000      -9.877641      -268.7843
   3   2.0000      -9.876280      -268.7472
   4   2.0000      -9.876209      -268.7453
   5   2.0000      -9.856471      -268.2082
   6   2.0000      -0.918296       -24.9881
   7   2.0000      -0.712428       -19.3861
   8   2.0000      -0.666192       -18.1280
   9   2.0000      -0.602887       -16.4054
  10   2.0000      -0.542702       -14.7677
  11   2.0000      -0.501657       -13.6508
  12   2.0000      -0.458737       -12.4829
  13   2.0000      -0.405259       -11.0277
  14   2.0000      -0.398667       -10.8483
  15   2.0000      -0.371543       -10.1102
  16   2.0000      -0.365196        -9.9375
  17   2.0000      -0.341705        -9.2983
  18   2.0000      -0.328671        -8.9436
  19   2.0000      -0.317657        -8.6439
  20   2.0000      -0.296440        -8.0666
  21   2.0000      -0.286071        -7.7844
  22   2.0000      -0.280546        -7.6340
  23   2.0000      -0.256636        -6.9834
  24   2.0000      -0.212484        -5.7820
  25   0.0000       0.023661         0.6439
  26   0.0000       0.057304         1.5593
  27   0.0000       0.069279         1.8852
  28   0.0000       0.075387         2.0514
  29   0.0000       0.089695         2.4407

MULLIKEN ATOMIC CHARGES
-----------------------
   0 C :   -0.281084
   1 C :   -0.172561
   2 C :   -0.143429
   3 C :    0.009079
   4 H :    0.054712
   5 C :   -0.257857
   6 O :   -0.418838
   7 H :    0.117624
   8 H :    0.092018
   9 H :    0.091564
  10 H :    0.076554
  11 H :    0.081509
  12 H :    0.079595
  13 H :    0.084741
  14 H :    0.090003
  15 H :    0.097982
  16 H :    0.104815
  17 H :    0.293574
Sum of atomic charges:    0.0000000

LOEWDIN ATOMIC CHARGES
----------------------
   0 C :   -0.348670
   1 C :   -0.231633
   2 C :   -0.228837
   3 C :   -0.055728
   4 H :    0.093000
   5 C :   -0.352817
   6 O :   -0.327226
   7 H :    0.121176
   8 H :    0.112869
   9 H :    0.115422
  10 H :    0.111026
  11 H :    0.113070
  12 H :    0.118454
  13 H :    0.121758
  14 H :    0.112032
  15 H :    0.122547
  16 H :    0.122796
  17 H :    0.280761

  Mayer bond orders larger than 0.100000
B(  0-C ,  1-C ) :   1.1605 B(  0-C ,  7-H ) :   0.9413 B(  0-C ,  8-H ) :   0.9506
B(  0-C ,  9-H ) :   0.9542 B(  1-C ,  2-C ) :   1.1280 B(  1-C , 10-H ) :   0.9255
B(  1-C , 11-H ) :   0.9291 B(  2-C ,  3-C ) :   1.0722 B(  2-C , 12-H ) :   0.9209
B(  2-C , 13-H ) :   0.9070 B(  3-C ,  4-H ) :   0.9065 B(  3-C ,  5-C ) :   1.1114
B(  3-C ,  6-O ) :   1.0467 B(  5-C , 14-H ) :   0.9459 B(  5-C , 15-H ) :   0.9371
B(  5-C , 16-H ) :   0.9434 B(  6-O , 17-H ) :   0.8508

Dispersion correction           -0.012696178
FINAL SINGLE POINT ENERGY      -272.303918149892

DIPOLE MOMENT
-------------

Method             : SCF
Type of density    : Electron Density
Multiplicity       :   1
Irrep              :   0
Energy             :  -272.3741801817838564 Eh
Relativity type    :
Basis              : AO
                                X                 Y                 Z
Electronic contribution:     -1.649287000       1.884433097       0.484304861
Nuclear contribution   :      1.108875932      -1.963397057      -0.804515171
                        -----------------------------------------
Total Dipole Moment    :     -0.540411067      -0.078963961      -0.320210310
                        -----------------------------------------
Magnitude (a.u.)       :      0.633098785
Magnitude (Debye)      :      1.609209225

Rotational constants in cm-1:             0.209147             0.071644             0.058110
Rotational constants in MHz :          6270.075348          2147.830820          1742.090929

                             ****ORCA TERMINATED NORMALLY****
TOTAL RUN TIME: 0 days 0 hours 0 minutes 7 seconds 399 msec
