                         Program Version 6.0.0  -   RELEASE  -
|  1> ! r2scan-3c def2/J RI DEFGRID2 scfconv6 printgap
|  2> %output
|  3>     printlevel normal
|  4> end
|  5> * xyz 0 1
|  6> C -2.0591887893 0.3285350125 0.7176080373
|  7> C -1.5223524284 0.2264770953 -0.7050199501
|  8> C -0.2399654952 -0.604309603 -0.7754654505
|  9> C 0.9369818187 -0.046648961 -0.0135791012
| 10> C 1.1901543398 1.246040626 0.1149000612
| 11> C 1.8438505376 -1.0874008892 0.5726475368
| 12> H -2.2867944046 -0.6603467671 1.109632786
| 13> H -2.9679665492 0.9250595091 0.7410954816
| 14> H -1.3222027626 0.7941683791 1.3675235476
| 15> H -2.274847485 -0.2460712043 -1.3404658222
| 16> H -1.3419481096 1.2261527015 -1.1020524972
| 17> H -0.4542895298 -1.6072560027 -0.3987937025
| 18> H 0.0550708701 -0.7099631256 -1.8244411472
| 19> H 2.0544790722 1.5986402334 0.6527390854
| 20> H 0.5568071777 2.0087958613 -0.3028234032
| 21> H 1.3132014514 -1.6601736331 1.3323656961
| 22> H 2.1662458605 -1.7817473779 -0.2019759736
| 23> H 2.7209128493 -0.6343654226 1.0267101836
| 24> *
| 25>
| 26>                          ****END OF INPUT****

CARTESIAN COORDINATES (ANGSTROEM)
---------------------------------
  C     -2.059189    0.328535    0.717608
  C     -1.522352    0.226477   -0.705020
  C     -0.239965   -0.604310   -0.775465
  C      0.936982   -0.046649   -0.013579
  C      1.190154    1.246041    0.114900
  C      1.843851   -1.087401    0.572648
  H     -2.286794   -0.660347    1.109633
  H     -2.967967    0.925060    0.741095
  H     -1.322203    0.794168    1.367524
  H     -2.274847   -0.246071   -1.340466
  H     -1.341948    1.226153   -1.102052
  H     -0.454290   -1.607256   -0.398794
  H      0.055071   -0.709963   -1.824441
  H      2.054479    1.598640    0.652739
  H      0.556807    2.008796   -0.302823
  H      1.313201   -1.660174    1.332366
  H      2.166246   -1.781747   -0.201976
  H      2.720913   -0.634365    1.026710

 Total Charge           Charge          ....    0
 Multiplicity           Mult            ....    1
 Number of Electrons    NEL             ....   48
 Basis Dimension        Dim             ....  174

ORBITAL ENERGIES
----------------

  NO   OCC          E(Eh)            E(eV)
   0   2.0000     -10.037583      -273.1365
   1   2.0000     -10.028454      -272.8881
   2   2.0000     -10.025584      -272.8100
   3   2.0000     -10.022317      -272.7211
   4   2.0000     -10.011174      -272.4179
   5   2.0000     -10.007266      -272.3116
   6   2.0000      -0.786227       -21.3943
   7   2.0000      -0.728803       -19.8317
   8   2.0000      -0.650702       -17.7065
   9   2.0000      -0.646820       -17.6009
  10   2.0000      -0.561459       -15.2781
  11   2.0000      -0.483710       -13.1624
  12   2.0000      -0.439967       -11.9721
  13   2.0000      -0.421361       -11.4658
  14   2.0000      -0.407338       -11.0842
  15   2.0000      -0.388704       -10.5772
  16   2.0000      -0.377448       -10.2709
  17   2.0000      -0.350050        -9.5253
  18   2.0000      -0.336444        -9.1551
  19   2.0000      -0.325921        -8.8688
  20   2.0000      -0.308985        -8.4079
  21   2.0000      -0.297862        -8.1052
  22   2.0000      -0.285983        -7.7820
  23   2.0000      -0.221185        -6.0188
  24   0.0000      -0.006756        -0.1838
  25   0.0000       0.086589         2.3562
  26   0.0000       0.107863         2.9351
  27   0.0000       0.121158         3.2969
  28   0.0000       0.133550         3.6341

MULLIKEN ATOMIC CHARGES
-----------------------
   0 C :   -0.469038
   1 C :   -0.237201
   2 C :   -0.288645
   3 C :    0.118396
   4 C :   -0.379450
   5 C :   -0.511686
   6 H :    0.138486
   7 H :    0.143723
   8 H :    0.164428
   9 H :    0.140942
  10 H :    0.131727
  11 H :    0.144420
  12 H :    0.164226
  13 H :    0.141777
  14 H :    0.138092
  15 H :    0.160259
  16 H :    0.151943
  17 H :    0.147603
Sum of atomic charges:    0.0000000

LOEWDIN ATOMIC CHARGES
----------------------
   0 C :   -0.423490
   1 C :   -0.309245
   2 C :   -0.292312
   3 C :   -0.130628
   4 C :   -0.335449
   5 C :   -0.396897
   6 H :    0.148652
   7 H :    0.150188
   8 H :    0.158610
   9 H :    0.152703
  10 H :    0.151506
  11 H :    0.160525
  12 H :    0.171529
  13 H :    0.157354
  14 H :    0.157202
  15 H :    0.160991
  16 H :    0.161208
  17 H :    0.157553

  Mayer bond orders larger than 0.100000
B(  0-C ,  1-C ) :   0.9092 B(  0-C ,  6-H ) :   0.9823 B(  0-C ,  7-H ) :   0.9696
B(  0-C ,  8-H ) :   0.9759 B(  1-C ,  2-C ) :   0.9173 B(  1-C ,  9-H ) :   0.9679
B(  1-C , 10-H ) :   0.9617 B(  2-C ,  3-C ) :   0.8494 B(  2-C , 11-H ) :   1.0143
B(  2-C , 12-H ) :   0.9512 B(  3-C ,  4-C ) :   1.8741 B(  3-C ,  5-C ) :   0.8762
B(  4-C , 13-H ) :   0.9743 B(  4-C , 14-H ) :   0.9829 B(  5-C , 15-H ) :   0.9763
B(  5-C , 16-H ) :   0.9691 B(  5-C , 17-H ) :   0.9912

Dispersion correction           -0.004630980
FINAL SINGLE POINT ENERGY      -235.760522271457

DIPOLE MOMENT
-------------

Method             : SCF
Type of density    : Electron Density
Multiplicity       :   1
Irrep              :   0
Energy             :  -235.7635532678500283 Eh
Relativity type    :
Basis              : AO
                                X                 Y                 Z
Electronic contribution:      1.615186198       0.485412127      -1.051428090
Nuclear contribution   :     -1.671179430      -0.700908032       0.993997094
                        -----------------------------------------
Total Dipole Moment    :     -0.055993233      -0.215495905      -0.057430995
                        -----------------------------------------
Magnitude (a.u.)       :      0.229939223
Magnitude (Debye)      :      0.584459058

Rotational constants in cm-1:             0.186196             0.073240             0.067375
Rotational constants in MHz :          5582.020388          2195.685684          2019.838818

                             ****ORCA TERMINATED NORMALLY****
TOTAL RUN TIME: 0 days 0 hours 0 minutes 19 seconds 119 msec
