                         Program Version 6.0.0  -   RELEASE  -
|  1> ! r2scan-3c def2/J RI DEFGRID2 scfconv6 printgap
|  2> %output
|  3>     printlevel normal
|  4> end
|  5> %cpcm
|  6>     smd true
|  7>     smdsolvent "water"
|  8> end
|  9> * xyz 0 1
| 10> C -2.0591887893 0.3285350125 0.7176080373
| 11> C -1.5223524284 0.2264770953 -0.7050199501
| 12> C -0.2399654952 -0.604309603 -0.7754654505
| 13> C 0.9369818187 -0.046648961 -0.0135791012
| 14> C 1.1901543398 1.246040626 0.1149000612
| 15> C 1.8438505376 -1.0874008892 0.5726475368
| 16> H -2.2867944046 -0.6603467671 1.109632786
| 17> H -2.9679665492 0.9250595091 0.7410954816
| 18> H -1.3222027626 0.7941683791 1.3675235476
| 19> H -2.274847485 -0.2460712043 -1.3404658222
| 20> H -1.3419481096 1.2261527015 -1.1020524972
| 21> H -0.4542895298 -1.6072560027 -0.3987937025
| 22> H 0.0550708701 -0.7099631256 -1.8244411472
| 23> H 2.0544790722 1.5986402334 0.6527390854
| 24> H 0.5568071777 2.0087958613 -0.3028234032
| 25> H 1.3132014514 -1.6601736331 1.3323656961
| 26> H 2.1662458605 -1.7817473779 -0.2019759736
| 27> H 2.7209128493 -0.6343654226 1.0267101836
| 28> *
| 29>
| 30>                          ****END OF INPUT****

CARTESIAN COORDINATES (ANGSTROEM)
---------------------------------
  C     -2.059189    0.328535    0.717608
  C     -1.522352    0.226477   -0.705020
  C     -0.239965   -0.604310   -0.775465
  C      0.936982   -0.046649   -0.013579
  C      1.190154    1.246041    0.114900
  C      1.843851   -1.087401    0.572648
  H     -2.286794   -0.660347    1.109633
  H     -2.967967    0.925060    0.741095
  H     -1.322203    0.794168    1.367524
  H     -2.274847   -0.246071   -1.340466
  H     -1.341948    1.226153   -1.102052
  H     -0.454290   -1.607256   -0.398794
  H      0.055071   -0.709963   -1.824441
  H      2.054479    1.598640    0.652739
  H      0.556807    2.008796   -0.302823
  H      1.313201   -1.660174    1.332366
  H      2.166246   -1.781747   -0.201976
  H      2.720913   -0.634365    1.026710

 Total Charge           Charge          ....    0
 Multiplicity           Mult            ....    1
 Number of Electrons    NEL             ....   48
 Basis Dimension        Dim             ....  174

ORBITAL ENERGIES
----------------

  NO   OCC          E(Eh)            E(eV)
   0   2.0000     -10.036112      -273.0965
   1   2.0000     -10.020578      -272.6738
   2   2.0000     -10.018071      -272.6056
   3   2.0000     -10.014313      -272.5033
   4   2.0000     -10.006153      -272.2813
   5   2.0000     -10.003665      -272.2136
   6   2.0000      -0.781600       -21.2684
   7   2.0000      -0.723428       -19.6855
   8   2.0000      -0.645565       -17.5667
   9   2.0000      -0.641700       -17.4616
  10   2.0000      -0.555382       -15.1127
  11   2.0000      -0.478811       -13.0291
  12   2.0000      -0.434281       -11.8174
  13   2.0000      -0.415053       -11.2942
  14   2.0000      -0.401284       -10.9195
  15   2.0000      -0.383679       -10.4404
  16   2.0000      -0.370659       -10.0861
  17   2.0000      -0.343500        -9.3471
  18   2.0000      -0.330496        -8.9933
  19   2.0000      -0.320599        -8.7239
  20   2.0000      -0.302733        -8.2378
  21   2.0000      -0.290418        -7.9027
  22   2.0000      -0.280041        -7.6203
  23   2.0000      -0.221153        -6.0179
  24   0.0000      -0.006175        -0.1680
  25   0.0000       0.092732         2.5234
  26   0.0000       0.115598         3.1456
  27   0.0000       0.127408         3.4670
  28   0.0000       0.138603         3.7716

MULLIKEN ATOMIC CHARGES
-----------------------
   0 C :   -0.503435
   1 C :   -0.245190
   2 C :   -0.289626
   3 C :    0.100838
   4 C :   -0.460834
   5 C :   -0.540672
   6 H :    0.153014
   7 H :    0.155291
   8 H :    0.160019
   9 H :    0.151892
  10 H :    0.143972
  11 H :    0.160272
  12 H :    0.177880
  13 H :    0.165702
  14 H :    0.162439
  15 H :    0.176885
  16 H :    0.168993
  17 H :    0.162559
Sum of atomic charges:    0.0000000

LOEWDIN ATOMIC CHARGES
----------------------
   0 C :   -0.431054
   1 C :   -0.311208
   2 C :   -0.293888
   3 C :   -0.130438
   4 C :   -0.364982
   5 C :   -0.404276
   6 H :    0.152502
   7 H :    0.152928
   8 H :    0.155166
   9 H :    0.156258
  10 H :    0.154745
  11 H :    0.166401
  12 H :    0.176425
  13 H :    0.162614
  14 H :    0.162896
  15 H :    0.167440
  16 H :    0.167504
  17 H :    0.160967

  Mayer bond orders larger than 0.100000
B(  0-C ,  1-C ) :   0.9015 B(  0-C ,  6-H ) :   0.9789 B(  0-C ,  7-H ) :   0.9675
B(  0-C ,  8-H ) :   0.9771 B(  1-C ,  2-C ) :   0.9084 B(  1-C ,  9-H ) :   0.9663
B(  1-C , 10-H ) :   0.9618 B(  2-C ,  3-C ) :   0.8427 B(  2-C , 11-H ) :   1.0100
B(  2-C , 12-H ) :   0.9506 B(  3-C ,  4-C ) :   1.8455 B(  3-C ,  5-C ) :   0.8779
B(  4-C , 13-H ) :   0.9742 B(  4-C , 14-H ) :   0.9811 B(  5-C , 15-H ) :   0.9684
B(  5-C , 16-H ) :   0.9631 B(  5-C , 17-H ) :   0.9881

Dispersion correction           -0.004630980
FINAL SINGLE POINT ENERGY      -235.758419368902

DIPOLE MOMENT
-------------

Method             : SCF
Type of density    : Electron Density
Multiplicity       :   1
Irrep              :   0
Energy             :  -235.7614503652950475 Eh
Relativity type    :
Basis              : AO
                                X                 Y                 Z
Electronic contribution:      1.567157819       0.349086014      -1.091375834
Nuclear contribution   :     -1.671179430      -0.700908032       0.993997094
                        -----------------------------------------
Total Dipole Moment    :     -0.104021612      -0.351822019      -0.097378739
                        -----------------------------------------
Magnitude (a.u.)       :      0.379581147
Magnitude (Debye)      :      0.964818601

Rotational constants in cm-1:             0.186196             0.073240             0.067375
Rotational constants in MHz :          5582.020388          2195.685684          2019.838818

                             ****ORCA TERMINATED NORMALLY****
TOTAL RUN TIME: 0 days 0 hours 0 minutes 22 seconds 248 msec
