                         Program Version 6.0.0  -   RELEASE  -
|  1> ! pbe def2-sv(p) def2/J RI DEFGRID1 loosescf d4 GCP(DFT/SV(P)) printgap
|  2> %output
|  3>     printlevel normal
|  4> end
|  5> * xyz 0 1
|  6> C -4.0258932578 -0.6238415521 -1.634110148
|  7> C -3.0254510256 -1.5395570427 -0.9379803608
|  8> C -2.4573261984 -1.0310261513 0.3971797978
|  9> H -1.9736352251 -1.8907482258 0.8767196748
| 10> C -3.5044162662 -0.4846222248 1.3573783301
| 11> N -1.3339744932 -0.0918610788 0.1837561367
| 12> C -0.0611343532 -0.6674672964 0.2320050569
| 13> O 0.0862007042 -1.8657086017 0.4089414576
| 14> C 1.044129979 0.2495529214 0.0682649713
| 15> C 0.8670458529 1.5780590241 -0.1404095931
| 16> N -0.4200296859 2.0185285546 -0.1999829339
| 17> C -1.5481188015 1.2412845898 -0.0719453367
| 18> O -2.6410954749 1.7616882617 -0.1888716402
| 19> C 1.9318048043 2.5939502491 -0.3223622176
| 20> Br 2.7647560537 -0.5545074822 0.1623829041
| 21> H -4.2786522877 -1.0393990469 -2.6063299166
| 22> H -4.9381712389 -0.5400428668 -1.051228028
| 23> H -3.6220609603 0.3736253487 -1.7781726562
| 24> H -3.5094458483 -2.4968101713 -0.7363113332
| 25> H -2.1809376821 -1.7392564715 -1.6033066398
| 26> H -4.2405182944 -1.2621788941 1.5380295475
| 27> H -3.0396425737 -0.2182032897 2.3039807173
| 28> H -4.0003113162 0.3910874276 0.9534163118
| 29> H -0.5983297047 3.0025614938 -0.3775757406
| 30> H 1.9155290253 2.9624581372 -1.346660783
| 31> H 2.9107977038 2.1706419309 -0.1208306873
| 32> H 1.7595754082 3.4362851578 0.3433296096
| 33> *
| 34>
| 35>                          ****END OF INPUT****

CARTESIAN COORDINATES (ANGSTROEM)
---------------------------------
  C     -4.025893   -0.623842   -1.634110
  C     -3.025451   -1.539557   -0.937980
  C     -2.457326   -1.031026    0.397180
  H     -1.973635   -1.890748    0.876720
  C     -3.504416   -0.484622    1.357378
  N     -1.333974   -0.091861    0.183756
  C     -0.061134   -0.667467    0.232005
  O      0.086201   -1.865709    0.408941
  C      1.044130    0.249553    0.068265
  C      0.867046    1.578059   -0.140410
  N     -0.420030    2.018529   -0.199983
  C     -1.548119    1.241285   -0.071945
  O     -2.641095    1.761688   -0.188872
  C      1.931805    2.593950   -0.322362
  Br     2.764756   -0.554507    0.162383
  H     -4.278652   -1.039399   -2.606330
  H     -4.938171   -0.540043   -1.051228
  H     -3.622061    0.373625   -1.778173
  H     -3.509446   -2.496810   -0.736311
  H     -2.180938   -1.739256   -1.603307
  H     -4.240518   -1.262179    1.538030
  H     -3.039643   -0.218203    2.303981
  H     -4.000311    0.391087    0.953416
  H     -0.598330    3.002561   -0.377576
  H      1.915529    2.962458   -1.346661
  H      2.910798    2.170642   -0.120831
  H      1.759575    3.436285    0.343330

 Total Charge           Charge          ....    0
 Multiplicity           Mult            ....    1
 Number of Electrons    NEL             ....  132
 Basis Dimension        Dim             ....  240

ORBITAL ENERGIES
----------------

  NO   OCC          E(Eh)            E(eV)
   0   2.0000    -480.941848    -13087.0930
   1   2.0000     -61.783582     -1681.2167
   2   2.0000     -55.714285     -1516.0628
   3   2.0000     -55.711149     -1515.9774
   4   2.0000     -55.710927     -1515.9714
   5   2.0000     -18.733981      -509.7775
   6   2.0000     -18.730038      -509.6702
   7   2.0000     -14.061916      -382.6442
   8   2.0000     -14.059937      -382.5903
   9   2.0000     -10.032644      -273.0021
  10   2.0000     -10.001866      -272.1646
  11   2.0000      -9.979883      -271.5664
  12   2.0000      -9.952199      -270.8131
  13   2.0000      -9.932120      -270.2667
  14   2.0000      -9.918798      -269.9042
  15   2.0000      -9.886047      -269.0130
  16   2.0000      -9.871943      -268.6292
  17   2.0000      -9.864802      -268.4349
  18   2.0000      -8.408957      -228.8194
  19   2.0000      -6.291426      -171.1984
  20   2.0000      -6.276480      -170.7917
  21   2.0000      -6.275924      -170.7766
  22   2.0000      -2.492446       -67.8229
  23   2.0000      -2.488779       -67.7231
  24   2.0000      -2.488426       -67.7135
  25   2.0000      -2.477177       -67.4074
  26   2.0000      -2.477151       -67.4067
  27   2.0000      -0.987286       -26.8654
  28   2.0000      -0.947976       -25.7957
  29   2.0000      -0.896610       -24.3980
  30   2.0000      -0.859648       -23.3922
  31   2.0000      -0.766849       -20.8670
  32   2.0000      -0.728084       -19.8122
  33   2.0000      -0.707354       -19.2481
  34   2.0000      -0.667477       -18.1630
  35   2.0000      -0.647554       -17.6208
  36   2.0000      -0.615779       -16.7562
  37   2.0000      -0.593646       -16.1539
  38   2.0000      -0.572464       -15.5775
  39   2.0000      -0.531612       -14.4659
  40   2.0000      -0.527140       -14.3442
  41   2.0000      -0.488348       -13.2886
  42   2.0000      -0.454001       -12.3540
  43   2.0000      -0.433544       -11.7973
  44   2.0000      -0.419109       -11.4045
  45   2.0000      -0.412194       -11.2164
  46   2.0000      -0.404691       -11.0122
  47   2.0000      -0.387761       -10.5515
  48   2.0000      -0.386573       -10.5192
  49   2.0000      -0.382262       -10.4019
  50   2.0000      -0.371967       -10.1217
  51   2.0000      -0.368903       -10.0384
  52   2.0000      -0.360172        -9.8008
  53   2.0000      -0.348308        -9.4780
  54   2.0000      -0.340887        -9.2760
  55   2.0000      -0.333492        -9.0748
  56   2.0000      -0.319590        -8.6965
  57   2.0000      -0.300082        -8.1656
  58   2.0000      -0.290316        -7.8999
  59   2.0000      -0.288581        -7.8527
  60   2.0000      -0.274104        -7.4587
  61   2.0000      -0.253536        -6.8991
  62   2.0000      -0.240407        -6.5418
  63   2.0000      -0.232195        -6.3183
  64   2.0000      -0.215198        -5.8558
  65   2.0000      -0.206116        -5.6087
  66   0.0000      -0.073662        -2.0045
  67   0.0000      -0.032636        -0.8881
  68   0.0000      -0.024761        -0.6738
  69   0.0000       0.016824         0.4578
  70   0.0000       0.040960         1.1146

MULLIKEN ATOMIC CHARGES
-----------------------
   0 C :   -0.289484
   1 C :   -0.156585
   2 C :   -0.065005
   3 H :    0.109520
   4 C :   -0.254519
   5 N :   -0.247003
   6 C :    0.182547
   7 O :   -0.176761
   8 C :   -0.193416
   9 C :    0.019486
  10 N :   -0.205227
  11 C :    0.178514
  12 O :   -0.205087
  13 C :   -0.214758
  14 Br:    0.010147
  15 H :    0.097198
  16 H :    0.101862
  17 H :    0.128219
  18 H :    0.091530
  19 H :    0.092360
  20 H :    0.104138
  21 H :    0.099832
  22 H :    0.146359
  23 H :    0.246427
  24 H :    0.137065
  25 H :    0.136244
  26 H :    0.126395
Sum of atomic charges:    0.0000000

LOEWDIN ATOMIC CHARGES
----------------------
   0 C :   -0.350610
   1 C :   -0.226392
   2 C :   -0.077661
   3 H :    0.137120
   4 C :   -0.344724
   5 N :   -0.004845
   6 C :    0.020280
   7 O :   -0.167593
   8 C :   -0.216267
   9 C :   -0.004984
  10 N :   -0.088410
  11 C :    0.041790
  12 O :   -0.189598
  13 C :   -0.334369
  14 Br:    0.138652
  15 H :    0.117931
  16 H :    0.118745
  17 H :    0.123571
  18 H :    0.122725
  19 H :    0.120639
  20 H :    0.126238
  21 H :    0.121903
  22 H :    0.132005
  23 H :    0.254276
  24 H :    0.147232
  25 H :    0.141110
  26 H :    0.141236

  Mayer bond orders larger than 0.100000
B(  0-C ,  1-C ) :   1.1572 B(  0-C , 15-H ) :   0.9465 B(  0-C , 16-H ) :   0.9466
B(  0-C , 17-H ) :   0.9381 B(  1-C ,  2-C ) :   1.0964 B(  1-C , 18-H ) :   0.9215
B(  1-C , 19-H ) :   0.9215 B(  2-C ,  3-H ) :   0.8695 B(  2-C ,  4-C ) :   1.1196
B(  2-C ,  5-N ) :   0.9127 B(  4-C , 20-H ) :   0.9416 B(  4-C , 21-H ) :   0.9440
B(  4-C , 22-H ) :   0.9153 B(  5-N ,  6-C ) :   1.0329 B(  5-N , 11-C ) :   1.0859
B(  6-C ,  7-O ) :   2.0860 B(  6-C ,  8-C ) :   1.0408 B(  8-C ,  9-C ) :   1.6276
B(  8-C , 14-Br) :   1.0578 B(  9-C , 10-N ) :   1.1864 B(  9-C , 13-C ) :   1.1598
B( 10-N , 11-C ) :   1.0886 B( 10-N , 23-H ) :   0.8385 B( 11-C , 12-O ) :   2.0042
B( 13-C , 24-H ) :   0.9180 B( 13-C , 25-H ) :   0.9086 B( 13-C , 26-H ) :   0.9202

Dispersion correction           -0.034050297
FINAL SINGLE POINT ENERGY     -3182.938514000419

DIPOLE MOMENT
-------------

Method             : SCF
Type of density    : Electron Density
Multiplicity       :   1
Irrep              :   0
Energy             : -3183.0308298891804952 Eh
Relativity type    :
Basis              : AO
                                X                 Y                 Z
Electronic contribution:     50.322568711      -6.658433733       4.680740647
Nuclear contribution   :    -49.919081335       8.112914844      -4.886617806
                        -----------------------------------------
Total Dipole Moment    :      0.403487376       1.454481111      -0.205877159
                        -----------------------------------------
Magnitude (a.u.)       :      1.523385299
Magnitude (Debye)      :      3.872137706

Rotational constants in cm-1:             0.032598             0.010499             0.008701
Rotational constants in MHz :           977.251531           314.750485           260.851279

                             ****ORCA TERMINATED NORMALLY****
TOTAL RUN TIME: 0 days 0 hours 0 minutes 18 seconds 847 msec
