                         Program Version 6.0.0  -   RELEASE  -
|  1> ! pbe def2-sv(p) def2/J RI DEFGRID1 loosescf d4 GCP(DFT/SV(P)) printgap
|  2> %output
|  3>     printlevel normal
|  4> end
|  5> * xyz 0 1
|  6> C -2.1571884486 1.0981870629 0.5393149593
|  7> C -2.0854774846 -0.2900496539 -0.0850881022
|  8> C -0.8310130626 -0.4557130317 -0.9491281975
|  9> C 0.4131593257 -0.4204224053 -0.1008983442
| 10> O 0.6169770111 -1.1165589912 0.8715363697
| 11> O 1.285987819 0.4788125592 -0.5437654316
| 12> C 2.5211566892 0.6095953552 0.164503713
| 13> H -2.149691463 1.8651774603 -0.2314087555
| 14> H -3.0665503088 1.2036705337 1.124761158
| 15> H -1.3061057044 1.2631874181 1.19746959
| 16> H -2.9651982496 -0.4585811705 -0.7065157733
| 17> H -2.0691822509 -1.0464531779 0.701818285
| 18> H -0.763492114 0.3316709234 -1.6987929513
| 19> H -0.85956396 -1.4269499988 -1.4461082271
| 20> H 3.086843783 -0.320570143 0.1008124877
| 21> H 2.327710476 0.8351680282 1.2139498157
| 22> H 3.0520571158 1.4231262679 -0.3193276584
| 23> *
| 24>
| 25>                          ****END OF INPUT****

CARTESIAN COORDINATES (ANGSTROEM)
---------------------------------
  C     -2.157188    1.098187    0.539315
  C     -2.085477   -0.290050   -0.085088
  C     -0.831013   -0.455713   -0.949128
  C      0.413159   -0.420422   -0.100898
  O      0.616977   -1.116559    0.871536
  O      1.285988    0.478813   -0.543765
  C      2.521157    0.609595    0.164504
  H     -2.149691    1.865177   -0.231409
  H     -3.066550    1.203671    1.124761
  H     -1.306106    1.263187    1.197470
  H     -2.965198   -0.458581   -0.706516
  H     -2.069182   -1.046453    0.701818
  H     -0.763492    0.331671   -1.698793
  H     -0.859564   -1.426950   -1.446108
  H      3.086844   -0.320570    0.100812
  H      2.327710    0.835168    1.213950
  H      3.052057    1.423126   -0.319328

 Total Charge           Charge          ....    0
 Multiplicity           Mult            ....    1
 Number of Electrons    NEL             ....   56
 Basis Dimension        Dim             ....  118

ORBITAL ENERGIES
----------------

  NO   OCC          E(Eh)            E(eV)
   0   2.0000     -18.800194      -511.5793
   1   2.0000     -18.731884      -509.7205
   2   2.0000     -10.004314      -272.2312
   3   2.0000      -9.941919      -270.5334
   4   2.0000      -9.896560      -269.2991
   5   2.0000      -9.891183      -269.1528
   6   2.0000      -9.877234      -268.7732
   7   2.0000      -1.005502       -27.3611
   8   2.0000      -0.908630       -24.7251
   9   2.0000      -0.725320       -19.7370
  10   2.0000      -0.671457       -18.2713
  11   2.0000      -0.620425       -16.8826
  12   2.0000      -0.540030       -14.6950
  13   2.0000      -0.500062       -13.6074
  14   2.0000      -0.450669       -12.2633
  15   2.0000      -0.438839       -11.9414
  16   2.0000      -0.420394       -11.4395
  17   2.0000      -0.402773       -10.9600
  18   2.0000      -0.389334       -10.5943
  19   2.0000      -0.362008        -9.8507
  20   2.0000      -0.355144        -9.6639
  21   2.0000      -0.342829        -9.3289
  22   2.0000      -0.312192        -8.4952
  23   2.0000      -0.298654        -8.1268
  24   2.0000      -0.297705        -8.1010
  25   2.0000      -0.294058        -8.0017
  26   2.0000      -0.258299        -7.0287
  27   2.0000      -0.218104        -5.9349
  28   0.0000      -0.020820        -0.5666
  29   0.0000       0.040059         1.0901
  30   0.0000       0.059925         1.6306
  31   0.0000       0.079371         2.1598
  32   0.0000       0.080956         2.2029

MULLIKEN ATOMIC CHARGES
-----------------------
   0 C :   -0.288912
   1 C :   -0.200116
   2 C :   -0.123929
   3 C :    0.082829
   4 O :   -0.212699
   5 O :   -0.236242
   6 C :   -0.110824
   7 H :    0.099109
   8 H :    0.107927
   9 H :    0.115666
  10 H :    0.091644
  11 H :    0.108438
  12 H :    0.093485
  13 H :    0.113689
  14 H :    0.118866
  15 H :    0.119753
  16 H :    0.121315
Sum of atomic charges:    0.0000000

LOEWDIN ATOMIC CHARGES
----------------------
   0 C :   -0.342343
   1 C :   -0.227180
   2 C :   -0.246916
   3 C :    0.034082
   4 O :   -0.171666
   5 O :   -0.073107
   6 C :   -0.204199
   7 H :    0.117400
   8 H :    0.121741
   9 H :    0.120270
  10 H :    0.118055
  11 H :    0.124836
  12 H :    0.126870
  13 H :    0.142446
  14 H :    0.119710
  15 H :    0.119554
  16 H :    0.120447

  Mayer bond orders larger than 0.100000
B(  0-C ,  1-C ) :   1.1546 B(  0-C ,  7-H ) :   0.9537 B(  0-C ,  8-H ) :   0.9521
B(  0-C ,  9-H ) :   0.9494 B(  1-C ,  2-C ) :   1.1120 B(  1-C , 10-H ) :   0.9283
B(  1-C , 11-H ) :   0.9196 B(  2-C ,  3-C ) :   1.0208 B(  2-C , 12-H ) :   0.9107
B(  2-C , 13-H ) :   0.8926 B(  3-C ,  4-O ) :   2.0482 B(  3-C ,  5-O ) :   1.2202
B(  5-O ,  6-C ) :   0.9400 B(  6-C , 14-H ) :   0.9532 B(  6-C , 15-H ) :   0.9504
B(  6-C , 16-H ) :   0.9594

Dispersion correction           -0.012358794
FINAL SINGLE POINT ENERGY      -346.240524142130

DIPOLE MOMENT
-------------

Method             : SCF
Type of density    : Electron Density
Multiplicity       :   1
Irrep              :   0
Energy             :  -346.3050914681747372 Eh
Relativity type    :
Basis              : AO
                                X                 Y                 Z
Electronic contribution:      4.528191389      -2.948127142      -0.369105255
Nuclear contribution   :     -4.393530364       3.433098689      -0.054565831
                        -----------------------------------------
Total Dipole Moment    :      0.134661025       0.484971547      -0.423671086
                        -----------------------------------------
Magnitude (a.u.)       :      0.657896787
Magnitude (Debye)      :      1.672240737

Rotational constants in cm-1:             0.163335             0.051994             0.049093
Rotational constants in MHz :          4896.656832          1558.729576          1471.779803

                             ****ORCA TERMINATED NORMALLY****
TOTAL RUN TIME: 0 days 0 hours 0 minutes 10 seconds 421 msec
