                         Program Version 6.0.0  -   RELEASE  -
|  1> ! r2scan-3c def2/J RI DEFGRID2 scfconv6 printgap
|  2> %output
|  3>     printlevel normal
|  4> end
|  5> * xyz 0 1
|  6> C 1.790450733 -0.8269172204 1.2042507713
|  7> C 1.473955352 -0.2467429702 -0.1669828491
|  8> C 0.2866193052 0.7229609344 -0.2120826019
|  9> H 0.453479327 1.5024405227 0.5513645559
| 10> C -1.1211072831 0.1265558037 0.0174629747
| 11> C -1.3310028434 -1.1880037433 -0.7300681797
| 12> C -1.4715333975 -0.0185196226 1.4971006284
| 13> O 0.3604634909 1.3243574003 -1.5004804737
| 14> H 2.7653089673 -1.307514757 1.1784885373
| 15> H 1.0582694709 -1.5727115607 1.4986747379
| 16> H 1.8134293267 -0.0429858623 1.9573688287
| 17> H 2.3337708278 0.3281433197 -0.519987257
| 18> H 1.307840383 -1.0449392549 -0.8896788881
| 19> H -1.8212691866 0.8599495868 -0.4057672997
| 20> H -1.0168858709 -1.0838402433 -1.7662442634
| 21> H -0.7637773487 -1.9921858052 -0.2694960575
| 22> H -2.3836778483 -1.4604733522 -0.7132893326
| 23> H -1.3048908178 0.9174957489 2.0253301406
| 24> H -0.8776433795 -0.7917949521 1.972265712
| 25> H -2.520694636 -0.2866048607 1.5977945259
| 26> H -0.3248180702 2.0012297882 -1.5805387139
| 27> *
| 28>
| 29>                          ****END OF INPUT****

CARTESIAN COORDINATES (ANGSTROEM)
---------------------------------
  C      1.790451   -0.826917    1.204251
  C      1.473955   -0.246743   -0.166983
  C      0.286619    0.722961   -0.212083
  H      0.453479    1.502441    0.551365
  C     -1.121107    0.126556    0.017463
  C     -1.331003   -1.188004   -0.730068
  C     -1.471533   -0.018520    1.497101
  O      0.360463    1.324357   -1.500480
  H      2.765309   -1.307515    1.178489
  H      1.058269   -1.572712    1.498675
  H      1.813429   -0.042986    1.957369
  H      2.333771    0.328143   -0.519987
  H      1.307840   -1.044939   -0.889679
  H     -1.821269    0.859950   -0.405767
  H     -1.016886   -1.083840   -1.766244
  H     -0.763777   -1.992186   -0.269496
  H     -2.383678   -1.460473   -0.713289
  H     -1.304891    0.917496    2.025330
  H     -0.877643   -0.791795    1.972266
  H     -2.520695   -0.286605    1.597795
  H     -0.324818    2.001230   -1.580539

 Total Charge           Charge          ....    0
 Multiplicity           Mult            ....    1
 Number of Electrons    NEL             ....   58
 Basis Dimension        Dim             ....  208

ORBITAL ENERGIES
----------------

  NO   OCC          E(Eh)            E(eV)
   0   2.0000     -18.942081      -515.4402
   1   2.0000     -10.076476      -274.1948
   2   2.0000     -10.035314      -273.0748
   3   2.0000     -10.021464      -272.6979
   4   2.0000     -10.018760      -272.6243
   5   2.0000     -10.017966      -272.6027
   6   2.0000     -10.014386      -272.5053
   7   2.0000      -0.979793       -26.6615
   8   2.0000      -0.772793       -21.0288
   9   2.0000      -0.728701       -19.8290
  10   2.0000      -0.652300       -17.7500
  11   2.0000      -0.639656       -17.4059
  12   2.0000      -0.573147       -15.5961
  13   2.0000      -0.516852       -14.0643
  14   2.0000      -0.470952       -12.8152
  15   2.0000      -0.450215       -12.2510
  16   2.0000      -0.418754       -11.3949
  17   2.0000      -0.391788       -10.6611
  18   2.0000      -0.385568       -10.4918
  19   2.0000      -0.371488       -10.1087
  20   2.0000      -0.355670        -9.6783
  21   2.0000      -0.342325        -9.3151
  22   2.0000      -0.335562        -9.1311
  23   2.0000      -0.327770        -8.9191
  24   2.0000      -0.310049        -8.4369
  25   2.0000      -0.302736        -8.2379
  26   2.0000      -0.289324        -7.8729
  27   2.0000      -0.272244        -7.4081
  28   2.0000      -0.230589        -6.2747
  29   0.0000       0.063866         1.7379
  30   0.0000       0.077491         2.1086
  31   0.0000       0.109657         2.9839
  32   0.0000       0.117808         3.2057
  33   0.0000       0.126824         3.4510

MULLIKEN ATOMIC CHARGES
-----------------------
   0 C :   -0.500807
   1 C :   -0.258062
   2 C :   -0.012036
   3 H :    0.136434
   4 C :    0.022239
   5 C :   -0.537184
   6 C :   -0.501320
   7 O :   -0.431019
   8 H :    0.147742
   9 H :    0.143297
  10 H :    0.152600
  11 H :    0.155372
  12 H :    0.158438
  13 H :    0.120616
  14 H :    0.173336
  15 H :    0.153530
  16 H :    0.147664
  17 H :    0.148980
  18 H :    0.150895
  19 H :    0.147536
  20 H :    0.281749
Sum of atomic charges:    0.0000000

LOEWDIN ATOMIC CHARGES
----------------------
   0 C :   -0.420153
   1 C :   -0.271119
   2 C :    0.062746
   3 H :    0.162412
   4 C :   -0.223012
   5 C :   -0.412351
   6 C :   -0.413455
   7 O :   -0.626346
   8 H :    0.152757
   9 H :    0.146242
  10 H :    0.152267
  11 H :    0.169545
  12 H :    0.163142
  13 H :    0.159028
  14 H :    0.163412
  15 H :    0.153119
  16 H :    0.153540
  17 H :    0.153732
  18 H :    0.154642
  19 H :    0.154266
  20 H :    0.265585

  Mayer bond orders larger than 0.100000
B(  0-C ,  1-C ) :   0.8530 B(  0-C ,  8-H ) :   0.9664 B(  0-C ,  9-H ) :   0.9794
B(  0-C , 10-H ) :   0.9844 B(  1-C ,  2-C ) :   0.9209 B(  1-C , 11-H ) :   0.9631
B(  1-C , 12-H ) :   0.9737 B(  2-C ,  3-H ) :   0.9830 B(  2-C ,  4-C ) :   0.8809
B(  2-C ,  7-O ) :   0.8884 B(  4-C ,  5-C ) :   0.8825 B(  4-C ,  6-C ) :   0.9048
B(  4-C , 13-H ) :   0.9676 B(  5-C , 14-H ) :   0.9720 B(  5-C , 15-H ) :   0.9802
B(  5-C , 16-H ) :   0.9688 B(  6-C , 17-H ) :   0.9800 B(  6-C , 18-H ) :   0.9726
B(  6-C , 19-H ) :   0.9699 B(  7-O , 20-H ) :   0.8991

Dispersion correction           -0.005857000
FINAL SINGLE POINT ENERGY      -312.199297544902

DIPOLE MOMENT
-------------

Method             : SCF
Type of density    : Electron Density
Multiplicity       :   1
Irrep              :   0
Energy             :  -312.2048360623101644 Eh
Relativity type    :
Basis              : AO
                                X                 Y                 Z
Electronic contribution:      0.816667888       3.826651193      -3.948813802
Nuclear contribution   :     -1.196962245      -3.708412011       4.327325502
                        -----------------------------------------
Total Dipole Moment    :     -0.380294356       0.118239182       0.378511699
                        -----------------------------------------
Magnitude (a.u.)       :      0.549431895
Magnitude (Debye)      :      1.396544893

Rotational constants in cm-1:             0.086373             0.074500             0.054732
Rotational constants in MHz :          2589.391609          2233.466766          1640.811616

                             ****ORCA TERMINATED NORMALLY****
TOTAL RUN TIME: 0 days 0 hours 0 minutes 28 seconds 48 msec
