                         Program Version 6.0.0  -   RELEASE  -
|  1> ! r2scan-3c def2/J RI DEFGRID2 scfconv6 printgap
|  2> %output
|  3>     printlevel normal
|  4> end
|  5> %cpcm
|  6>     smd true
|  7>     smdsolvent "water"
|  8> end
|  9> * xyz 0 1
| 10> C 1.790450733 -0.8269172204 1.2042507713
| 11> C 1.473955352 -0.2467429702 -0.1669828491
| 12> C 0.2866193052 0.7229609344 -0.2120826019
| 13> H 0.453479327 1.5024405227 0.5513645559
| 14> C -1.1211072831 0.1265558037 0.0174629747
| 15> C -1.3310028434 -1.1880037433 -0.7300681797
| 16> C -1.4715333975 -0.0185196226 1.4971006284
| 17> O 0.3604634909 1.3243574003 -1.5004804737
| 18> H 2.7653089673 -1.307514757 1.1784885373
| 19> H 1.0582694709 -1.5727115607 1.4986747379
| 20> H 1.8134293267 -0.0429858623 1.9573688287
| 21> H 2.3337708278 0.3281433197 -0.519987257
| 22> H 1.307840383 -1.0449392549 -0.8896788881
| 23> H -1.8212691866 0.8599495868 -0.4057672997
| 24> H -1.0168858709 -1.0838402433 -1.7662442634
| 25> H -0.7637773487 -1.9921858052 -0.2694960575
| 26> H -2.3836778483 -1.4604733522 -0.7132893326
| 27> H -1.3048908178 0.9174957489 2.0253301406
| 28> H -0.8776433795 -0.7917949521 1.972265712
| 29> H -2.520694636 -0.2866048607 1.5977945259
| 30> H -0.3248180702 2.0012297882 -1.5805387139
| 31> *
| 32>
| 33>                          ****END OF INPUT****

CARTESIAN COORDINATES (ANGSTROEM)
---------------------------------
  C      1.790451   -0.826917    1.204251
  C      1.473955   -0.246743   -0.166983
  C      0.286619    0.722961   -0.212083
  H      0.453479    1.502441    0.551365
  C     -1.121107    0.126556    0.017463
  C     -1.331003   -1.188004   -0.730068
  C     -1.471533   -0.018520    1.497101
  O      0.360463    1.324357   -1.500480
  H      2.765309   -1.307515    1.178489
  H      1.058269   -1.572712    1.498675
  H      1.813429   -0.042986    1.957369
  H      2.333771    0.328143   -0.519987
  H      1.307840   -1.044939   -0.889679
  H     -1.821269    0.859950   -0.405767
  H     -1.016886   -1.083840   -1.766244
  H     -0.763777   -1.992186   -0.269496
  H     -2.383678   -1.460473   -0.713289
  H     -1.304891    0.917496    2.025330
  H     -0.877643   -0.791795    1.972266
  H     -2.520695   -0.286605    1.597795
  H     -0.324818    2.001230   -1.580539

 Total Charge           Charge          ....    0
 Multiplicity           Mult            ....    1
 Number of Electrons    NEL             ....   58
 Basis Dimension        Dim             ....  208

ORBITAL ENERGIES
----------------

  NO   OCC          E(Eh)            E(eV)
   0   2.0000     -18.946300      -515.5550
   1   2.0000     -10.071518      -274.0599
   2   2.0000     -10.025911      -272.8189
   3   2.0000     -10.017401      -272.5873
   4   2.0000     -10.010110      -272.3889
   5   2.0000     -10.007091      -272.3068
   6   2.0000     -10.006908      -272.3018
   7   2.0000      -0.982743       -26.7418
   8   2.0000      -0.765425       -20.8283
   9   2.0000      -0.721925       -19.6446
  10   2.0000      -0.643851       -17.5201
  11   2.0000      -0.634050       -17.2534
  12   2.0000      -0.566571       -15.4172
  13   2.0000      -0.511165       -13.9095
  14   2.0000      -0.467451       -12.7200
  15   2.0000      -0.443324       -12.0634
  16   2.0000      -0.412357       -11.2208
  17   2.0000      -0.386015       -10.5040
  18   2.0000      -0.377445       -10.2708
  19   2.0000      -0.366123        -9.9627
  20   2.0000      -0.346119        -9.4184
  21   2.0000      -0.338545        -9.2123
  22   2.0000      -0.329242        -8.9591
  23   2.0000      -0.322753        -8.7825
  24   2.0000      -0.302840        -8.2407
  25   2.0000      -0.298060        -8.1106
  26   2.0000      -0.284837        -7.7508
  27   2.0000      -0.266772        -7.2592
  28   2.0000      -0.234120        -6.3707
  29   0.0000       0.079593         2.1658
  30   0.0000       0.086967         2.3665
  31   0.0000       0.118188         3.2161
  32   0.0000       0.127314         3.4644
  33   0.0000       0.135288         3.6814

MULLIKEN ATOMIC CHARGES
-----------------------
   0 C :   -0.544293
   1 C :   -0.256344
   2 C :   -0.001725
   3 H :    0.149784
   4 C :    0.026583
   5 C :   -0.569243
   6 C :   -0.551833
   7 O :   -0.521205
   8 H :    0.157639
   9 H :    0.163619
  10 H :    0.164489
  11 H :    0.151922
  12 H :    0.164119
  13 H :    0.147059
  14 H :    0.164938
  15 H :    0.168709
  16 H :    0.161694
  17 H :    0.162289
  18 H :    0.164022
  19 H :    0.159160
  20 H :    0.338615
Sum of atomic charges:    0.0000000

LOEWDIN ATOMIC CHARGES
----------------------
   0 C :   -0.425537
   1 C :   -0.276383
   2 C :    0.063582
   3 H :    0.170295
   4 C :   -0.219425
   5 C :   -0.420100
   6 C :   -0.419871
   7 O :   -0.663617
   8 H :    0.155135
   9 H :    0.152758
  10 H :    0.155745
  11 H :    0.166544
  12 H :    0.163524
  13 H :    0.167627
  14 H :    0.158963
  15 H :    0.157319
  16 H :    0.157267
  17 H :    0.157401
  18 H :    0.157392
  19 H :    0.157187
  20 H :    0.284195

  Mayer bond orders larger than 0.100000
B(  0-C ,  1-C ) :   0.8547 B(  0-C ,  8-H ) :   0.9632 B(  0-C ,  9-H ) :   0.9765
B(  0-C , 10-H ) :   0.9818 B(  1-C ,  2-C ) :   0.9151 B(  1-C , 11-H ) :   0.9622
B(  1-C , 12-H ) :   0.9697 B(  2-C ,  3-H ) :   0.9763 B(  2-C ,  4-C ) :   0.8866
B(  2-C ,  7-O ) :   0.8714 B(  4-C ,  5-C ) :   0.8709 B(  4-C ,  6-C ) :   0.8936
B(  4-C , 13-H ) :   0.9677 B(  5-C , 14-H ) :   0.9728 B(  5-C , 15-H ) :   0.9771
B(  5-C , 16-H ) :   0.9668 B(  6-C , 17-H ) :   0.9769 B(  6-C , 18-H ) :   0.9718
B(  6-C , 19-H ) :   0.9679 B(  7-O , 20-H ) :   0.8734

Dispersion correction           -0.005857000
FINAL SINGLE POINT ENERGY      -312.205186757593

DIPOLE MOMENT
-------------

Method             : SCF
Type of density    : Electron Density
Multiplicity       :   1
Irrep              :   0
Energy             :  -312.2107252750012094 Eh
Relativity type    :
Basis              : AO
                                X                 Y                 Z
Electronic contribution:      0.614970250       3.893646223      -3.714889125
Nuclear contribution   :     -1.196962245      -3.708412011       4.327325502
                        -----------------------------------------
Total Dipole Moment    :     -0.581991994       0.185234212       0.612436377
                        -----------------------------------------
Magnitude (a.u.)       :      0.864930466
Magnitude (Debye)      :      2.198478527

Rotational constants in cm-1:             0.086373             0.074500             0.054732
Rotational constants in MHz :          2589.391609          2233.466766          1640.811616

                             ****ORCA TERMINATED NORMALLY****
TOTAL RUN TIME: 0 days 0 hours 0 minutes 33 seconds 501 msec
