                         Program Version 6.0.0  -   RELEASE  -
|  1> ! r2scan-3c def2/J RI DEFGRID2 scfconv6 printgap
|  2> %output
|  3>     printlevel normal
|  4> end
|  5> * xyz 0 1
|  6> C -2.0881715563 0.4137872441 0.5518397321
|  7> C -1.426104471 -0.7654252124 -0.1493630165
|  8> C -0.213173278 -0.3322442775 -0.9907754838
|  9> C 0.8973257449 0.1709832174 -0.1021500178
| 10> O 1.0469641513 1.3527383454 0.1441164784
| 11> C 1.7981623239 -0.8878807434 0.4597642861
| 12> H -2.4672996077 1.1267348714 -0.1767309087
| 13> H -1.3764150482 0.9333606833 1.1903554669
| 14> H -2.9180960913 0.0731254687 1.1656734839
| 15> H -2.1488303852 -1.2428117603 -0.8127316608
| 16> H -1.1130813107 -1.5024475431 0.5920522392
| 17> H 0.1432286428 -1.1835286351 -1.569504807
| 18> H -0.5195271128 0.4693693229 -1.6644400763
| 19> H 2.4581112039 -1.2295599232 -0.3355502772
| 20> H 1.2187490456 -1.7394957945 0.8033244703
| 21> H 2.4012900356 -0.4853973826 1.2688021103
| 22> *
| 23>
| 24>                          ****END OF INPUT****

CARTESIAN COORDINATES (ANGSTROEM)
---------------------------------
  C     -2.088172    0.413787    0.551840
  C     -1.426104   -0.765425   -0.149363
  C     -0.213173   -0.332244   -0.990775
  C      0.897326    0.170983   -0.102150
  O      1.046964    1.352738    0.144116
  C      1.798162   -0.887881    0.459764
  H     -2.467300    1.126735   -0.176731
  H     -1.376415    0.933361    1.190355
  H     -2.918096    0.073125    1.165673
  H     -2.148830   -1.242812   -0.812732
  H     -1.113081   -1.502448    0.592052
  H      0.143229   -1.183529   -1.569505
  H     -0.519527    0.469369   -1.664440
  H      2.458111   -1.229560   -0.335550
  H      1.218749   -1.739496    0.803324
  H      2.401290   -0.485397    1.268802

 Total Charge           Charge          ....    0
 Multiplicity           Mult            ....    1
 Number of Electrons    NEL             ....   48
 Basis Dimension        Dim             ....  169

ORBITAL ENERGIES
----------------

  NO   OCC          E(Eh)            E(eV)
   0   2.0000     -18.936210      -515.2805
   1   2.0000     -10.117624      -275.3146
   2   2.0000     -10.043316      -273.2925
   3   2.0000     -10.037494      -273.1341
   4   2.0000     -10.034511      -273.0529
   5   2.0000     -10.018578      -272.6194
   6   2.0000      -1.001731       -27.2585
   7   2.0000      -0.775162       -21.0932
   8   2.0000      -0.718939       -19.5633
   9   2.0000      -0.663268       -18.0484
  10   2.0000      -0.574724       -15.6390
  11   2.0000      -0.499491       -13.5918
  12   2.0000      -0.446570       -12.1518
  13   2.0000      -0.437492       -11.9048
  14   2.0000      -0.418958       -11.4004
  15   2.0000      -0.397946       -10.8287
  16   2.0000      -0.393926       -10.7193
  17   2.0000      -0.366942        -9.9850
  18   2.0000      -0.348997        -9.4967
  19   2.0000      -0.333360        -9.0712
  20   2.0000      -0.322104        -8.7649
  21   2.0000      -0.315440        -8.5836
  22   2.0000      -0.306532        -8.3412
  23   2.0000      -0.211032        -5.7425
  24   0.0000      -0.046285        -1.2595
  25   0.0000       0.075163         2.0453
  26   0.0000       0.104911         2.8548
  27   0.0000       0.114325         3.1109
  28   0.0000       0.127814         3.4780

MULLIKEN ATOMIC CHARGES
-----------------------
   0 C :   -0.470703
   1 C :   -0.239115
   2 C :   -0.274795
   3 C :    0.280903
   4 O :   -0.347047
   5 C :   -0.501981
   6 H :    0.146935
   7 H :    0.166134
   8 H :    0.145919
   9 H :    0.151611
  10 H :    0.130709
  11 H :    0.146815
  12 H :    0.165362
  13 H :    0.170829
  14 H :    0.151823
  15 H :    0.176600
Sum of atomic charges:   -0.0000000

LOEWDIN ATOMIC CHARGES
----------------------
   0 C :   -0.417542
   1 C :   -0.294499
   2 C :   -0.284168
   3 C :    0.209753
   4 O :   -0.464808
   5 C :   -0.387256
   6 H :    0.154073
   7 H :    0.162695
   8 H :    0.150590
   9 H :    0.155589
  10 H :    0.151853
  11 H :    0.166169
  12 H :    0.177972
  13 H :    0.178227
  14 H :    0.166580
  15 H :    0.174773

  Mayer bond orders larger than 0.100000
B(  0-C ,  1-C ) :   0.9246 B(  0-C ,  6-H ) :   0.9766 B(  0-C ,  7-H ) :   0.9702
B(  0-C ,  8-H ) :   0.9717 B(  1-C ,  2-C ) :   0.8899 B(  1-C ,  9-H ) :   0.9628
B(  1-C , 10-H ) :   0.9772 B(  2-C ,  3-C ) :   0.8891 B(  2-C , 11-H ) :   0.9472
B(  2-C , 12-H ) :   0.9778 B(  3-C ,  4-O ) :   1.9463 B(  3-C ,  5-C ) :   0.9132
B(  5-C , 13-H ) :   0.9419 B(  5-C , 14-H ) :   0.9538 B(  5-C , 15-H ) :   0.9811

Dispersion correction           -0.003858116
FINAL SINGLE POINT ENERGY      -271.702817398630

DIPOLE MOMENT
-------------

Method             : SCF
Type of density    : Electron Density
Multiplicity       :   1
Irrep              :   0
Energy             :  -271.7063363508380007 Eh
Relativity type    :
Basis              : AO
                                X                 Y                 Z
Electronic contribution:      3.801196452       3.335583883      -0.646006928
Nuclear contribution   :     -4.039089317      -4.464956670       0.434875323
                        -----------------------------------------
Total Dipole Moment    :     -0.237892865      -1.129372787      -0.211131605
                        -----------------------------------------
Magnitude (a.u.)       :      1.173308341
Magnitude (Debye)      :      2.982312794

Rotational constants in cm-1:             0.183074             0.080830             0.069385
Rotational constants in MHz :          5488.432675          2423.217112          2080.124593

                             ****ORCA TERMINATED NORMALLY****
TOTAL RUN TIME: 0 days 0 hours 0 minutes 22 seconds 957 msec
