                         Program Version 6.0.0  -   RELEASE  -
|  1> ! r2scan-3c def2/J RI DEFGRID2 scfconv6 printgap
|  2> %output
|  3>     printlevel normal
|  4> end
|  5> %cpcm
|  6>     smd true
|  7>     smdsolvent "water"
|  8> end
|  9> * xyz 0 1
| 10> C -2.0881715563 0.4137872441 0.5518397321
| 11> C -1.426104471 -0.7654252124 -0.1493630165
| 12> C -0.213173278 -0.3322442775 -0.9907754838
| 13> C 0.8973257449 0.1709832174 -0.1021500178
| 14> O 1.0469641513 1.3527383454 0.1441164784
| 15> C 1.7981623239 -0.8878807434 0.4597642861
| 16> H -2.4672996077 1.1267348714 -0.1767309087
| 17> H -1.3764150482 0.9333606833 1.1903554669
| 18> H -2.9180960913 0.0731254687 1.1656734839
| 19> H -2.1488303852 -1.2428117603 -0.8127316608
| 20> H -1.1130813107 -1.5024475431 0.5920522392
| 21> H 0.1432286428 -1.1835286351 -1.569504807
| 22> H -0.5195271128 0.4693693229 -1.6644400763
| 23> H 2.4581112039 -1.2295599232 -0.3355502772
| 24> H 1.2187490456 -1.7394957945 0.8033244703
| 25> H 2.4012900356 -0.4853973826 1.2688021103
| 26> *
| 27>
| 28>                          ****END OF INPUT****

CARTESIAN COORDINATES (ANGSTROEM)
---------------------------------
  C     -2.088172    0.413787    0.551840
  C     -1.426104   -0.765425   -0.149363
  C     -0.213173   -0.332244   -0.990775
  C      0.897326    0.170983   -0.102150
  O      1.046964    1.352738    0.144116
  C      1.798162   -0.887881    0.459764
  H     -2.467300    1.126735   -0.176731
  H     -1.376415    0.933361    1.190355
  H     -2.918096    0.073125    1.165673
  H     -2.148830   -1.242812   -0.812732
  H     -1.113081   -1.502448    0.592052
  H      0.143229   -1.183529   -1.569505
  H     -0.519527    0.469369   -1.664440
  H      2.458111   -1.229560   -0.335550
  H      1.218749   -1.739496    0.803324
  H      2.401290   -0.485397    1.268802

 Total Charge           Charge          ....    0
 Multiplicity           Mult            ....    1
 Number of Electrons    NEL             ....   48
 Basis Dimension        Dim             ....  169

ORBITAL ENERGIES
----------------

  NO   OCC          E(Eh)            E(eV)
   0   2.0000     -18.945901      -515.5442
   1   2.0000     -10.123676      -275.4792
   2   2.0000     -10.030082      -272.9324
   3   2.0000     -10.027510      -272.8624
   4   2.0000     -10.022056      -272.7140
   5   2.0000     -10.010425      -272.3975
   6   2.0000      -1.014045       -27.5936
   7   2.0000      -0.765540       -20.8314
   8   2.0000      -0.709537       -19.3075
   9   2.0000      -0.654164       -17.8007
  10   2.0000      -0.565399       -15.3853
  11   2.0000      -0.494869       -13.4661
  12   2.0000      -0.442280       -12.0351
  13   2.0000      -0.433152       -11.7867
  14   2.0000      -0.415121       -11.2960
  15   2.0000      -0.390531       -10.6269
  16   2.0000      -0.385324       -10.4852
  17   2.0000      -0.363973        -9.9042
  18   2.0000      -0.340486        -9.2651
  19   2.0000      -0.333383        -9.0718
  20   2.0000      -0.314030        -8.5452
  21   2.0000      -0.305575        -8.3151
  22   2.0000      -0.298652        -8.1267
  23   2.0000      -0.221390        -6.0243
  24   0.0000      -0.048485        -1.3193
  25   0.0000       0.088375         2.4048
  26   0.0000       0.118040         3.2120
  27   0.0000       0.126537         3.4432
  28   0.0000       0.137335         3.7371

MULLIKEN ATOMIC CHARGES
-----------------------
   0 C :   -0.524013
   1 C :   -0.237245
   2 C :   -0.284574
   3 C :    0.318389
   4 O :   -0.454753
   5 C :   -0.533710
   6 H :    0.161037
   7 H :    0.161486
   8 H :    0.160687
   9 H :    0.166874
  10 H :    0.154828
  11 H :    0.176287
  12 H :    0.171224
  13 H :    0.202159
  14 H :    0.184229
  15 H :    0.177096
Sum of atomic charges:   -0.0000000

LOEWDIN ATOMIC CHARGES
----------------------
   0 C :   -0.427543
   1 C :   -0.290315
   2 C :   -0.279396
   3 C :    0.227479
   4 O :   -0.543554
   5 C :   -0.384261
   6 H :    0.155537
   7 H :    0.157715
   8 H :    0.155483
   9 H :    0.161701
  10 H :    0.160587
  11 H :    0.179572
  12 H :    0.178987
  13 H :    0.192217
  14 H :    0.181475
  15 H :    0.174318

  Mayer bond orders larger than 0.100000
B(  0-C ,  1-C ) :   0.8986 B(  0-C ,  6-H ) :   0.9769 B(  0-C ,  7-H ) :   0.9730
B(  0-C ,  8-H ) :   0.9676 B(  1-C ,  2-C ) :   0.8777 B(  1-C ,  9-H ) :   0.9602
B(  1-C , 10-H ) :   0.9738 B(  2-C ,  3-C ) :   0.9064 B(  2-C , 11-H ) :   0.9393
B(  2-C , 12-H ) :   0.9757 B(  3-C ,  4-O ) :   1.8668 B(  3-C ,  5-C ) :   0.9360
B(  5-C , 13-H ) :   0.9273 B(  5-C , 14-H ) :   0.9398 B(  5-C , 15-H ) :   0.9774

Dispersion correction           -0.003858116
FINAL SINGLE POINT ENERGY      -271.709794720907

DIPOLE MOMENT
-------------

Method             : SCF
Type of density    : Electron Density
Multiplicity       :   1
Irrep              :   0
Energy             :  -271.7133136731154650 Eh
Relativity type    :
Basis              : AO
                                X                 Y                 Z
Electronic contribution:      3.723461845       2.742831605      -0.765528996
Nuclear contribution   :     -4.039089317      -4.464956670       0.434875323
                        -----------------------------------------
Total Dipole Moment    :     -0.315627473      -1.722125064      -0.330653673
                        -----------------------------------------
Magnitude (a.u.)       :      1.781759605
Magnitude (Debye)      :      4.528873001

Rotational constants in cm-1:             0.183074             0.080830             0.069385
Rotational constants in MHz :          5488.432675          2423.217112          2080.124593

                             ****ORCA TERMINATED NORMALLY****
TOTAL RUN TIME: 0 days 0 hours 0 minutes 26 seconds 391 msec
