                         Program Version 6.0.0  -   RELEASE  -
|  1> ! pbe def2-sv(p) def2/J RI DEFGRID1 loosescf d4 GCP(DFT/SV(P)) printgap
|  2> %output
|  3>     printlevel normal
|  4> end
|  5> * xyz 0 1
|  6> C -1.4463176106 0.1435035411 0.5985121286
|  7> C 0.0744785273 0.3434893333 0.4861755559
|  8> C 0.791603383 -0.8928886597 -0.0674353637
|  9> O 2.1814132074 -0.6548500477 0.0328765942
| 10> O 0.3196110798 1.4696742762 -0.3275515351
| 11> O -2.0656929109 -0.3328000957 -0.5709204999
| 12> H -1.8920600648 1.1220332875 0.7885564061
| 13> H -1.6549470302 -0.517116793 1.4477919938
| 14> H 0.4607800357 0.5364261908 1.5003307483
| 15> H 0.5023353346 -1.0313813422 -1.1161565462
| 16> H 0.5063893574 -1.7727961166 0.5224217914
| 17> H 2.665822793 -1.4026389116 -0.3415194437
| 18> H 1.2738031575 1.5194463545 -0.4880639538
| 19> H -1.8581404207 -1.2686145046 -0.6951478363
| 20> *
| 21>
| 22>                          ****END OF INPUT****

CARTESIAN COORDINATES (ANGSTROEM)
---------------------------------
  C     -1.446318    0.143504    0.598512
  C      0.074479    0.343489    0.486176
  C      0.791603   -0.892889   -0.067435
  O      2.181413   -0.654850    0.032877
  O      0.319611    1.469674   -0.327552
  O     -2.065693   -0.332800   -0.570920
  H     -1.892060    1.122033    0.788556
  H     -1.654947   -0.517117    1.447792
  H      0.460780    0.536426    1.500331
  H      0.502335   -1.031381   -1.116157
  H      0.506389   -1.772796    0.522422
  H      2.665823   -1.402639   -0.341519
  H      1.273803    1.519446   -0.488064
  H     -1.858140   -1.268615   -0.695148

 Total Charge           Charge          ....    0
 Multiplicity           Mult            ....    1
 Number of Electrons    NEL             ....   50
 Basis Dimension        Dim             ....  100

ORBITAL ENERGIES
----------------

  NO   OCC          E(Eh)            E(eV)
   0   2.0000     -18.760483      -510.4987
   1   2.0000     -18.744645      -510.0677
   2   2.0000     -18.735899      -509.8297
   3   2.0000      -9.938446      -270.4389
   4   2.0000      -9.934706      -270.3371
   5   2.0000      -9.929221      -270.1878
   6   2.0000      -0.939746       -25.5718
   7   2.0000      -0.922967       -25.1152
   8   2.0000      -0.905672       -24.6446
   9   2.0000      -0.680095       -18.5063
  10   2.0000      -0.613542       -16.6953
  11   2.0000      -0.528381       -14.3780
  12   2.0000      -0.484156       -13.1746
  13   2.0000      -0.474401       -12.9091
  14   2.0000      -0.430029       -11.7017
  15   2.0000      -0.418489       -11.3877
  16   2.0000      -0.384392       -10.4598
  17   2.0000      -0.369537       -10.0556
  18   2.0000      -0.346849        -9.4382
  19   2.0000      -0.304540        -8.2869
  20   2.0000      -0.290712        -7.9107
  21   2.0000      -0.266425        -7.2498
  22   2.0000      -0.232540        -6.3277
  23   2.0000      -0.214978        -5.8498
  24   2.0000      -0.209061        -5.6888
  25   0.0000       0.014457         0.3934
  26   0.0000       0.020568         0.5597
  27   0.0000       0.057082         1.5533
  28   0.0000       0.079238         2.1562
  29   0.0000       0.099967         2.7203

MULLIKEN ATOMIC CHARGES
-----------------------
   0 C :    0.024758
   1 C :    0.039118
   2 C :   -0.037086
   3 O :   -0.439504
   4 O :   -0.429846
   5 O :   -0.430849
   6 H :    0.098928
   7 H :    0.070943
   8 H :    0.061447
   9 H :    0.075852
  10 H :    0.063797
  11 H :    0.305053
  12 H :    0.300297
  13 H :    0.297093
Sum of atomic charges:    0.0000000

LOEWDIN ATOMIC CHARGES
----------------------
   0 C :   -0.125298
   1 C :   -0.086424
   2 C :   -0.149560
   3 O :   -0.347092
   4 O :   -0.328532
   5 O :   -0.330406
   6 H :    0.123318
   7 H :    0.097006
   8 H :    0.103029
   9 H :    0.097992
  10 H :    0.094314
  11 H :    0.289390
  12 H :    0.282129
  13 H :    0.280133

  Mayer bond orders larger than 0.100000
B(  0-C ,  1-C ) :   1.0139 B(  0-C ,  5-O ) :   1.0896 B(  0-C ,  6-H ) :   0.9211
B(  0-C ,  7-H ) :   0.9218 B(  1-C ,  2-C ) :   1.0581 B(  1-C ,  4-O ) :   1.0685
B(  1-C ,  8-H ) :   0.8877 B(  2-C ,  3-O ) :   1.0819 B(  2-C ,  9-H ) :   0.8973
B(  2-C , 10-H ) :   0.9131 B(  3-O , 11-H ) :   0.8497 B(  4-O , 12-H ) :   0.8408
B(  5-O , 13-H ) :   0.8496

Dispersion correction           -0.009147536
FINAL SINGLE POINT ENERGY      -344.005550739421

DIPOLE MOMENT
-------------

Method             : SCF
Type of density    : Electron Density
Multiplicity       :   1
Irrep              :   0
Energy             :  -344.0785395754159595 Eh
Relativity type    :
Basis              : AO
                                X                 Y                 Z
Electronic contribution:      0.667520797       1.392505171      -1.330681419
Nuclear contribution   :      0.010202148      -2.633463332       1.505309256
                        -----------------------------------------
Total Dipole Moment    :      0.677722945      -1.240958161       0.174627838
                        -----------------------------------------
Magnitude (a.u.)       :      1.424703629
Magnitude (Debye)      :      3.621308834

Rotational constants in cm-1:             0.196615             0.076014             0.063693
Rotational constants in MHz :          5894.374162          2278.841686          1909.468520

                             ****ORCA TERMINATED NORMALLY****
TOTAL RUN TIME: 0 days 0 hours 0 minutes 6 seconds 872 msec
