                         Program Version 6.0.0  -   RELEASE  -
|  1> ! pbe def2-sv(p) def2/J RI DEFGRID1 loosescf d4 GCP(DFT/SV(P)) printgap
|  2> %output
|  3>     printlevel normal
|  4> end
|  5> * xyz 0 1
|  6> C 0.218210283 -0.9793916153 -0.1815549139
|  7> H 0.7058134606 -1.8472927552 -0.6400728145
|  8> C 1.1876510669 0.2140887957 -0.2386206178
|  9> F 1.359334453 0.6457301617 -1.4935351941
| 10> F 2.3936778378 -0.1588272963 0.2051392173
| 11> F 0.8131396702 1.2595293195 0.4978985415
| 12> O -0.9733962611 -0.822891147 -0.8812385762
| 13> C -1.7881795342 0.2455988063 -0.7084298699
| 14> F -1.225363425 1.3995655895 -1.1540772398
| 15> F -2.0930438622 0.4829253162 0.585880963
| 16> Cl -0.0428116911 -1.3465357887 1.5626054001
| 17> H -2.7115588086 0.0641538837 -1.2759788709
| 18> *
| 19>
| 20>                          ****END OF INPUT****

CARTESIAN COORDINATES (ANGSTROEM)
---------------------------------
  C      0.218210   -0.979392   -0.181555
  H      0.705813   -1.847293   -0.640073
  C      1.187651    0.214089   -0.238621
  F      1.359334    0.645730   -1.493535
  F      2.393678   -0.158827    0.205139
  F      0.813140    1.259529    0.497899
  O     -0.973396   -0.822891   -0.881239
  C     -1.788180    0.245599   -0.708430
  F     -1.225363    1.399566   -1.154077
  F     -2.093044    0.482925    0.585881
  Cl    -0.042812   -1.346536    1.562605
  H     -2.711559    0.064154   -1.275979

 Total Charge           Charge          ....    0
 Multiplicity           Mult            ....    1
 Number of Electrons    NEL             ....   90
 Basis Dimension        Dim             ....  148

ORBITAL ENERGIES
----------------

  NO   OCC          E(Eh)            E(eV)
   0   2.0000    -100.650892     -2738.8500
   1   2.0000     -24.306874      -661.4237
   2   2.0000     -24.304945      -661.3712
   3   2.0000     -24.304254      -661.3524
   4   2.0000     -24.286236      -660.8621
   5   2.0000     -24.283668      -660.7922
   6   2.0000     -18.840576      -512.6781
   7   2.0000     -10.143752      -276.0255
   8   2.0000     -10.112238      -275.1680
   9   2.0000     -10.043577      -273.2996
  10   2.0000      -9.187118      -249.9942
  11   2.0000      -7.019100      -190.9994
  12   2.0000      -7.006728      -190.6628
  13   2.0000      -7.006213      -190.6488
  14   2.0000      -1.211276       -32.9605
  15   2.0000      -1.167073       -31.7577
  16   2.0000      -1.116701       -30.3870
  17   2.0000      -1.115502       -30.3544
  18   2.0000      -1.091601       -29.7040
  19   2.0000      -1.025415       -27.9030
  20   2.0000      -0.808463       -21.9994
  21   2.0000      -0.709627       -19.3099
  22   2.0000      -0.656298       -17.8588
  23   2.0000      -0.591762       -16.1027
  24   2.0000      -0.562335       -15.3019
  25   2.0000      -0.551077       -14.9956
  26   2.0000      -0.542548       -14.7635
  27   2.0000      -0.529342       -14.4041
  28   2.0000      -0.516262       -14.0482
  29   2.0000      -0.475384       -12.9359
  30   2.0000      -0.450149       -12.2492
  31   2.0000      -0.417984       -11.3739
  32   2.0000      -0.412976       -11.2376
  33   2.0000      -0.408665       -11.1204
  34   2.0000      -0.388728       -10.5778
  35   2.0000      -0.377908       -10.2834
  36   2.0000      -0.372386       -10.1331
  37   2.0000      -0.367855       -10.0099
  38   2.0000      -0.355531        -9.6745
  39   2.0000      -0.347971        -9.4688
  40   2.0000      -0.337877        -9.1941
  41   2.0000      -0.334147        -9.0926
  42   2.0000      -0.307290        -8.3618
  43   2.0000      -0.283414        -7.7121
  44   2.0000      -0.275149        -7.4872
  45   0.0000      -0.031659        -0.8615
  46   0.0000       0.024264         0.6602
  47   0.0000       0.043148         1.1741
  48   0.0000       0.065271         1.7761
  49   0.0000       0.096039         2.6134

MULLIKEN ATOMIC CHARGES
-----------------------
   0 C :   -0.026346
   1 H :    0.159834
   2 C :    0.410809
   3 F :   -0.127449
   4 F :   -0.126284
   5 F :   -0.115499
   6 O :   -0.232273
   7 C :    0.373006
   8 F :   -0.171852
   9 F :   -0.163324
  10 Cl:   -0.073897
  11 H :    0.093274
Sum of atomic charges:   -0.0000000

LOEWDIN ATOMIC CHARGES
----------------------
   0 C :   -0.151356
   1 H :    0.146556
   2 C :    0.059793
   3 F :   -0.033022
   4 F :   -0.034062
   5 F :   -0.024195
   6 O :   -0.081089
   7 C :    0.077940
   8 F :   -0.078838
   9 F :   -0.069723
  10 Cl:    0.081856
  11 H :    0.106138

  Mayer bond orders larger than 0.100000
B(  0-C ,  1-H ) :   0.8944 B(  0-C ,  2-C ) :   0.9006 B(  0-C ,  6-O ) :   1.0348
B(  0-C , 10-Cl) :   1.0709 B(  2-C ,  3-F ) :   1.1696 B(  2-C ,  4-F ) :   1.1682
B(  2-C ,  5-F ) :   1.1798 B(  6-O ,  7-C ) :   1.1054 B(  7-C ,  8-F ) :   1.1029
B(  7-C ,  9-F ) :   1.1243 B(  7-C , 11-H ) :   0.9212

Dispersion correction           -0.012290219
FINAL SINGLE POINT ENERGY     -1148.533263851189

DIPOLE MOMENT
-------------

Method             : SCF
Type of density    : Electron Density
Multiplicity       :   1
Irrep              :   0
Energy             : -1148.6186928703655212 Eh
Relativity type    :
Basis              : AO
                                X                 Y                 Z
Electronic contribution:      2.668302285       2.632207645       2.161111221
Nuclear contribution   :     -2.994761580      -3.240090521      -2.649079319
                        -----------------------------------------
Total Dipole Moment    :     -0.326459295      -0.607882876      -0.487968098
                        -----------------------------------------
Magnitude (a.u.)       :      0.845109536
Magnitude (Debye)      :      2.148097728

Rotational constants in cm-1:             0.047329             0.038753             0.027090
Rotational constants in MHz :          1418.890172          1161.776763           812.142501

                             ****ORCA TERMINATED NORMALLY****
TOTAL RUN TIME: 0 days 0 hours 0 minutes 7 seconds 445 msec
