                         Program Version 6.0.0  -   RELEASE  -
|  1> ! pbe def2-sv(p) def2/J RI DEFGRID1 loosescf d4 GCP(DFT/SV(P)) printgap
|  2> %output
|  3>     printlevel normal
|  4> end
|  5> * xyz 0 1
|  6> C -3.6531600588 -0.6996475263 0.0867281679
|  7> C -3.102424044 0.1007627184 1.0738009051
|  8> C -1.8631487789 0.6869368834 0.8847979523
|  9> C -1.1775180351 0.4688860712 -0.3025365245
| 10> C -1.7244407339 -0.3332552543 -1.2949379353
| 11> C -2.9643541986 -0.9144784701 -1.0955449432
| 12> O 0.0349755681 1.1093651142 -0.5261542398
| 13> C 1.190424536 0.4778296558 -0.1467548761
| 14> C 1.2242259343 -0.7748365806 0.4531343833
| 15> C 2.4424002232 -1.3333063883 0.8007821832
| 16> C 3.6238162773 -0.6564223304 0.5565185442
| 17> C 3.5858057324 0.5932824979 -0.0423366199
| 18> C 2.3781546838 1.1622665509 -0.3941408914
| 19> H -4.6190179342 -1.155550848 0.2385307498
| 20> H -3.6365037897 0.2703029473 1.9958355179
| 21> H -1.4189690206 1.3132963642 1.6434419851
| 22> H -1.1735428289 -0.4897906453 -2.2098868215
| 23> H -3.3906852316 -1.5373158923 -1.866537922
| 24> H 0.303754361 -1.3065147584 0.6452853381
| 25> H 2.4611462015 -2.3066928873 1.2668158819
| 26> H 4.5689727208 -1.0982142442 0.8303993527
| 27> H 4.5020422231 1.129275197 -0.2367906275
| 28> H 2.3268789466 2.133334604 -0.8608652741
| 29> *
| 30>
| 31>                          ****END OF INPUT****

CARTESIAN COORDINATES (ANGSTROEM)
---------------------------------
  C     -3.653160   -0.699648    0.086728
  C     -3.102424    0.100763    1.073801
  C     -1.863149    0.686937    0.884798
  C     -1.177518    0.468886   -0.302537
  C     -1.724441   -0.333255   -1.294938
  C     -2.964354   -0.914478   -1.095545
  O      0.034976    1.109365   -0.526154
  C      1.190425    0.477830   -0.146755
  C      1.224226   -0.774837    0.453134
  C      2.442400   -1.333306    0.800782
  C      3.623816   -0.656422    0.556519
  C      3.585806    0.593282   -0.042337
  C      2.378155    1.162267   -0.394141
  H     -4.619018   -1.155551    0.238531
  H     -3.636504    0.270303    1.995836
  H     -1.418969    1.313296    1.643442
  H     -1.173543   -0.489791   -2.209887
  H     -3.390685   -1.537316   -1.866538
  H      0.303754   -1.306515    0.645285
  H      2.461146   -2.306693    1.266816
  H      4.568973   -1.098214    0.830399
  H      4.502042    1.129275   -0.236791
  H      2.326879    2.133335   -0.860865

 Total Charge           Charge          ....    0
 Multiplicity           Mult            ....    1
 Number of Electrons    NEL             ....   90
 Basis Dimension        Dim             ....  202

ORBITAL ENERGIES
----------------

  NO   OCC          E(Eh)            E(eV)
   0   2.0000     -18.799556      -511.5619
   1   2.0000      -9.957735      -270.9637
   2   2.0000      -9.954230      -270.8684
   3   2.0000      -9.903035      -269.4753
   4   2.0000      -9.903005      -269.4745
   5   2.0000      -9.900961      -269.4189
   6   2.0000      -9.900883      -269.4167
   7   2.0000      -9.899408      -269.3766
   8   2.0000      -9.892853      -269.1982
   9   2.0000      -9.892245      -269.1817
  10   2.0000      -9.889073      -269.0954
  11   2.0000      -9.887849      -269.0621
  12   2.0000      -9.884993      -268.9843
  13   2.0000      -0.982464       -26.7342
  14   2.0000      -0.787124       -21.4187
  15   2.0000      -0.770381       -20.9631
  16   2.0000      -0.692321       -18.8390
  17   2.0000      -0.682240       -18.5647
  18   2.0000      -0.671061       -18.2605
  19   2.0000      -0.651737       -17.7347
  20   2.0000      -0.576303       -15.6820
  21   2.0000      -0.557523       -15.1710
  22   2.0000      -0.546125       -14.8608
  23   2.0000      -0.523436       -14.2434
  24   2.0000      -0.498539       -13.5659
  25   2.0000      -0.462475       -12.5846
  26   2.0000      -0.438324       -11.9274
  27   2.0000      -0.429699       -11.6927
  28   2.0000      -0.422371       -11.4933
  29   2.0000      -0.401321       -10.9205
  30   2.0000      -0.392040       -10.6680
  31   2.0000      -0.386560       -10.5188
  32   2.0000      -0.377152       -10.2628
  33   2.0000      -0.358220        -9.7477
  34   2.0000      -0.357349        -9.7240
  35   2.0000      -0.333109        -9.0644
  36   2.0000      -0.323914        -8.8141
  37   2.0000      -0.318909        -8.6780
  38   2.0000      -0.317393        -8.6367
  39   2.0000      -0.294131        -8.0037
  40   2.0000      -0.288056        -7.8384
  41   2.0000      -0.241086        -6.5603
  42   2.0000      -0.228920        -6.2292
  43   2.0000      -0.227461        -6.1895
  44   2.0000      -0.197873        -5.3844
  45   0.0000      -0.047275        -1.2864
  46   0.0000      -0.040742        -1.1087
  47   0.0000      -0.030651        -0.8341
  48   0.0000      -0.020219        -0.5502
  49   0.0000       0.036179         0.9845

MULLIKEN ATOMIC CHARGES
-----------------------
   0 C :   -0.035227
   1 C :   -0.059215
   2 C :   -0.086503
   3 C :    0.182764
   4 C :   -0.085863
   5 C :   -0.059605
   6 O :   -0.239482
   7 C :    0.253768
   8 C :   -0.154901
   9 C :   -0.056618
  10 C :   -0.044350
  11 C :   -0.057589
  12 C :   -0.111357
  13 H :    0.056870
  14 H :    0.059879
  15 H :    0.051997
  16 H :    0.051938
  17 H :    0.059960
  18 H :    0.069495
  19 H :    0.053729
  20 H :    0.048855
  21 H :    0.055037
  22 H :    0.046418
Sum of atomic charges:    0.0000000

LOEWDIN ATOMIC CHARGES
----------------------
   0 C :   -0.127725
   1 C :   -0.116042
   2 C :   -0.131696
   3 C :    0.032681
   4 C :   -0.131557
   5 C :   -0.116060
   6 O :   -0.046139
   7 C :    0.039158
   8 C :   -0.166730
   9 C :   -0.114490
  10 C :   -0.144927
  11 C :   -0.115639
  12 C :   -0.145037
  13 H :    0.125852
  14 H :    0.127235
  15 H :    0.133919
  16 H :    0.133916
  17 H :    0.127247
  18 H :    0.134133
  19 H :    0.124479
  20 H :    0.122384
  21 H :    0.124792
  22 H :    0.130246

  Mayer bond orders larger than 0.100000
B(  0-C ,  1-C ) :   1.3775 B(  0-C ,  5-C ) :   1.3779 B(  0-C , 13-H ) :   0.9666
B(  1-C ,  2-C ) :   1.3455 B(  1-C , 14-H ) :   0.9619 B(  2-C ,  3-C ) :   1.3953
B(  2-C , 15-H ) :   0.9651 B(  3-C ,  4-C ) :   1.3958 B(  3-C ,  6-O ) :   0.9901
B(  4-C ,  5-C ) :   1.3451 B(  4-C , 16-H ) :   0.9652 B(  5-C , 17-H ) :   0.9619
B(  6-O ,  7-C ) :   1.0764 B(  7-C ,  8-C ) :   1.3374 B(  7-C , 12-C ) :   1.3616
B(  8-C ,  9-C ) :   1.3501 B(  8-C , 18-H ) :   0.9536 B(  9-C , 10-C ) :   1.3853
B(  9-C , 19-H ) :   0.9630 B( 10-C , 11-C ) :   1.3615 B( 10-C , 20-H ) :   0.9674
B( 11-C , 12-C ) :   1.3799 B( 11-C , 21-H ) :   0.9642 B( 12-C , 22-H ) :   0.9648

Dispersion correction           -0.027835865
FINAL SINGLE POINT ENERGY      -537.364602358911

DIPOLE MOMENT
-------------

Method             : SCF
Type of density    : Electron Density
Multiplicity       :   1
Irrep              :   0
Energy             :  -537.4242920305113103 Eh
Relativity type    :
Basis              : AO
                                X                 Y                 Z
Electronic contribution:     -0.256190889       2.512761164      -1.213694885
Nuclear contribution   :     -0.070711981      -2.842991853       1.349016117
                        -----------------------------------------
Total Dipole Moment    :     -0.326902869      -0.330230689       0.135321232
                        -----------------------------------------
Magnitude (a.u.)       :      0.483972757
Magnitude (Debye)      :      1.230160986

Rotational constants in cm-1:             0.077822             0.014571             0.014072
Rotational constants in MHz :          2333.035517           436.822564           421.865028

                             ****ORCA TERMINATED NORMALLY****
TOTAL RUN TIME: 0 days 0 hours 0 minutes 17 seconds 931 msec
