                         Program Version 6.0.0  -   RELEASE  -
|  1> ! pbe def2-sv(p) def2/J RI DEFGRID1 loosescf d4 GCP(DFT/SV(P)) printgap
|  2> %output
|  3>     printlevel normal
|  4> end
|  5> * xyz 0 1
|  6> C -1.0077243934 -0.5873439167 -0.1181962425
|  7> C 0.0418398475 0.2974085159 0.5665192277
|  8> C 1.4080788346 -0.3954205789 0.6104288104
|  9> O 1.7019415835 -0.9574838725 -0.6484294776
| 10> O 0.1690429891 1.5328591926 -0.1046472928
| 11> O -2.2524234238 0.0668369494 -0.2072824126
| 12> H -1.0894089689 -1.5420380977 0.4114207727
| 13> H -0.6875393043 -0.7795278494 -1.1440796615
| 14> H -0.2668385186 0.4953513009 1.6080730729
| 15> H 1.3804924371 -1.1775948395 1.3809981984
| 16> H 2.1511162726 0.361019416 0.8864339756
| 17> H 2.6232055376 -1.2503096288 -0.6587019263
| 18> H -0.6799471473 1.7302352772 -0.530696714
| 19> H -2.6456017809 0.1355781214 0.674471867
| 20> *
| 21>
| 22>                          ****END OF INPUT****

CARTESIAN COORDINATES (ANGSTROEM)
---------------------------------
  C     -1.007724   -0.587344   -0.118196
  C      0.041840    0.297409    0.566519
  C      1.408079   -0.395421    0.610429
  O      1.701942   -0.957484   -0.648429
  O      0.169043    1.532859   -0.104647
  O     -2.252423    0.066837   -0.207282
  H     -1.089409   -1.542038    0.411421
  H     -0.687539   -0.779528   -1.144080
  H     -0.266839    0.495351    1.608073
  H      1.380492   -1.177595    1.380998
  H      2.151116    0.361019    0.886434
  H      2.623206   -1.250310   -0.658702
  H     -0.679947    1.730235   -0.530697
  H     -2.645602    0.135578    0.674472

 Total Charge           Charge          ....    0
 Multiplicity           Mult            ....    1
 Number of Electrons    NEL             ....   50
 Basis Dimension        Dim             ....  100

ORBITAL ENERGIES
----------------

  NO   OCC          E(Eh)            E(eV)
   0   2.0000     -18.756475      -510.3896
   1   2.0000     -18.746208      -510.1102
   2   2.0000     -18.733411      -509.7620
   3   2.0000      -9.934895      -270.3422
   4   2.0000      -9.931254      -270.2432
   5   2.0000      -9.928291      -270.1625
   6   2.0000      -0.938267       -25.5316
   7   2.0000      -0.922705       -25.1081
   8   2.0000      -0.902706       -24.5639
   9   2.0000      -0.679488       -18.4898
  10   2.0000      -0.605947       -16.4887
  11   2.0000      -0.531234       -14.4556
  12   2.0000      -0.477457       -12.9923
  13   2.0000      -0.472524       -12.8580
  14   2.0000      -0.434992       -11.8367
  15   2.0000      -0.400524       -10.8988
  16   2.0000      -0.386932       -10.5290
  17   2.0000      -0.374137       -10.1808
  18   2.0000      -0.344854        -9.3840
  19   2.0000      -0.300047        -8.1647
  20   2.0000      -0.285694        -7.7741
  21   2.0000      -0.269396        -7.3306
  22   2.0000      -0.229947        -6.2572
  23   2.0000      -0.216117        -5.8808
  24   2.0000      -0.205085        -5.5807
  25   0.0000       0.017095         0.4652
  26   0.0000       0.028501         0.7755
  27   0.0000       0.067646         1.8407
  28   0.0000       0.079025         2.1504
  29   0.0000       0.091167         2.4808

MULLIKEN ATOMIC CHARGES
-----------------------
   0 C :   -0.007943
   1 C :    0.006901
   2 C :    0.029969
   3 O :   -0.436921
   4 O :   -0.431715
   5 O :   -0.431366
   6 H :    0.073001
   7 H :    0.111371
   8 H :    0.042511
   9 H :    0.062442
  10 H :    0.085417
  11 H :    0.302366
  12 H :    0.295824
  13 H :    0.298142
Sum of atomic charges:    0.0000000

LOEWDIN ATOMIC CHARGES
----------------------
   0 C :   -0.143895
   1 C :   -0.087764
   2 C :   -0.125794
   3 O :   -0.341704
   4 O :   -0.333751
   5 O :   -0.333718
   6 H :    0.101315
   7 H :    0.123910
   8 H :    0.090788
   9 H :    0.093296
  10 H :    0.106201
  11 H :    0.288453
  12 H :    0.277747
  13 H :    0.284915

  Mayer bond orders larger than 0.100000
B(  0-C ,  1-C ) :   1.0613 B(  0-C ,  5-O ) :   1.0494 B(  0-C ,  6-H ) :   0.9212
B(  0-C ,  7-H ) :   0.9030 B(  1-C ,  2-C ) :   1.0484 B(  1-C ,  4-O ) :   1.0822
B(  1-C ,  8-H ) :   0.8889 B(  2-C ,  3-O ) :   1.0817 B(  2-C ,  9-H ) :   0.9107
B(  2-C , 10-H ) :   0.9169 B(  3-O , 11-H ) :   0.8507 B(  4-O , 12-H ) :   0.8318
B(  5-O , 13-H ) :   0.8526

Dispersion correction           -0.009175300
FINAL SINGLE POINT ENERGY      -344.006792175107

DIPOLE MOMENT
-------------

Method             : SCF
Type of density    : Electron Density
Multiplicity       :   1
Irrep              :   0
Energy             :  -344.0802414768699009 Eh
Relativity type    :
Basis              : AO
                                X                 Y                 Z
Electronic contribution:     -0.615092792       1.393118581      -1.637561153
Nuclear contribution   :      0.731250166      -1.892408324       2.451181574
                        -----------------------------------------
Total Dipole Moment    :      0.116157374      -0.499289743       0.813620421
                        -----------------------------------------
Magnitude (a.u.)       :      0.961644930
Magnitude (Debye)      :      2.444307161

Rotational constants in cm-1:             0.194106             0.078178             0.065624
Rotational constants in MHz :          5819.140080          2343.719097          1967.357397

                             ****ORCA TERMINATED NORMALLY****
TOTAL RUN TIME: 0 days 0 hours 0 minutes 6 seconds 601 msec
