                         Program Version 6.0.0  -   RELEASE  -
|  1> ! r2scan-3c def2/J RI DEFGRID2 scfconv6 printgap
|  2> %output
|  3>     printlevel normal
|  4> end
|  5> %cpcm
|  6>     smd true
|  7>     smdsolvent "water"
|  8> end
|  9> * xyz 0 1
| 10> C 2.3144856918 0.5402688185 -0.8346174034
| 11> C 1.0619318612 -0.1388522267 -0.2767031721
| 12> H 0.633926771 -0.7843103009 -1.0591881467
| 13> C 0.0288121508 0.9078163296 0.1594978353
| 14> C -1.434396031 0.441742321 0.1874796653
| 15> C -1.9753814821 0.1763888168 -1.2170000871
| 16> C -1.6326724041 -0.7795087984 1.0807511695
| 17> O 1.3801095268 -0.9331399866 0.8566282858
| 18> H 2.7426021617 1.1990229882 -0.0826581961
| 19> H 3.0596138283 -0.2017104807 -1.1144033181
| 20> H 2.0620767162 1.1232838802 -1.715298425
| 21> H 0.3147116476 1.2331325631 1.1620666186
| 22> H 0.1012504122 1.7668679619 -0.5090734596
| 23> H -2.0125410247 1.2703708434 0.6145704716
| 24> H -1.4761615816 -0.673885869 -1.6747727764
| 25> H -1.8312353703 1.0458913948 -1.8540384853
| 26> H -3.0392417271 -0.0436981757 -1.1706657007
| 27> H -1.1175931625 -1.6437013486 0.6706222219
| 28> H -1.2321739122 -0.5925696576 2.0738181364
| 29> H -2.6906888128 -1.0164570876 1.1683120644
| 30> H 2.0881206074 -1.5484036295 0.6248213341
| 31> *
| 32>
| 33>                          ****END OF INPUT****

CARTESIAN COORDINATES (ANGSTROEM)
---------------------------------
  C      2.314486    0.540269   -0.834617
  C      1.061932   -0.138852   -0.276703
  H      0.633927   -0.784310   -1.059188
  C      0.028812    0.907816    0.159498
  C     -1.434396    0.441742    0.187480
  C     -1.975381    0.176389   -1.217000
  C     -1.632672   -0.779509    1.080751
  O      1.380110   -0.933140    0.856628
  H      2.742602    1.199023   -0.082658
  H      3.059614   -0.201710   -1.114403
  H      2.062077    1.123284   -1.715298
  H      0.314712    1.233133    1.162067
  H      0.101250    1.766868   -0.509073
  H     -2.012541    1.270371    0.614570
  H     -1.476162   -0.673886   -1.674773
  H     -1.831235    1.045891   -1.854038
  H     -3.039242   -0.043698   -1.170666
  H     -1.117593   -1.643701    0.670622
  H     -1.232174   -0.592570    2.073818
  H     -2.690689   -1.016457    1.168312
  H      2.088121   -1.548404    0.624821

 Total Charge           Charge          ....    0
 Multiplicity           Mult            ....    1
 Number of Electrons    NEL             ....   58
 Basis Dimension        Dim             ....  208

ORBITAL ENERGIES
----------------

  NO   OCC          E(Eh)            E(eV)
   0   2.0000     -18.946024      -515.5475
   1   2.0000     -10.073882      -274.1243
   2   2.0000     -10.024826      -272.7894
   3   2.0000     -10.013765      -272.4884
   4   2.0000     -10.009253      -272.3656
   5   2.0000     -10.005261      -272.2570
   6   2.0000     -10.003839      -272.2183
   7   2.0000      -0.983272       -26.7562
   8   2.0000      -0.769035       -20.9265
   9   2.0000      -0.713327       -19.4106
  10   2.0000      -0.642140       -17.4735
  11   2.0000      -0.639533       -17.4026
  12   2.0000      -0.566477       -15.4146
  13   2.0000      -0.505977       -13.7683
  14   2.0000      -0.475526       -12.9397
  15   2.0000      -0.428900       -11.6710
  16   2.0000      -0.405663       -11.0387
  17   2.0000      -0.391015       -10.6401
  18   2.0000      -0.384139       -10.4530
  19   2.0000      -0.371089       -10.0978
  20   2.0000      -0.343158        -9.3378
  21   2.0000      -0.339414        -9.2359
  22   2.0000      -0.332781        -9.0554
  23   2.0000      -0.321512        -8.7488
  24   2.0000      -0.308316        -8.3897
  25   2.0000      -0.286682        -7.8010
  26   2.0000      -0.283972        -7.7273
  27   2.0000      -0.263456        -7.1690
  28   2.0000      -0.234961        -6.3936
  29   0.0000       0.074083         2.0159
  30   0.0000       0.100573         2.7367
  31   0.0000       0.119060         3.2398
  32   0.0000       0.128225         3.4892
  33   0.0000       0.140436         3.8214

MULLIKEN ATOMIC CHARGES
-----------------------
   0 C :   -0.543810
   1 C :    0.039616
   2 H :    0.148973
   3 C :   -0.310272
   4 C :   -0.017063
   5 C :   -0.551802
   6 C :   -0.541154
   7 O :   -0.493577
   8 H :    0.161946
   9 H :    0.159154
  10 H :    0.165822
  11 H :    0.162681
  12 H :    0.162075
  13 H :    0.158597
  14 H :    0.162074
  15 H :    0.158612
  16 H :    0.156829
  17 H :    0.168246
  18 H :    0.160621
  19 H :    0.153046
  20 H :    0.339387
Sum of atomic charges:    0.0000000

LOEWDIN ATOMIC CHARGES
----------------------
   0 C :   -0.404605
   1 C :    0.051143
   2 H :    0.169043
   3 C :   -0.273777
   4 C :   -0.240103
   5 C :   -0.427460
   6 C :   -0.423196
   7 O :   -0.655463
   8 H :    0.161776
   9 H :    0.158083
  10 H :    0.163035
  11 H :    0.173910
  12 H :    0.170080
  13 H :    0.158012
  14 H :    0.153923
  15 H :    0.156068
  16 H :    0.155688
  17 H :    0.159345
  18 H :    0.156959
  19 H :    0.152576
  20 H :    0.284962

  Mayer bond orders larger than 0.100000
B(  0-C ,  1-C ) :   0.9083 B(  0-C ,  8-H ) :   0.9774 B(  0-C ,  9-H ) :   0.9695
B(  0-C , 10-H ) :   0.9707 B(  1-C ,  2-H ) :   0.9702 B(  1-C ,  3-C ) :   0.8871
B(  1-C ,  7-O ) :   0.8317 B(  3-C ,  4-C ) :   0.9071 B(  3-C , 11-H ) :   0.9698
B(  3-C , 12-H ) :   0.9805 B(  4-C ,  5-C ) :   0.9143 B(  4-C ,  6-C ) :   0.8856
B(  4-C , 13-H ) :   0.9753 B(  5-C , 14-H ) :   0.9798 B(  5-C , 15-H ) :   0.9730
B(  5-C , 16-H ) :   0.9688 B(  6-C , 17-H ) :   0.9758 B(  6-C , 18-H ) :   0.9761
B(  6-C , 19-H ) :   0.9654 B(  7-O , 20-H ) :   0.8761

Dispersion correction           -0.005636304
FINAL SINGLE POINT ENERGY      -312.206381621539

DIPOLE MOMENT
-------------

Method             : SCF
Type of density    : Electron Density
Multiplicity       :   1
Irrep              :   0
Energy             :  -312.2118882453956985 Eh
Relativity type    :
Basis              : AO
                                X                 Y                 Z
Electronic contribution:      2.585410912      -1.034765356       1.916858876
Nuclear contribution   :     -2.228608956       1.049872346      -2.675958307
                        -----------------------------------------
Total Dipole Moment    :      0.356801956       0.015106990      -0.759099431
                        -----------------------------------------
Magnitude (a.u.)       :      0.838908698
Magnitude (Debye)      :      2.132336450

Rotational constants in cm-1:             0.129474             0.056449             0.045971
Rotational constants in MHz :          3881.530479          1692.285109          1378.167123

                             ****ORCA TERMINATED NORMALLY****
TOTAL RUN TIME: 0 days 0 hours 0 minutes 37 seconds 173 msec
