                         Program Version 6.0.0  -   RELEASE  -
|  1> ! pbe def2-sv(p) def2/J RI DEFGRID1 loosescf d4 GCP(DFT/SV(P)) printgap
|  2> %output
|  3>     printlevel normal
|  4> end
|  5> * xyz 0 1
|  6> C 2.5180902336 0.1710170021 0.6261343646
|  7> C 1.1796192771 0.8562039189 0.3687749697
|  8> C -1.53439e-05 -0.069123559 4.79183e-05
|  9> C 0.3696734281 -0.9523548481 -1.1935752809
| 10> C -0.3702429543 -0.9518560843 1.1938577534
| 11> C -1.1791163642 0.8568310753 -0.3689216988
| 12> C -2.5179876293 0.172407881 -0.6263175934
| 13> H 2.4418847574 -0.5633412625 1.4233554722
| 14> H 3.2524135854 0.9156100693 0.9257944435
| 15> H 2.8865344283 -0.3221627891 -0.2688810016
| 16> H 0.9016245375 1.4209731108 1.2623767729
| 17> H 1.315376883 1.5772923145 -0.4415598385
| 18> H 0.7124005015 -0.3438923353 -2.0277920261
| 19> H -0.488242088 -1.5333143258 -1.520857867
| 20> H 1.157486726 -1.6503288228 -0.9243815731
| 21> H -1.1584863821 -1.6494219795 0.9248489736
| 22> H 0.4872926744 -1.5332794756 1.5212935605
| 23> H -0.71256936 -0.3430074973 2.0279558789
| 24> H -1.3144937439 1.5781568503 0.4412701459
| 25> H -0.9007221941 1.4212671953 -1.262601882
| 26> H -2.4421343492 -0.5620470534 -1.4234817838
| 27> H -2.8867148685 -0.3204884466 0.2687274993
| 28> H -3.2518971558 0.9173911249 -0.9260719345
| 29> *
| 30>
| 31>                          ****END OF INPUT****

CARTESIAN COORDINATES (ANGSTROEM)
---------------------------------
  C      2.518090    0.171017    0.626134
  C      1.179619    0.856204    0.368775
  C     -0.000015   -0.069124    0.000048
  C      0.369673   -0.952355   -1.193575
  C     -0.370243   -0.951856    1.193858
  C     -1.179116    0.856831   -0.368922
  C     -2.517988    0.172408   -0.626318
  H      2.441885   -0.563341    1.423355
  H      3.252414    0.915610    0.925794
  H      2.886534   -0.322163   -0.268881
  H      0.901625    1.420973    1.262377
  H      1.315377    1.577292   -0.441560
  H      0.712401   -0.343892   -2.027792
  H     -0.488242   -1.533314   -1.520858
  H      1.157487   -1.650329   -0.924382
  H     -1.158486   -1.649422    0.924849
  H      0.487293   -1.533279    1.521294
  H     -0.712569   -0.343007    2.027956
  H     -1.314494    1.578157    0.441270
  H     -0.900722    1.421267   -1.262602
  H     -2.442134   -0.562047   -1.423482
  H     -2.886715   -0.320488    0.268727
  H     -3.251897    0.917391   -0.926072

 Total Charge           Charge          ....    0
 Multiplicity           Mult            ....    1
 Number of Electrons    NEL             ....   58
 Basis Dimension        Dim             ....  130

ORBITAL ENERGIES
----------------

  NO   OCC          E(Eh)            E(eV)
   0   2.0000      -9.899252      -269.3724
   1   2.0000      -9.877208      -268.7725
   2   2.0000      -9.877200      -268.7723
   3   2.0000      -9.868800      -268.5437
   4   2.0000      -9.868792      -268.5435
   5   2.0000      -9.867311      -268.5032
   6   2.0000      -9.867297      -268.5028
   7   2.0000      -0.746089       -20.3021
   8   2.0000      -0.671889       -18.2830
   9   2.0000      -0.641211       -17.4482
  10   2.0000      -0.609175       -16.5765
  11   2.0000      -0.578398       -15.7390
  12   2.0000      -0.525147       -14.2900
  13   2.0000      -0.461599       -12.5608
  14   2.0000      -0.418366       -11.3843
  15   2.0000      -0.411946       -11.2096
  16   2.0000      -0.393707       -10.7133
  17   2.0000      -0.383008       -10.4222
  18   2.0000      -0.349838        -9.5196
  19   2.0000      -0.349264        -9.5040
  20   2.0000      -0.340490        -9.2652
  21   2.0000      -0.328073        -8.9273
  22   2.0000      -0.324063        -8.8182
  23   2.0000      -0.305063        -8.3012
  24   2.0000      -0.301830        -8.2132
  25   2.0000      -0.289681        -7.8826
  26   2.0000      -0.271526        -7.3886
  27   2.0000      -0.263830        -7.1792
  28   2.0000      -0.261207        -7.1078
  29   0.0000       0.029437         0.8010
  30   0.0000       0.067307         1.8315
  31   0.0000       0.068252         1.8572
  32   0.0000       0.069617         1.8944
  33   0.0000       0.090773         2.4701

MULLIKEN ATOMIC CHARGES
-----------------------
   0 C :   -0.265016
   1 C :   -0.130074
   2 C :   -0.238266
   3 C :   -0.230510
   4 C :   -0.230504
   5 C :   -0.130083
   6 C :   -0.265017
   7 H :    0.101001
   8 H :    0.098935
   9 H :    0.103543
  10 H :    0.074427
  11 H :    0.075670
  12 H :    0.091842
  13 H :    0.098318
  14 H :    0.101002
  15 H :    0.101001
  16 H :    0.098312
  17 H :    0.091840
  18 H :    0.075671
  19 H :    0.074424
  20 H :    0.101004
  21 H :    0.103541
  22 H :    0.098939
Sum of atomic charges:    0.0000000

LOEWDIN ATOMIC CHARGES
----------------------
   0 C :   -0.343209
   1 C :   -0.215161
   2 C :   -0.102068
   3 C :   -0.318996
   4 C :   -0.318997
   5 C :   -0.215162
   6 C :   -0.343210
   7 H :    0.115991
   8 H :    0.120735
   9 H :    0.117496
  10 H :    0.112149
  11 H :    0.112650
  12 H :    0.116139
  13 H :    0.116046
  14 H :    0.117198
  15 H :    0.117198
  16 H :    0.116045
  17 H :    0.116139
  18 H :    0.112648
  19 H :    0.112148
  20 H :    0.115992
  21 H :    0.117496
  22 H :    0.120735

  Mayer bond orders larger than 0.100000
B(  0-C ,  1-C ) :   1.1622 B(  0-C ,  7-H ) :   0.9460 B(  0-C ,  8-H ) :   0.9474
B(  0-C ,  9-H ) :   0.9446 B(  1-C ,  2-C ) :   1.0510 B(  1-C , 10-H ) :   0.9191
B(  1-C , 11-H ) :   0.9173 B(  2-C ,  3-C ) :   1.0724 B(  2-C ,  4-C ) :   1.0724
B(  2-C ,  5-C ) :   1.0510 B(  3-C , 12-H ) :   0.9480 B(  3-C , 13-H ) :   0.9402
B(  3-C , 14-H ) :   0.9403 B(  4-C , 15-H ) :   0.9403 B(  4-C , 16-H ) :   0.9402
B(  4-C , 17-H ) :   0.9480 B(  5-C ,  6-C ) :   1.1622 B(  5-C , 18-H ) :   0.9173
B(  5-C , 19-H ) :   0.9191 B(  6-C , 20-H ) :   0.9460 B(  6-C , 21-H ) :   0.9446
B(  6-C , 22-H ) :   0.9474

Dispersion correction           -0.019793706
FINAL SINGLE POINT ENERGY      -275.660636522215

DIPOLE MOMENT
-------------

Method             : SCF
Type of density    : Electron Density
Multiplicity       :   1
Irrep              :   0
Energy             :  -275.7376481272478941 Eh
Relativity type    :
Basis              : AO
                                X                 Y                 Z
Electronic contribution:      0.000253229       0.942613540       0.000009076
Nuclear contribution   :     -0.000230833      -0.929336454      -0.000004841
                        -----------------------------------------
Total Dipole Moment    :      0.000022396       0.013277086       0.000004235
                        -----------------------------------------
Magnitude (a.u.)       :      0.013277105
Magnitude (Debye)      :      0.033747720

Rotational constants in cm-1:             0.138363             0.052738             0.052299
Rotational constants in MHz :          4148.028132          1581.056753          1567.896199

                             ****ORCA TERMINATED NORMALLY****
TOTAL RUN TIME: 0 days 0 hours 0 minutes 9 seconds 932 msec
