                         Program Version 6.0.0  -   RELEASE  -
|  1> ! pbe def2-sv(p) def2/J RI DEFGRID1 loosescf d4 GCP(DFT/SV(P)) printgap
|  2> %output
|  3>     printlevel normal
|  4> end
|  5> * xyz 0 1
|  6> C -1.4461649166 0.3535962116 -0.2959760649
|  7> C -0.0176308722 0.3477337257 0.2902560496
|  8> C 0.8273182055 -0.7926620615 -0.3023025764
|  9> O 2.1807421095 -0.730933695 0.0794742883
| 10> O 0.5990953173 1.6015651474 0.1067677821
| 11> O -2.232867617 -0.7300729327 0.1366569028
| 12> H -1.3976986561 0.3934908542 -1.3912485307
| 13> H -1.9515630774 1.2540556244 0.0626016599
| 14> H -0.0941630157 0.2243652715 1.3770290314
| 15> H 0.8345644193 -0.7231384257 -1.3941627077
| 16> H 0.3905501536 -1.756120072 -0.0088937431
| 17> H 2.2438096361 -0.7065756334 1.0441306259
| 18> H 0.8406525492 1.7092086177 -0.8241630648
| 19> H -1.964061095 -1.5380981006 -0.3203524306
| 20> *
| 21>
| 22>                          ****END OF INPUT****

CARTESIAN COORDINATES (ANGSTROEM)
---------------------------------
  C     -1.446165    0.353596   -0.295976
  C     -0.017631    0.347734    0.290256
  C      0.827318   -0.792662   -0.302303
  O      2.180742   -0.730934    0.079474
  O      0.599095    1.601565    0.106768
  O     -2.232868   -0.730073    0.136657
  H     -1.397699    0.393491   -1.391249
  H     -1.951563    1.254056    0.062602
  H     -0.094163    0.224365    1.377029
  H      0.834564   -0.723138   -1.394163
  H      0.390550   -1.756120   -0.008894
  H      2.243810   -0.706576    1.044131
  H      0.840653    1.709209   -0.824163
  H     -1.964061   -1.538098   -0.320352

 Total Charge           Charge          ....    0
 Multiplicity           Mult            ....    1
 Number of Electrons    NEL             ....   50
 Basis Dimension        Dim             ....  100

ORBITAL ENERGIES
----------------

  NO   OCC          E(Eh)            E(eV)
   0   2.0000     -18.754583      -510.3382
   1   2.0000     -18.750654      -510.2312
   2   2.0000     -18.748741      -510.1792
   3   2.0000      -9.939602      -270.4703
   4   2.0000      -9.939460      -270.4664
   5   2.0000      -9.933846      -270.3137
   6   2.0000      -0.940278       -25.5863
   7   2.0000      -0.927491       -25.2383
   8   2.0000      -0.914882       -24.8952
   9   2.0000      -0.680177       -18.5086
  10   2.0000      -0.612696       -16.6723
  11   2.0000      -0.557961       -15.1829
  12   2.0000      -0.484748       -13.1907
  13   2.0000      -0.469690       -12.7809
  14   2.0000      -0.425459       -11.5773
  15   2.0000      -0.416367       -11.3299
  16   2.0000      -0.401002       -10.9118
  17   2.0000      -0.376798       -10.2532
  18   2.0000      -0.350612        -9.5406
  19   2.0000      -0.300608        -8.1800
  20   2.0000      -0.285362        -7.7651
  21   2.0000      -0.280020        -7.6197
  22   2.0000      -0.248359        -6.7582
  23   2.0000      -0.224095        -6.0979
  24   2.0000      -0.202671        -5.5150
  25   0.0000       0.013175         0.3585
  26   0.0000       0.020769         0.5651
  27   0.0000       0.034918         0.9502
  28   0.0000       0.075171         2.0455
  29   0.0000       0.082087         2.2337

MULLIKEN ATOMIC CHARGES
-----------------------
   0 C :    0.015465
   1 C :   -0.014832
   2 C :    0.010348
   3 O :   -0.424165
   4 O :   -0.415188
   5 O :   -0.431176
   6 H :    0.059498
   7 H :    0.099579
   8 H :    0.069992
   9 H :    0.071692
  10 H :    0.063850
  11 H :    0.299126
  12 H :    0.296172
  13 H :    0.299638
Sum of atomic charges:   -0.0000000

LOEWDIN ATOMIC CHARGES
----------------------
   0 C :   -0.138716
   1 C :   -0.104737
   2 C :   -0.145409
   3 O :   -0.334517
   4 O :   -0.315372
   5 O :   -0.335017
   6 H :    0.091631
   7 H :    0.118582
   8 H :    0.111807
   9 H :    0.106896
  10 H :    0.093144
  11 H :    0.286121
  12 H :    0.284340
  13 H :    0.281248

  Mayer bond orders larger than 0.100000
B(  0-C ,  1-C ) :   1.0088 B(  0-C ,  5-O ) :   1.0721 B(  0-C ,  6-H ) :   0.9168
B(  0-C ,  7-H ) :   0.9227 B(  1-C ,  2-C ) :   1.0377 B(  1-C ,  4-O ) :   1.0409
B(  1-C ,  8-H ) :   0.8870 B(  2-C ,  3-O ) :   1.0898 B(  2-C ,  9-H ) :   0.9119
B(  2-C , 10-H ) :   0.9104 B(  3-O , 11-H ) :   0.8518 B(  4-O , 12-H ) :   0.8515
B(  5-O , 13-H ) :   0.8492

Dispersion correction           -0.009047355
FINAL SINGLE POINT ENERGY      -344.003293915075

DIPOLE MOMENT
-------------

Method             : SCF
Type of density    : Electron Density
Multiplicity       :   1
Irrep              :   0
Energy             :  -344.0761149136759514 Eh
Relativity type    :
Basis              : AO
                                X                 Y                 Z
Electronic contribution:      1.000312149       0.626288047       0.956928307
Nuclear contribution   :     -1.021905843      -1.070068183      -1.360302284
                        -----------------------------------------
Total Dipole Moment    :     -0.021593694      -0.443780136      -0.403373977
                        -----------------------------------------
Magnitude (a.u.)       :      0.600098044
Magnitude (Debye)      :      1.525328007

Rotational constants in cm-1:             0.184728             0.075706             0.057869
Rotational constants in MHz :          5538.010566          2269.613438          1734.867752

                             ****ORCA TERMINATED NORMALLY****
TOTAL RUN TIME: 0 days 0 hours 0 minutes 6 seconds 688 msec
