                         Program Version 6.0.0  -   RELEASE  -
|  1> ! pbe def2-sv(p) def2/J RI DEFGRID1 loosescf d4 GCP(DFT/SV(P)) printgap
|  2> %output
|  3>     printlevel normal
|  4> end
|  5> * xyz 0 1
|  6> C -2.3704463194 0.7168078584 0.7640458713
|  7> C -1.2402312953 -0.2711269092 0.4685636025
|  8> C -1.8315010824 -1.4496256846 -0.3081585132
|  9> C -0.0749203003 0.381417753 -0.3091509916
| 10> C 0.2610404777 1.7770904774 0.2204764964
| 11> C 1.1764984315 -0.5271794747 -0.3276351508
| 12> C 2.0949034371 -0.1814224339 -1.5005842434
| 13> C 1.9697829674 -0.4921169864 0.9782849986
| 14> H -3.2071413553 0.1911176382 1.219465493
| 15> H -2.0533262336 1.4963425676 1.4496354751
| 16> H -2.7208467887 1.1791089568 -0.1563954054
| 17> H -0.8569253028 -0.6425892687 1.4250034703
| 18> H -2.2478584861 -1.1041777499 -1.2524003004
| 19> H -2.6291306105 -1.9144035729 0.2671871472
| 20> H -1.0876112544 -2.2120084867 -0.5217373176
| 21> H -0.4059916271 0.4931887143 -1.349017759
| 22> H 0.4023442509 1.7614709723 1.2979400185
| 23> H -0.5336335442 2.4790339528 -0.0147659215
| 24> H 1.1722624023 2.1469087215 -0.2420831676
| 25> H 0.8388276176 -1.5569393383 -0.4793218321
| 26> H 1.5577797845 -0.2549447488 -2.443566518
| 27> H 2.4889081084 0.8277321286 -1.4075670423
| 28> H 2.9368923461 -0.8693909323 -1.5320405007
| 29> H 2.4505457393 0.4721297807 1.1175759395
| 30> H 2.744815192 -1.2553672008 0.957767629
| 31> H 1.3273373218 -0.6871848409 1.8330386178
| 32> *
| 33>
| 34>                          ****END OF INPUT****

CARTESIAN COORDINATES (ANGSTROEM)
---------------------------------
  C     -2.370446    0.716808    0.764046
  C     -1.240231   -0.271127    0.468564
  C     -1.831501   -1.449626   -0.308159
  C     -0.074920    0.381418   -0.309151
  C      0.261040    1.777090    0.220476
  C      1.176498   -0.527179   -0.327635
  C      2.094903   -0.181422   -1.500584
  C      1.969783   -0.492117    0.978285
  H     -3.207141    0.191118    1.219465
  H     -2.053326    1.496343    1.449635
  H     -2.720847    1.179109   -0.156395
  H     -0.856925   -0.642589    1.425003
  H     -2.247858   -1.104178   -1.252400
  H     -2.629131   -1.914404    0.267187
  H     -1.087611   -2.212008   -0.521737
  H     -0.405992    0.493189   -1.349018
  H      0.402344    1.761471    1.297940
  H     -0.533634    2.479034   -0.014766
  H      1.172262    2.146909   -0.242083
  H      0.838828   -1.556939   -0.479322
  H      1.557780   -0.254945   -2.443567
  H      2.488908    0.827732   -1.407567
  H      2.936892   -0.869391   -1.532041
  H      2.450546    0.472130    1.117576
  H      2.744815   -1.255367    0.957768
  H      1.327337   -0.687185    1.833039

 Total Charge           Charge          ....    0
 Multiplicity           Mult            ....    1
 Number of Electrons    NEL             ....   66
 Basis Dimension        Dim             ....  148

ORBITAL ENERGIES
----------------

  NO   OCC          E(Eh)            E(eV)
   0   2.0000      -9.889109      -269.0963
   1   2.0000      -9.888022      -269.0667
   2   2.0000      -9.886811      -269.0338
   3   2.0000      -9.867967      -268.5210
   4   2.0000      -9.867833      -268.5174
   5   2.0000      -9.867814      -268.5169
   6   2.0000      -9.867474      -268.5076
   7   2.0000      -9.867179      -268.4996
   8   2.0000      -0.746646       -20.3173
   9   2.0000      -0.697428       -18.9780
  10   2.0000      -0.644433       -17.5359
  11   2.0000      -0.607148       -16.5213
  12   2.0000      -0.605221       -16.4689
  13   2.0000      -0.563750       -15.3404
  14   2.0000      -0.506254       -13.7759
  15   2.0000      -0.474813       -12.9203
  16   2.0000      -0.427531       -11.6337
  17   2.0000      -0.405438       -11.0325
  18   2.0000      -0.392974       -10.6934
  19   2.0000      -0.379478       -10.3261
  20   2.0000      -0.366880        -9.9833
  21   2.0000      -0.355280        -9.6677
  22   2.0000      -0.346587        -9.4311
  23   2.0000      -0.337606        -9.1867
  24   2.0000      -0.327754        -8.9186
  25   2.0000      -0.324653        -8.8343
  26   2.0000      -0.309841        -8.4312
  27   2.0000      -0.300756        -8.1840
  28   2.0000      -0.294946        -8.0259
  29   2.0000      -0.289490        -7.8774
  30   2.0000      -0.267805        -7.2873
  31   2.0000      -0.258840        -7.0434
  32   2.0000      -0.256437        -6.9780
  33   0.0000       0.030958         0.8424
  34   0.0000       0.056083         1.5261
  35   0.0000       0.058754         1.5988
  36   0.0000       0.065184         1.7738
  37   0.0000       0.084513         2.2997

MULLIKEN ATOMIC CHARGES
-----------------------
   0 C :   -0.235636
   1 C :   -0.159507
   2 C :   -0.250270
   3 C :   -0.106242
   4 C :   -0.251929
   5 C :   -0.165540
   6 C :   -0.234046
   7 C :   -0.255690
   8 H :    0.094215
   9 H :    0.102886
  10 H :    0.091941
  11 H :    0.068151
  12 H :    0.090799
  13 H :    0.096070
  14 H :    0.105167
  15 H :    0.052128
  16 H :    0.101635
  17 H :    0.103449
  18 H :    0.099690
  19 H :    0.069260
  20 H :    0.095414
  21 H :    0.095684
  22 H :    0.094476
  23 H :    0.097658
  24 H :    0.096940
  25 H :    0.103296
Sum of atomic charges:    0.0000000

LOEWDIN ATOMIC CHARGES
----------------------
   0 C :   -0.328742
   1 C :   -0.150032
   2 C :   -0.329588
   3 C :   -0.133835
   4 C :   -0.331070
   5 C :   -0.151075
   6 C :   -0.327904
   7 C :   -0.330271
   8 H :    0.116338
   9 H :    0.116790
  10 H :    0.116098
  11 H :    0.112788
  12 H :    0.115593
  13 H :    0.116824
  14 H :    0.114275
  15 H :    0.110656
  16 H :    0.118171
  17 H :    0.119229
  18 H :    0.116070
  19 H :    0.113294
  20 H :    0.115643
  21 H :    0.114185
  22 H :    0.116720
  23 H :    0.116665
  24 H :    0.118410
  25 H :    0.114770

  Mayer bond orders larger than 0.100000
B(  0-C ,  1-C ) :   1.1234 B(  0-C ,  8-H ) :   0.9485 B(  0-C ,  9-H ) :   0.9372
B(  0-C , 10-H ) :   0.9470 B(  1-C ,  2-C ) :   1.1177 B(  1-C ,  3-C ) :   1.0401
B(  1-C , 11-H ) :   0.8867 B(  2-C , 12-H ) :   0.9475 B(  2-C , 13-H ) :   0.9479
B(  2-C , 14-H ) :   0.9400 B(  3-C ,  4-C ) :   1.1224 B(  3-C ,  5-C ) :   1.0403
B(  3-C , 15-H ) :   0.8907 B(  4-C , 16-H ) :   0.9371 B(  4-C , 17-H ) :   0.9339
B(  4-C , 18-H ) :   0.9420 B(  5-C ,  6-C ) :   1.1113 B(  5-C ,  7-C ) :   1.1124
B(  5-C , 19-H ) :   0.8927 B(  6-C , 20-H ) :   0.9477 B(  6-C , 21-H ) :   0.9428
B(  6-C , 22-H ) :   0.9489 B(  7-C , 23-H ) :   0.9401 B(  7-C , 24-H ) :   0.9477
B(  7-C , 25-H ) :   0.9445

Dispersion correction           -0.023350050
FINAL SINGLE POINT ENERGY      -314.870894523374

DIPOLE MOMENT
-------------

Method             : SCF
Type of density    : Electron Density
Multiplicity       :   1
Irrep              :   0
Energy             :  -314.9580544565727678 Eh
Relativity type    :
Basis              : AO
                                X                 Y                 Z
Electronic contribution:     -0.169184655      -0.547418540      -0.142640305
Nuclear contribution   :      0.166286860       0.516014504       0.158284779
                        -----------------------------------------
Total Dipole Moment    :     -0.002897794      -0.031404036       0.015644474
                        -----------------------------------------
Magnitude (a.u.)       :      0.035204549
Magnitude (Debye)      :      0.089482852

Rotational constants in cm-1:             0.092209             0.043327             0.038051
Rotational constants in MHz :          2764.361356          1298.908807          1140.745663

                             ****ORCA TERMINATED NORMALLY****
TOTAL RUN TIME: 0 days 0 hours 0 minutes 11 seconds 594 msec
