                         Program Version 6.0.0  -   RELEASE  -
|  1> ! pbe def2-sv(p) def2/J RI DEFGRID1 loosescf d4 GCP(DFT/SV(P)) printgap
|  2> %output
|  3>     printlevel normal
|  4> end
|  5> * xyz 0 1
|  6> C 1.8869494462 0.7905300414 -1.0333145716
|  7> C 1.4436575635 -0.2250272559 0.021060648
|  8> H 2.1965882018 -1.0230063056 0.0546819681
|  9> C 0.0817765982 -0.8829162788 -0.3051609253
| 10> C -1.1719832092 -0.1922057176 0.2498277713
| 11> C -1.477870029 1.143533174 -0.4260500956
| 12> C -2.3692214795 -1.1284274614 0.0759046484
| 13> O 1.4869295321 0.3280063555 1.3249501479
| 14> H 1.9925500025 0.2990095246 -1.9958046108
| 15> H 1.1700757612 1.5999126703 -1.1319307362
| 16> H 2.8500636003 1.2093331957 -0.7495020197
| 17> H -0.0020780508 -0.9732638107 -1.3889528703
| 18> H 0.0993407589 -1.8926019935 0.1105069629
| 19> H -1.0264398978 -0.0278083646 1.3232696704
| 20> H -1.5273775482 1.0177794737 -1.5055675508
| 21> H -0.729313556 1.8970644793 -0.1984118766
| 22> H -2.4392168333 1.5197274527 -0.0822767382
| 23> H -3.2680294523 -0.6766482704 0.4889225528
| 24> H -2.5401849033 -1.3311131838 -0.9792118068
| 25> H -2.1983687893 -2.0744239209 0.5843245411
| 26> H 0.9655860281 1.1423142229 1.3326154348
| 27> *
| 28>
| 29>                          ****END OF INPUT****

CARTESIAN COORDINATES (ANGSTROEM)
---------------------------------
  C      1.886949    0.790530   -1.033315
  C      1.443658   -0.225027    0.021061
  H      2.196588   -1.023006    0.054682
  C      0.081777   -0.882916   -0.305161
  C     -1.171983   -0.192206    0.249828
  C     -1.477870    1.143533   -0.426050
  C     -2.369221   -1.128427    0.075905
  O      1.486930    0.328006    1.324950
  H      1.992550    0.299010   -1.995805
  H      1.170076    1.599913   -1.131931
  H      2.850064    1.209333   -0.749502
  H     -0.002078   -0.973264   -1.388953
  H      0.099341   -1.892602    0.110507
  H     -1.026440   -0.027808    1.323270
  H     -1.527378    1.017779   -1.505568
  H     -0.729314    1.897064   -0.198412
  H     -2.439217    1.519727   -0.082277
  H     -3.268029   -0.676648    0.488923
  H     -2.540185   -1.331113   -0.979212
  H     -2.198369   -2.074424    0.584325
  H      0.965586    1.142314    1.332615

 Total Charge           Charge          ....    0
 Multiplicity           Mult            ....    1
 Number of Electrons    NEL             ....   58
 Basis Dimension        Dim             ....  126

ORBITAL ENERGIES
----------------

  NO   OCC          E(Eh)            E(eV)
   0   2.0000     -18.738529      -509.9013
   1   2.0000      -9.934415      -270.3292
   2   2.0000      -9.896157      -269.2881
   3   2.0000      -9.878526      -268.8084
   4   2.0000      -9.878437      -268.8059
   5   2.0000      -9.874209      -268.6909
   6   2.0000      -9.872679      -268.6492
   7   2.0000      -0.916342       -24.9349
   8   2.0000      -0.730871       -19.8880
   9   2.0000      -0.676311       -18.4034
  10   2.0000      -0.618270       -16.8240
  11   2.0000      -0.606802       -16.5119
  12   2.0000      -0.543191       -14.7810
  13   2.0000      -0.497854       -13.5473
  14   2.0000      -0.433104       -11.7854
  15   2.0000      -0.418477       -11.3873
  16   2.0000      -0.416946       -11.3457
  17   2.0000      -0.382481       -10.4078
  18   2.0000      -0.372016       -10.1231
  19   2.0000      -0.355263        -9.6672
  20   2.0000      -0.350804        -9.5459
  21   2.0000      -0.340235        -9.2583
  22   2.0000      -0.334392        -9.0993
  23   2.0000      -0.308560        -8.3964
  24   2.0000      -0.291290        -7.9264
  25   2.0000      -0.284111        -7.7311
  26   2.0000      -0.281971        -7.6728
  27   2.0000      -0.258781        -7.0418
  28   2.0000      -0.211760        -5.7623
  29   0.0000       0.018651         0.5075
  30   0.0000       0.049902         1.3579
  31   0.0000       0.058646         1.5958
  32   0.0000       0.068937         1.8759
  33   0.0000       0.080707         2.1962

MULLIKEN ATOMIC CHARGES
-----------------------
   0 C :   -0.282586
   1 C :    0.047947
   2 H :    0.067619
   3 C :   -0.106282
   4 C :   -0.211906
   5 C :   -0.250866
   6 C :   -0.240666
   7 O :   -0.428806
   8 H :    0.099326
   9 H :    0.097409
  10 H :    0.109621
  11 H :    0.070109
  12 H :    0.077413
  13 H :    0.070842
  14 H :    0.095607
  15 H :    0.097434
  16 H :    0.098901
  17 H :    0.097694
  18 H :    0.092340
  19 H :    0.100865
  20 H :    0.297984
Sum of atomic charges:   -0.0000000

LOEWDIN ATOMIC CHARGES
----------------------
   0 C :   -0.357324
   1 C :   -0.056597
   2 H :    0.112963
   3 C :   -0.230450
   4 C :   -0.163851
   5 C :   -0.332939
   6 C :   -0.326542
   7 O :   -0.324623
   8 H :    0.123449
   9 H :    0.115743
  10 H :    0.122184
  11 H :    0.115808
  12 H :    0.118684
  13 H :    0.111957
  14 H :    0.118419
  15 H :    0.106148
  16 H :    0.119262
  17 H :    0.115868
  18 H :    0.115726
  19 H :    0.117737
  20 H :    0.278377

  Mayer bond orders larger than 0.100000
B(  0-C ,  1-C ) :   1.1314 B(  0-C ,  8-H ) :   0.9372 B(  0-C ,  9-H ) :   0.9356
B(  0-C , 10-H ) :   0.9439 B(  1-C ,  2-H ) :   0.9078 B(  1-C ,  3-C ) :   1.0301
B(  1-C ,  7-O ) :   1.0570 B(  3-C ,  4-C ) :   1.0935 B(  3-C , 11-H ) :   0.9094
B(  3-C , 12-H ) :   0.9104 B(  4-C ,  5-C ) :   1.1054 B(  4-C ,  6-C ) :   1.1148
B(  4-C , 13-H ) :   0.8897 B(  5-C , 14-H ) :   0.9467 B(  5-C , 15-H ) :   0.9374
B(  5-C , 16-H ) :   0.9462 B(  6-C , 17-H ) :   0.9508 B(  6-C , 18-H ) :   0.9510
B(  6-C , 19-H ) :   0.9491 B(  7-O , 20-H ) :   0.8442

Dispersion correction           -0.016736443
FINAL SINGLE POINT ENERGY      -311.514716946376

DIPOLE MOMENT
-------------

Method             : SCF
Type of density    : Electron Density
Multiplicity       :   1
Irrep              :   0
Energy             :  -311.5944868037049105 Eh
Relativity type    :
Basis              : AO
                                X                 Y                 Z
Electronic contribution:      3.845287402      -0.407045274       3.463801970
Nuclear contribution   :     -4.159144501       0.648706216      -3.861835544
                        -----------------------------------------
Total Dipole Moment    :     -0.313857099       0.241660942      -0.398033575
                        -----------------------------------------
Magnitude (a.u.)       :      0.561548766
Magnitude (Debye)      :      1.427343529

Rotational constants in cm-1:             0.133778             0.051685             0.048330
Rotational constants in MHz :          4010.564454          1549.472021          1448.898584

                             ****ORCA TERMINATED NORMALLY****
TOTAL RUN TIME: 0 days 0 hours 0 minutes 10 seconds 222 msec
