                         Program Version 6.0.0  -   RELEASE  -
|  1> ! pbe def2-sv(p) def2/J RI DEFGRID1 loosescf d4 GCP(DFT/SV(P)) printgap
|  2> %output
|  3>     printlevel normal
|  4> end
|  5> * xyz 0 1
|  6> C 2.8295149675 -0.3284998621 0.1638694253
|  7> C 1.4426561921 -0.4965115462 -0.4460248931
|  8> C 0.3969847169 0.3006471323 0.327682202
|  9> C -1.001523829 0.2530271044 -0.2951134596
| 10> H -0.91664176 0.4816853736 -1.3714505203
| 11> C -1.6714396688 -1.1083351024 -0.1227848867
| 12> O -1.7565931837 1.2804442979 0.3328404474
| 13> H 3.5640936709 -0.9019539042 -0.3958960283
| 14> H 2.8350121844 -0.6738146261 1.1950149607
| 15> H 3.1266103724 0.7175622871 0.1522763407
| 16> H 1.4584757478 -0.1575434577 -1.4842516945
| 17> H 1.1780453199 -1.5549620885 -0.4438445193
| 18> H 0.3331437552 -0.0610457246 1.355625085
| 19> H 0.6961464785 1.3504943236 0.3680837584
| 20> H -1.0767526662 -1.8812626047 -0.5987484428
| 21> H -1.7723650839 -1.3375180544 0.9354825313
| 22> H -2.6597595285 -1.1073151872 -0.5774454527
| 23> H -2.6701950945 1.2412636847 0.019145428
| 24> *
| 25>
| 26>                          ****END OF INPUT****

CARTESIAN COORDINATES (ANGSTROEM)
---------------------------------
  C      2.829515   -0.328500    0.163869
  C      1.442656   -0.496512   -0.446025
  C      0.396985    0.300647    0.327682
  C     -1.001524    0.253027   -0.295113
  H     -0.916642    0.481685   -1.371451
  C     -1.671440   -1.108335   -0.122785
  O     -1.756593    1.280444    0.332840
  H      3.564094   -0.901954   -0.395896
  H      2.835012   -0.673815    1.195015
  H      3.126610    0.717562    0.152276
  H      1.458476   -0.157543   -1.484252
  H      1.178045   -1.554962   -0.443845
  H      0.333144   -0.061046    1.355625
  H      0.696146    1.350494    0.368084
  H     -1.076753   -1.881263   -0.598748
  H     -1.772365   -1.337518    0.935483
  H     -2.659760   -1.107315   -0.577445
  H     -2.670195    1.241264    0.019145

 Total Charge           Charge          ....    0
 Multiplicity           Mult            ....    1
 Number of Electrons    NEL             ....   50
 Basis Dimension        Dim             ....  108

ORBITAL ENERGIES
----------------

  NO   OCC          E(Eh)            E(eV)
   0   2.0000     -18.734479      -509.7911
   1   2.0000      -9.933613      -270.3074
   2   2.0000      -9.883918      -268.9551
   3   2.0000      -9.876159      -268.7440
   4   2.0000      -9.875389      -268.7230
   5   2.0000      -9.871862      -268.6270
   6   2.0000      -0.911903       -24.8141
   7   2.0000      -0.717712       -19.5299
   8   2.0000      -0.666347       -18.1322
   9   2.0000      -0.609416       -16.5831
  10   2.0000      -0.543492       -14.7892
  11   2.0000      -0.504423       -13.7260
  12   2.0000      -0.448271       -12.1981
  13   2.0000      -0.422109       -11.4862
  14   2.0000      -0.396018       -10.7762
  15   2.0000      -0.384812       -10.4713
  16   2.0000      -0.361768        -9.8442
  17   2.0000      -0.342297        -9.3144
  18   2.0000      -0.328766        -8.9462
  19   2.0000      -0.315632        -8.5888
  20   2.0000      -0.299461        -8.1488
  21   2.0000      -0.291826        -7.9410
  22   2.0000      -0.284113        -7.7311
  23   2.0000      -0.262456        -7.1418
  24   2.0000      -0.208939        -5.6855
  25   0.0000       0.028330         0.7709
  26   0.0000       0.047595         1.2951
  27   0.0000       0.066477         1.8089
  28   0.0000       0.074557         2.0288
  29   0.0000       0.082345         2.2407

MULLIKEN ATOMIC CHARGES
-----------------------
   0 C :   -0.257030
   1 C :   -0.209615
   2 C :   -0.150535
   3 C :    0.035471
   4 H :    0.052976
   5 C :   -0.276782
   6 O :   -0.425816
   7 H :    0.100866
   8 H :    0.097777
   9 H :    0.099166
  10 H :    0.084542
  11 H :    0.090749
  12 H :    0.079040
  13 H :    0.089683
  14 H :    0.104211
  15 H :    0.102837
  16 H :    0.091975
  17 H :    0.290484
Sum of atomic charges:    0.0000000

LOEWDIN ATOMIC CHARGES
----------------------
   0 C :   -0.337938
   1 C :   -0.234875
   2 C :   -0.228190
   3 C :   -0.055718
   4 H :    0.092357
   5 C :   -0.354436
   6 O :   -0.337226
   7 H :    0.117932
   8 H :    0.117517
   9 H :    0.117589
  10 H :    0.114254
  11 H :    0.113126
  12 H :    0.116656
  13 H :    0.121205
  14 H :    0.122841
  15 H :    0.122034
  16 H :    0.113719
  17 H :    0.279153

  Mayer bond orders larger than 0.100000
B(  0-C ,  1-C ) :   1.1563 B(  0-C ,  7-H ) :   0.9534 B(  0-C ,  8-H ) :   0.9547
B(  0-C ,  9-H ) :   0.9548 B(  1-C ,  2-C ) :   1.1180 B(  1-C , 10-H ) :   0.9242
B(  1-C , 11-H ) :   0.9198 B(  2-C ,  3-C ) :   1.0779 B(  2-C , 12-H ) :   0.9145
B(  2-C , 13-H ) :   0.9149 B(  3-C ,  4-H ) :   0.9094 B(  3-C ,  5-C ) :   1.1060
B(  3-C ,  6-O ) :   1.0688 B(  5-C , 14-H ) :   0.9330 B(  5-C , 15-H ) :   0.9419
B(  5-C , 16-H ) :   0.9450 B(  6-O , 17-H ) :   0.8535

Dispersion correction           -0.012279859
FINAL SINGLE POINT ENERGY      -272.305315400949

DIPOLE MOMENT
-------------

Method             : SCF
Type of density    : Electron Density
Multiplicity       :   1
Irrep              :   0
Energy             :  -272.3750800599706281 Eh
Relativity type    :
Basis              : AO
                                X                 Y                 Z
Electronic contribution:     -4.069857754       3.264200139       0.418553077
Nuclear contribution   :      3.816474520      -3.625209787      -0.788754952
                        -----------------------------------------
Total Dipole Moment    :     -0.253383234      -0.361009647      -0.370201875
                        -----------------------------------------
Magnitude (a.u.)       :      0.575830233
Magnitude (Debye)      :      1.463644134

Rotational constants in cm-1:             0.233437             0.057772             0.050017
Rotational constants in MHz :          6998.268771          1731.960323          1499.480072

                             ****ORCA TERMINATED NORMALLY****
TOTAL RUN TIME: 0 days 0 hours 0 minutes 7 seconds 902 msec
