                         Program Version 6.0.0  -   RELEASE  -
|  1> ! r2scan-3c def2/J RI DEFGRID2 scfconv6 printgap
|  2> %output
|  3>     printlevel normal
|  4> end
|  5> * xyz 0 1
|  6> C 3.0605934043 -1.1304418813 0.6836963185
|  7> C 2.582513943 0.2027452088 0.1947394985
|  8> C 3.4050698861 1.2322152389 0.0626341649
|  9> C 1.1156310963 0.3356791505 -0.1379584947
| 10> H 0.9787437784 1.2604539853 -0.7079951144
| 11> C 0.5800854879 -0.8249197641 -0.9812318431
| 12> C -0.8372615415 -0.5083450578 -1.4517416843
| 13> C -1.6995741007 -0.0723855348 -0.3006895632
| 14> C -1.1784798299 0.3501197886 0.8634922633
| 15> C 0.2744596696 0.4470878797 1.1418816985
| 16> C -3.1410988004 -0.1143316588 -0.4719093512
| 17> O -3.9704624526 0.2160695737 0.3579510809
| 18> H 4.075680569 -1.0553439925 1.0633773797
| 19> H 2.4192012507 -1.5113206312 1.475436732
| 20> H 3.0514521826 -1.8536629757 -0.1301363046
| 21> H 3.0690458538 2.1892190193 -0.2999560402
| 22> H 4.4506525104 1.1619226658 0.3107366998
| 23> H 1.2260011763 -0.9889982267 -1.8446891273
| 24> H 0.5628734537 -1.7364587435 -0.3833646983
| 25> H -0.8126736028 0.290472078 -2.1986594653
| 26> H -1.2812341548 -1.3849071748 -1.9280523548
| 27> H -1.8580136901 0.6317889783 1.6576741678
| 28> H 0.4871857538 1.3878984238 1.654403814
| 29> H 0.5379843267 -0.3533389814 1.8403860148
| 30> H -3.4770303166 -0.4835579674 -1.4592466847
| 31> *
| 32>
| 33>                          ****END OF INPUT****

CARTESIAN COORDINATES (ANGSTROEM)
---------------------------------
  C      3.060593   -1.130442    0.683696
  C      2.582514    0.202745    0.194739
  C      3.405070    1.232215    0.062634
  C      1.115631    0.335679   -0.137958
  H      0.978744    1.260454   -0.707995
  C      0.580085   -0.824920   -0.981232
  C     -0.837262   -0.508345   -1.451742
  C     -1.699574   -0.072386   -0.300690
  C     -1.178480    0.350120    0.863492
  C      0.274460    0.447088    1.141882
  C     -3.141099   -0.114332   -0.471909
  O     -3.970462    0.216070    0.357951
  H      4.075681   -1.055344    1.063377
  H      2.419201   -1.511321    1.475437
  H      3.051452   -1.853663   -0.130136
  H      3.069046    2.189219   -0.299956
  H      4.450653    1.161923    0.310737
  H      1.226001   -0.988998   -1.844689
  H      0.562873   -1.736459   -0.383365
  H     -0.812674    0.290472   -2.198659
  H     -1.281234   -1.384907   -1.928052
  H     -1.858014    0.631789    1.657674
  H      0.487186    1.387898    1.654404
  H      0.537984   -0.353339    1.840386
  H     -3.477030   -0.483558   -1.459247

 Total Charge           Charge          ....    0
 Multiplicity           Mult            ....    1
 Number of Electrons    NEL             ....   82
 Basis Dimension        Dim             ....  284

ORBITAL ENERGIES
----------------

  NO   OCC          E(Eh)            E(eV)
   0   2.0000     -18.937308      -515.3103
   1   2.0000     -10.109462      -275.0924
   2   2.0000     -10.054778      -273.6044
   3   2.0000     -10.050141      -273.4782
   4   2.0000     -10.048536      -273.4346
   5   2.0000     -10.047669      -273.4110
   6   2.0000     -10.046449      -273.3778
   7   2.0000     -10.044935      -273.3366
   8   2.0000     -10.041504      -273.2432
   9   2.0000     -10.033155      -273.0160
  10   2.0000     -10.019169      -272.6354
  11   2.0000      -0.997965       -27.1560
  12   2.0000      -0.833412       -22.6783
  13   2.0000      -0.783330       -21.3155
  14   2.0000      -0.731718       -19.9111
  15   2.0000      -0.722767       -19.6675
  16   2.0000      -0.664272       -18.0757
  17   2.0000      -0.622256       -16.9324
  18   2.0000      -0.607077       -16.5194
  19   2.0000      -0.558841       -15.2068
  20   2.0000      -0.510418       -13.8892
  21   2.0000      -0.491734       -13.3808
  22   2.0000      -0.468113       -12.7380
  23   2.0000      -0.443171       -12.0593
  24   2.0000      -0.427283       -11.6270
  25   2.0000      -0.416748       -11.3403
  26   2.0000      -0.412135       -11.2148
  27   2.0000      -0.396951       -10.8016
  28   2.0000      -0.395443       -10.7605
  29   2.0000      -0.380085       -10.3426
  30   2.0000      -0.371445       -10.1075
  31   2.0000      -0.365452        -9.9445
  32   2.0000      -0.354172        -9.6375
  33   2.0000      -0.347738        -9.4624
  34   2.0000      -0.341796        -9.3007
  35   2.0000      -0.309715        -8.4278
  36   2.0000      -0.305951        -8.3253
  37   2.0000      -0.293015        -7.9733
  38   2.0000      -0.241178        -6.5628
  39   2.0000      -0.231119        -6.2891
  40   2.0000      -0.217286        -5.9127
  41   0.0000      -0.092206        -2.5091
  42   0.0000      -0.016063        -0.4371
  43   0.0000       0.032443         0.8828
  44   0.0000       0.066533         1.8104
  45   0.0000       0.090237         2.4555

MULLIKEN ATOMIC CHARGES
-----------------------
   0 C :   -0.533720
   1 C :    0.073002
   2 C :   -0.379200
   3 C :    0.012935
   4 H :    0.175576
   5 C :   -0.349731
   6 C :   -0.361559
   7 C :    0.111244
   8 C :   -0.084188
   9 C :   -0.413621
  10 C :    0.022418
  11 O :   -0.351669
  12 H :    0.154244
  13 H :    0.161117
  14 H :    0.168088
  15 H :    0.142272
  16 H :    0.139290
  17 H :    0.169203
  18 H :    0.170408
  19 H :    0.177174
  20 H :    0.156188
  21 H :    0.187341
  22 H :    0.169876
  23 H :    0.179039
  24 H :    0.104272
Sum of atomic charges:   -0.0000000

LOEWDIN ATOMIC CHARGES
----------------------
   0 C :   -0.392632
   1 C :   -0.122880
   2 C :   -0.316818
   3 C :   -0.198033
   4 H :    0.173128
   5 C :   -0.274311
   6 C :   -0.277358
   7 C :   -0.136807
   8 C :   -0.083706
   9 C :   -0.266717
  10 C :    0.206663
  11 O :   -0.472317
  12 H :    0.161951
  13 H :    0.158387
  14 H :    0.165474
  15 H :    0.158191
  16 H :    0.156750
  17 H :    0.164337
  18 H :    0.165767
  19 H :    0.169877
  20 H :    0.167110
  21 H :    0.186310
  22 H :    0.175917
  23 H :    0.176728
  24 H :    0.154988

  Mayer bond orders larger than 0.100000
B(  0-C ,  1-C ) :   0.8799 B(  0-C , 12-H ) :   0.9788 B(  0-C , 13-H ) :   0.9807
B(  0-C , 14-H ) :   0.9634 B(  1-C ,  2-C ) :   1.8738 B(  1-C ,  3-C ) :   0.8724
B(  2-C , 15-H ) :   0.9899 B(  2-C , 16-H ) :   0.9687 B(  3-C ,  4-H ) :   0.9940
B(  3-C ,  5-C ) :   0.8492 B(  3-C ,  9-C ) :   0.8935 B(  5-C ,  6-C ) :   0.9046
B(  5-C , 17-H ) :   0.9744 B(  5-C , 18-H ) :   0.9783 B(  6-C ,  7-C ) :   0.8832
B(  6-C , 19-H ) :   0.9935 B(  6-C , 20-H ) :   0.9712 B(  7-C ,  8-C ) :   1.7324
B(  7-C , 10-C ) :   0.8958 B(  7-C , 11-O ) :  -0.1264 B(  7-C , 24-H ) :  -0.1027
B(  8-C ,  9-C ) :   0.8841 B(  8-C , 11-O ) :   0.1359 B(  8-C , 21-H ) :   0.9520
B(  9-C , 22-H ) :   0.9599 B(  9-C , 23-H ) :   0.9859 B( 10-C , 11-O ) :   1.9417
B( 10-C , 24-H ) :   1.0300

Dispersion correction           -0.008894399
FINAL SINGLE POINT ENERGY      -464.551781157460

DIPOLE MOMENT
-------------

Method             : SCF
Type of density    : Electron Density
Multiplicity       :   1
Irrep              :   0
Energy             :  -464.5524300396476747 Eh
Relativity type    :
Basis              : AO
                                X                 Y                 Z
Electronic contribution:    -11.253922566       1.948587455       0.526277557
Nuclear contribution   :     12.540609530      -2.291398857      -0.886032629
                        -----------------------------------------
Total Dipole Moment    :      1.286686964      -0.342811402      -0.359755071
                        -----------------------------------------
Magnitude (a.u.)       :      1.379313856
Magnitude (Debye)      :      3.505937200

Rotational constants in cm-1:             0.097340             0.018192             0.017162
Rotational constants in MHz :          2918.185858           545.375040           514.494582

                             ****ORCA TERMINATED NORMALLY****
TOTAL RUN TIME: 0 days 0 hours 0 minutes 56 seconds 498 msec
