                         Program Version 6.0.0  -   RELEASE  -
|  1> ! r2scan-3c def2/J RI DEFGRID2 scfconv6 printgap
|  2> %output
|  3>     printlevel normal
|  4> end
|  5> %cpcm
|  6>     smd true
|  7>     smdsolvent "water"
|  8> end
|  9> * xyz 0 1
| 10> C 3.0605934043 -1.1304418813 0.6836963185
| 11> C 2.582513943 0.2027452088 0.1947394985
| 12> C 3.4050698861 1.2322152389 0.0626341649
| 13> C 1.1156310963 0.3356791505 -0.1379584947
| 14> H 0.9787437784 1.2604539853 -0.7079951144
| 15> C 0.5800854879 -0.8249197641 -0.9812318431
| 16> C -0.8372615415 -0.5083450578 -1.4517416843
| 17> C -1.6995741007 -0.0723855348 -0.3006895632
| 18> C -1.1784798299 0.3501197886 0.8634922633
| 19> C 0.2744596696 0.4470878797 1.1418816985
| 20> C -3.1410988004 -0.1143316588 -0.4719093512
| 21> O -3.9704624526 0.2160695737 0.3579510809
| 22> H 4.075680569 -1.0553439925 1.0633773797
| 23> H 2.4192012507 -1.5113206312 1.475436732
| 24> H 3.0514521826 -1.8536629757 -0.1301363046
| 25> H 3.0690458538 2.1892190193 -0.2999560402
| 26> H 4.4506525104 1.1619226658 0.3107366998
| 27> H 1.2260011763 -0.9889982267 -1.8446891273
| 28> H 0.5628734537 -1.7364587435 -0.3833646983
| 29> H -0.8126736028 0.290472078 -2.1986594653
| 30> H -1.2812341548 -1.3849071748 -1.9280523548
| 31> H -1.8580136901 0.6317889783 1.6576741678
| 32> H 0.4871857538 1.3878984238 1.654403814
| 33> H 0.5379843267 -0.3533389814 1.8403860148
| 34> H -3.4770303166 -0.4835579674 -1.4592466847
| 35> *
| 36>
| 37>                          ****END OF INPUT****

CARTESIAN COORDINATES (ANGSTROEM)
---------------------------------
  C      3.060593   -1.130442    0.683696
  C      2.582514    0.202745    0.194739
  C      3.405070    1.232215    0.062634
  C      1.115631    0.335679   -0.137958
  H      0.978744    1.260454   -0.707995
  C      0.580085   -0.824920   -0.981232
  C     -0.837262   -0.508345   -1.451742
  C     -1.699574   -0.072386   -0.300690
  C     -1.178480    0.350120    0.863492
  C      0.274460    0.447088    1.141882
  C     -3.141099   -0.114332   -0.471909
  O     -3.970462    0.216070    0.357951
  H      4.075681   -1.055344    1.063377
  H      2.419201   -1.511321    1.475437
  H      3.051452   -1.853663   -0.130136
  H      3.069046    2.189219   -0.299956
  H      4.450653    1.161923    0.310737
  H      1.226001   -0.988998   -1.844689
  H      0.562873   -1.736459   -0.383365
  H     -0.812674    0.290472   -2.198659
  H     -1.281234   -1.384907   -1.928052
  H     -1.858014    0.631789    1.657674
  H      0.487186    1.387898    1.654404
  H      0.537984   -0.353339    1.840386
  H     -3.477030   -0.483558   -1.459247

 Total Charge           Charge          ....    0
 Multiplicity           Mult            ....    1
 Number of Electrons    NEL             ....   82
 Basis Dimension        Dim             ....  284

ORBITAL ENERGIES
----------------

  NO   OCC          E(Eh)            E(eV)
   0   2.0000     -18.948810      -515.6233
   1   2.0000     -10.115778      -275.2643
   2   2.0000     -10.050293      -273.4824
   3   2.0000     -10.038647      -273.1655
   4   2.0000     -10.038092      -273.1504
   5   2.0000     -10.034166      -273.0435
   6   2.0000     -10.033484      -273.0250
   7   2.0000     -10.029262      -272.9101
   8   2.0000     -10.023124      -272.7431
   9   2.0000     -10.015677      -272.5404
  10   2.0000     -10.007500      -272.3179
  11   2.0000      -1.012076       -27.5400
  12   2.0000      -0.820930       -22.3387
  13   2.0000      -0.773168       -21.0390
  14   2.0000      -0.717382       -19.5210
  15   2.0000      -0.712150       -19.3786
  16   2.0000      -0.650218       -17.6933
  17   2.0000      -0.614261       -16.7149
  18   2.0000      -0.594642       -16.1810
  19   2.0000      -0.548770       -14.9328
  20   2.0000      -0.497486       -13.5373
  21   2.0000      -0.479217       -13.0401
  22   2.0000      -0.463923       -12.6240
  23   2.0000      -0.432260       -11.7624
  24   2.0000      -0.421940       -11.4816
  25   2.0000      -0.412122       -11.2144
  26   2.0000      -0.401219       -10.9177
  27   2.0000      -0.388394       -10.5687
  28   2.0000      -0.383655       -10.4398
  29   2.0000      -0.375362       -10.2141
  30   2.0000      -0.362957        -9.8766
  31   2.0000      -0.352995        -9.6055
  32   2.0000      -0.346355        -9.4248
  33   2.0000      -0.336730        -9.1629
  34   2.0000      -0.327925        -8.9233
  35   2.0000      -0.292149        -7.9498
  36   2.0000      -0.291096        -7.9211
  37   2.0000      -0.280333        -7.6282
  38   2.0000      -0.236525        -6.4362
  39   2.0000      -0.229811        -6.2535
  40   2.0000      -0.223409        -6.0793
  41   0.0000      -0.093214        -2.5365
  42   0.0000      -0.007644        -0.2080
  43   0.0000       0.037613         1.0235
  44   0.0000       0.080625         2.1939
  45   0.0000       0.104120         2.8332

MULLIKEN ATOMIC CHARGES
-----------------------
   0 C :   -0.562826
   1 C :    0.036852
   2 C :   -0.461221
   3 C :    0.039765
   4 H :    0.191377
   5 C :   -0.359116
   6 C :   -0.364903
   7 C :    0.082991
   8 C :   -0.092892
   9 C :   -0.438105
  10 C :    0.063992
  11 O :   -0.460159
  12 H :    0.167669
  13 H :    0.184013
  14 H :    0.183508
  15 H :    0.165284
  16 H :    0.163274
  17 H :    0.177943
  18 H :    0.184643
  19 H :    0.194516
  20 H :    0.175678
  21 H :    0.195727
  22 H :    0.186052
  23 H :    0.209891
  24 H :    0.136048
Sum of atomic charges:   -0.0000000

LOEWDIN ATOMIC CHARGES
----------------------
   0 C :   -0.399802
   1 C :   -0.121263
   2 C :   -0.348275
   3 C :   -0.197925
   4 H :    0.177706
   5 C :   -0.273594
   6 C :   -0.274510
   7 C :   -0.140430
   8 C :   -0.071806
   9 C :   -0.264627
  10 C :    0.223085
  11 O :   -0.557497
  12 H :    0.164634
  13 H :    0.167454
  14 H :    0.171375
  15 H :    0.163590
  16 H :    0.161768
  17 H :    0.167714
  18 H :    0.170186
  19 H :    0.176338
  20 H :    0.174497
  21 H :    0.187107
  22 H :    0.182339
  23 H :    0.189416
  24 H :    0.172519

  Mayer bond orders larger than 0.100000
B(  0-C ,  1-C ) :   0.8851 B(  0-C , 12-H ) :   0.9763 B(  0-C , 13-H ) :   0.9717
B(  0-C , 14-H ) :   0.9572 B(  1-C ,  2-C ) :   1.8591 B(  1-C ,  3-C ) :   0.8508
B(  2-C , 15-H ) :   0.9855 B(  2-C , 16-H ) :   0.9713 B(  3-C ,  4-H ) :   0.9945
B(  3-C ,  5-C ) :   0.8344 B(  3-C ,  9-C ) :   0.8852 B(  5-C ,  6-C ) :   0.8880
B(  5-C , 17-H ) :   0.9705 B(  5-C , 18-H ) :   0.9783 B(  6-C ,  7-C ) :   0.8861
B(  6-C , 19-H ) :   0.9924 B(  6-C , 20-H ) :   0.9698 B(  7-C ,  8-C ) :   1.6719
B(  7-C , 10-C ) :   0.9572 B(  7-C , 11-O ) :  -0.1187 B(  8-C ,  9-C ) :   0.9141
B(  8-C , 11-O ) :   0.1367 B(  8-C , 21-H ) :   0.9502 B(  9-C , 22-H ) :   0.9523
B(  9-C , 23-H ) :   0.9735 B( 10-C , 11-O ) :   1.8621 B( 10-C , 24-H ) :   1.0043

Dispersion correction           -0.008894399
FINAL SINGLE POINT ENERGY      -464.558590179564

DIPOLE MOMENT
-------------

Method             : SCF
Type of density    : Electron Density
Multiplicity       :   1
Irrep              :   0
Energy             :  -464.5592390617512137 Eh
Relativity type    :
Basis              : AO
                                X                 Y                 Z
Electronic contribution:    -10.840152409       1.737553415       0.345083292
Nuclear contribution   :     12.540609530      -2.291398857      -0.886032629
                        -----------------------------------------
Total Dipole Moment    :      1.700457122      -0.553845442      -0.540949337
                        -----------------------------------------
Magnitude (a.u.)       :      1.868401825
Magnitude (Debye)      :      4.749100023

Rotational constants in cm-1:             0.097340             0.018192             0.017162
Rotational constants in MHz :          2918.185858           545.375040           514.494582

                             ****ORCA TERMINATED NORMALLY****
TOTAL RUN TIME: 0 days 0 hours 1 minutes 12 seconds 137 msec
