                         Program Version 6.0.0  -   RELEASE  -
|  1> ! pbe def2-sv(p) def2/J RI DEFGRID1 loosescf d4 GCP(DFT/SV(P)) printgap
|  2> %output
|  3>     printlevel normal
|  4> end
|  5> * xyz 0 1
|  6> C -3.3657718053 0.8148112194 0.143955903
|  7> C -2.168963616 1.5084255622 0.1437215172
|  8> C -0.9677317673 0.8296120736 0.0167663334
|  9> C -0.9541292227 -0.55115282 -0.1097314433
| 10> C -2.160677376 -1.2429324988 -0.1079328178
| 11> C -3.3587657353 -0.5651158966 0.0175058582
| 12> C 0.3295272615 -1.3407979523 -0.2600433426
| 13> N 1.5186538833 -0.5476294768 -0.1145970041
| 14> C 2.1645103593 0.1394698947 -1.1018460201
| 15> C 3.1963673966 0.7946330206 -0.4947669183
| 16> N 3.1933875443 0.531133726 0.8411142292
| 17> C 2.1749574783 -0.2679522143 1.0315263803
| 18> H -4.3000571279 1.3458515544 0.2429323622
| 19> H -2.1648474174 2.5834550586 0.2422888181
| 20> H -0.0419152182 1.3864411467 0.0196634459
| 21> H -2.1565823 -2.3184590649 -0.205617695
| 22> H -4.2885729475 -1.1132293246 0.0180989434
| 23> H 0.3505073952 -2.1346498905 0.4926405163
| 24> H 0.3458800398 -1.8084427741 -1.2498259427
| 25> H 1.8480419192 0.103802377 -2.1232324191
| 26> H 3.9399483264 1.4341881252 -0.9262149908
| 27> H 1.8879675129 -0.6678277635 1.98312059
| 28> *
| 29>
| 30>                          ****END OF INPUT****

CARTESIAN COORDINATES (ANGSTROEM)
---------------------------------
  C     -3.365772    0.814811    0.143956
  C     -2.168964    1.508426    0.143722
  C     -0.967732    0.829612    0.016766
  C     -0.954129   -0.551153   -0.109731
  C     -2.160677   -1.242932   -0.107933
  C     -3.358766   -0.565116    0.017506
  C      0.329527   -1.340798   -0.260043
  N      1.518654   -0.547629   -0.114597
  C      2.164510    0.139470   -1.101846
  C      3.196367    0.794633   -0.494767
  N      3.193388    0.531134    0.841114
  C      2.174957   -0.267952    1.031526
  H     -4.300057    1.345852    0.242932
  H     -2.164847    2.583455    0.242289
  H     -0.041915    1.386441    0.019663
  H     -2.156582   -2.318459   -0.205618
  H     -4.288573   -1.113229    0.018099
  H      0.350507   -2.134650    0.492641
  H      0.345880   -1.808443   -1.249826
  H      1.848042    0.103802   -2.123232
  H      3.939948    1.434188   -0.926215
  H      1.887968   -0.667828    1.983121

 Total Charge           Charge          ....    0
 Multiplicity           Mult            ....    1
 Number of Electrons    NEL             ....   84
 Basis Dimension        Dim             ....  188

ORBITAL ENERGIES
----------------

  NO   OCC          E(Eh)            E(eV)
   0   2.0000     -14.058834      -382.5603
   1   2.0000     -13.959494      -379.8572
   2   2.0000      -9.950808      -270.7752
   3   2.0000      -9.928201      -270.1601
   4   2.0000      -9.914551      -269.7886
   5   2.0000      -9.910868      -269.6884
   6   2.0000      -9.902062      -269.4488
   7   2.0000      -9.901353      -269.4295
   8   2.0000      -9.901175      -269.4247
   9   2.0000      -9.900501      -269.4063
  10   2.0000      -9.900384      -269.4031
  11   2.0000      -9.894086      -269.2318
  12   2.0000      -0.938720       -25.5439
  13   2.0000      -0.813430       -22.1345
  14   2.0000      -0.783368       -21.3165
  15   2.0000      -0.706125       -19.2146
  16   2.0000      -0.679613       -18.4932
  17   2.0000      -0.669600       -18.2207
  18   2.0000      -0.636655       -17.3243
  19   2.0000      -0.557158       -15.1610
  20   2.0000      -0.544782       -14.8243
  21   2.0000      -0.541128       -14.7248
  22   2.0000      -0.513483       -13.9726
  23   2.0000      -0.491948       -13.3866
  24   2.0000      -0.473159       -12.8753
  25   2.0000      -0.425450       -11.5771
  26   2.0000      -0.416434       -11.3317
  27   2.0000      -0.407653       -11.0928
  28   2.0000      -0.403549       -10.9811
  29   2.0000      -0.384334       -10.4583
  30   2.0000      -0.382913       -10.4196
  31   2.0000      -0.378800       -10.3077
  32   2.0000      -0.360392        -9.8068
  33   2.0000      -0.355485        -9.6732
  34   2.0000      -0.333900        -9.0859
  35   2.0000      -0.315643        -8.5891
  36   2.0000      -0.308984        -8.4079
  37   2.0000      -0.241579        -6.5737
  38   2.0000      -0.239552        -6.5185
  39   2.0000      -0.233998        -6.3674
  40   2.0000      -0.210735        -5.7344
  41   2.0000      -0.201210        -5.4752
  42   0.0000      -0.047736        -1.2990
  43   0.0000      -0.041932        -1.1410
  44   0.0000      -0.007023        -0.1911
  45   0.0000       0.036197         0.9850
  46   0.0000       0.038566         1.0494

MULLIKEN ATOMIC CHARGES
-----------------------
   0 C :   -0.047646
   1 C :   -0.040389
   2 C :   -0.119189
   3 C :    0.007707
   4 C :   -0.109341
   5 C :   -0.043844
   6 C :    0.023287
   7 N :   -0.131520
   8 C :   -0.044304
   9 C :   -0.081597
  10 N :   -0.124844
  11 C :   -0.011909
  12 H :    0.057057
  13 H :    0.056786
  14 H :    0.078574
  15 H :    0.039931
  16 H :    0.055774
  17 H :    0.114872
  18 H :    0.119106
  19 H :    0.066820
  20 H :    0.061401
  21 H :    0.073268
Sum of atomic charges:   -0.0000000

LOEWDIN ATOMIC CHARGES
----------------------
   0 C :   -0.123576
   1 C :   -0.115319
   2 C :   -0.124124
   3 C :   -0.057705
   4 C :   -0.123098
   5 C :   -0.117194
   6 C :   -0.128510
   7 N :    0.057280
   8 C :   -0.156371
   9 C :   -0.148106
  10 N :   -0.115825
  11 C :   -0.112897
  12 H :    0.125324
  13 H :    0.126875
  14 H :    0.135070
  15 H :    0.121947
  16 H :    0.125479
  17 H :    0.136800
  18 H :    0.137827
  19 H :    0.123903
  20 H :    0.116005
  21 H :    0.116217

  Mayer bond orders larger than 0.100000
B(  0-C ,  1-C ) :   1.3884 B(  0-C ,  5-C ) :   1.3730 B(  0-C , 12-H ) :   0.9652
B(  1-C ,  2-C ) :   1.3642 B(  1-C , 13-H ) :   0.9629 B(  2-C ,  3-C ) :   1.4309
B(  2-C , 14-H ) :   0.9481 B(  3-C ,  4-C ) :   1.3835 B(  3-C ,  6-C ) :   1.0205
B(  4-C ,  5-C ) :   1.3884 B(  4-C , 15-H ) :   0.9663 B(  5-C , 16-H ) :   0.9630
B(  6-C ,  7-N ) :   1.0112 B(  6-C , 17-H ) :   0.9050 B(  6-C , 18-H ) :   0.9025
B(  7-N ,  8-C ) :   1.1841 B(  7-N , 11-C ) :   1.2071 B(  8-C ,  9-C ) :   1.4700
B(  8-C , 19-H ) :   0.9655 B(  9-C , 10-N ) :   1.4119 B(  9-C , 20-H ) :   0.9793
B( 10-N , 11-C ) :   1.6325 B( 11-C , 21-H ) :   0.9569

Dispersion correction           -0.025951195
FINAL SINGLE POINT ENERGY      -495.510357352309

DIPOLE MOMENT
-------------

Method             : SCF
Type of density    : Electron Density
Multiplicity       :   1
Irrep              :   0
Energy             :  -495.5726513244654825 Eh
Relativity type    :
Basis              : AO
                                X                 Y                 Z
Electronic contribution:      3.064871175       0.443334526       0.848377743
Nuclear contribution   :     -4.270609849      -1.115453802      -1.409034325
                        -----------------------------------------
Total Dipole Moment    :     -1.205738675      -0.672119275      -0.560656582
                        -----------------------------------------
Magnitude (a.u.)       :      1.489928144
Magnitude (Debye)      :      3.787096377

Rotational constants in cm-1:             0.089352             0.017914             0.016456
Rotational constants in MHz :          2678.698429           537.036001           493.336402

                             ****ORCA TERMINATED NORMALLY****
TOTAL RUN TIME: 0 days 0 hours 0 minutes 13 seconds 925 msec
