                         Program Version 6.0.0  -   RELEASE  -
|  1> ! r2scan-3c def2/J RI DEFGRID2 scfconv6 printgap
|  2> %output
|  3>     printlevel normal
|  4> end
|  5> * xyz 0 1
|  6> C 2.1715615319 0.6928399348 0.3402369859
|  7> C 1.0801383858 0.3548647393 -0.6820938813
|  8> C -5.45044e-05 -0.4452849451 -0.0001025866
|  9> O 0.000249082 -1.6611743664 -0.0003904534
| 10> C -1.0805436982 0.3540375191 0.682387983
| 11> C -2.1713909114 0.693549786 -0.3400396574
| 12> H 1.7721987399 1.3031482269 1.1458966219
| 13> H 2.5801625428 -0.2200793345 0.767401035
| 14> H 2.9738157066 1.2392900507 -0.1469255763
| 15> H 0.6641906906 1.2747528224 -1.0905650153
| 16> H 1.5128559784 -0.2437198479 -1.4845772944
| 17> H -0.6646859894 1.2733220235 1.0923287139
| 18> H -1.5137302876 -0.2455756431 1.4838501595
| 19> H -1.7716044966 1.3050032005 -1.1446165441
| 20> H -2.9738701922 1.2393126572 0.1475086196
| 21> H -2.5798403636 -0.2187081369 -0.7687364171
| 22> *
| 23>
| 24>                          ****END OF INPUT****

CARTESIAN COORDINATES (ANGSTROEM)
---------------------------------
  C      2.171562    0.692840    0.340237
  C      1.080138    0.354865   -0.682094
  C     -0.000055   -0.445285   -0.000103
  O      0.000249   -1.661174   -0.000390
  C     -1.080544    0.354038    0.682388
  C     -2.171391    0.693550   -0.340040
  H      1.772199    1.303148    1.145897
  H      2.580163   -0.220079    0.767401
  H      2.973816    1.239290   -0.146926
  H      0.664191    1.274753   -1.090565
  H      1.512856   -0.243720   -1.484577
  H     -0.664686    1.273322    1.092329
  H     -1.513730   -0.245576    1.483850
  H     -1.771604    1.305003   -1.144617
  H     -2.973870    1.239313    0.147509
  H     -2.579840   -0.218708   -0.768736

 Total Charge           Charge          ....    0
 Multiplicity           Mult            ....    1
 Number of Electrons    NEL             ....   48
 Basis Dimension        Dim             ....  169

ORBITAL ENERGIES
----------------

  NO   OCC          E(Eh)            E(eV)
   0   2.0000     -18.934939      -515.2459
   1   2.0000     -10.113733      -275.2087
   2   2.0000     -10.039265      -273.1823
   3   2.0000     -10.039258      -273.1821
   4   2.0000     -10.035545      -273.0811
   5   2.0000     -10.035540      -273.0809
   6   2.0000      -1.000580       -27.2272
   7   2.0000      -0.770875       -20.9766
   8   2.0000      -0.737141       -20.0586
   9   2.0000      -0.632456       -17.2100
  10   2.0000      -0.602365       -16.3912
  11   2.0000      -0.495540       -13.4843
  12   2.0000      -0.450541       -12.2599
  13   2.0000      -0.445857       -12.1324
  14   2.0000      -0.411959       -11.2100
  15   2.0000      -0.394786       -10.7427
  16   2.0000      -0.388919       -10.5830
  17   2.0000      -0.354842        -9.6557
  18   2.0000      -0.349755        -9.5173
  19   2.0000      -0.349585        -9.5127
  20   2.0000      -0.323755        -8.8098
  21   2.0000      -0.322113        -8.7651
  22   2.0000      -0.311415        -8.4740
  23   2.0000      -0.208795        -5.6816
  24   0.0000      -0.045868        -1.2481
  25   0.0000       0.072542         1.9740
  26   0.0000       0.102882         2.7995
  27   0.0000       0.108989         2.9657
  28   0.0000       0.130950         3.5633

MULLIKEN ATOMIC CHARGES
-----------------------
   0 C :   -0.467939
   1 C :   -0.271135
   2 C :    0.288786
   3 O :   -0.347666
   4 C :   -0.271144
   5 C :   -0.467906
   6 H :    0.142103
   7 H :    0.165155
   8 H :    0.156227
   9 H :    0.139528
  10 H :    0.165490
  11 H :    0.139546
  12 H :    0.165494
  13 H :    0.142103
  14 H :    0.156230
  15 H :    0.165129
Sum of atomic charges:    0.0000000

LOEWDIN ATOMIC CHARGES
----------------------
   0 C :   -0.395660
   1 C :   -0.287016
   2 C :    0.216596
   3 O :   -0.459049
   4 C :   -0.287005
   5 C :   -0.395674
   6 H :    0.151374
   7 H :    0.160685
   8 H :    0.154562
   9 H :    0.161693
  10 H :    0.175589
  11 H :    0.161713
  12 H :    0.175582
  13 H :    0.151372
  14 H :    0.154566
  15 H :    0.160673

  Mayer bond orders larger than 0.100000
B(  0-C ,  1-C ) :   0.8926 B(  0-C ,  6-H ) :   0.9739 B(  0-C ,  7-H ) :   0.9777
B(  0-C ,  8-H ) :   0.9700 B(  1-C ,  2-C ) :   0.8953 B(  1-C ,  9-H ) :   0.9513
B(  1-C , 10-H ) :   0.9668 B(  2-C ,  3-O ) :   1.9449 B(  2-C ,  4-C ) :   0.8953
B(  4-C ,  5-C ) :   0.8926 B(  4-C , 11-H ) :   0.9513 B(  4-C , 12-H ) :   0.9668
B(  5-C , 13-H ) :   0.9739 B(  5-C , 14-H ) :   0.9700 B(  5-C , 15-H ) :   0.9777

Dispersion correction           -0.003797695
FINAL SINGLE POINT ENERGY      -271.701442666057

DIPOLE MOMENT
-------------

Method             : SCF
Type of density    : Electron Density
Multiplicity       :   1
Irrep              :   0
Energy             :  -271.7049431500706760 Eh
Relativity type    :
Basis              : AO
                                X                 Y                 Z
Electronic contribution:      0.000225154      -5.080837465      -0.001152581
Nuclear contribution   :     -0.000472579       6.267379073       0.001461779
                        -----------------------------------------
Total Dipole Moment    :     -0.000247425       1.186541609       0.000309198
                        -----------------------------------------
Magnitude (a.u.)       :      1.186541675
Magnitude (Debye)      :      3.015949256

Rotational constants in cm-1:             0.176009             0.080630             0.065977
Rotational constants in MHz :          5276.631522          2417.241503          1977.931612

                             ****ORCA TERMINATED NORMALLY****
TOTAL RUN TIME: 0 days 0 hours 0 minutes 17 seconds 322 msec
