                         Program Version 6.0.0  -   RELEASE  -
|  1> ! r2scan-3c def2/J RI DEFGRID2 scfconv6 printgap
|  2> %output
|  3>     printlevel normal
|  4> end
|  5> %cpcm
|  6>     smd true
|  7>     smdsolvent "water"
|  8> end
|  9> * xyz 0 1
| 10> C 2.1715615319 0.6928399348 0.3402369859
| 11> C 1.0801383858 0.3548647393 -0.6820938813
| 12> C -5.45044e-05 -0.4452849451 -0.0001025866
| 13> O 0.000249082 -1.6611743664 -0.0003904534
| 14> C -1.0805436982 0.3540375191 0.682387983
| 15> C -2.1713909114 0.693549786 -0.3400396574
| 16> H 1.7721987399 1.3031482269 1.1458966219
| 17> H 2.5801625428 -0.2200793345 0.767401035
| 18> H 2.9738157066 1.2392900507 -0.1469255763
| 19> H 0.6641906906 1.2747528224 -1.0905650153
| 20> H 1.5128559784 -0.2437198479 -1.4845772944
| 21> H -0.6646859894 1.2733220235 1.0923287139
| 22> H -1.5137302876 -0.2455756431 1.4838501595
| 23> H -1.7716044966 1.3050032005 -1.1446165441
| 24> H -2.9738701922 1.2393126572 0.1475086196
| 25> H -2.5798403636 -0.2187081369 -0.7687364171
| 26> *
| 27>
| 28>                          ****END OF INPUT****

CARTESIAN COORDINATES (ANGSTROEM)
---------------------------------
  C      2.171562    0.692840    0.340237
  C      1.080138    0.354865   -0.682094
  C     -0.000055   -0.445285   -0.000103
  O      0.000249   -1.661174   -0.000390
  C     -1.080544    0.354038    0.682388
  C     -2.171391    0.693550   -0.340040
  H      1.772199    1.303148    1.145897
  H      2.580163   -0.220079    0.767401
  H      2.973816    1.239290   -0.146926
  H      0.664191    1.274753   -1.090565
  H      1.512856   -0.243720   -1.484577
  H     -0.664686    1.273322    1.092329
  H     -1.513730   -0.245576    1.483850
  H     -1.771604    1.305003   -1.144617
  H     -2.973870    1.239313    0.147509
  H     -2.579840   -0.218708   -0.768736

 Total Charge           Charge          ....    0
 Multiplicity           Mult            ....    1
 Number of Electrons    NEL             ....   48
 Basis Dimension        Dim             ....  169

ORBITAL ENERGIES
----------------

  NO   OCC          E(Eh)            E(eV)
   0   2.0000     -18.946050      -515.5482
   1   2.0000     -10.121188      -275.4115
   2   2.0000     -10.029668      -272.9211
   3   2.0000     -10.029661      -272.9209
   4   2.0000     -10.022175      -272.7173
   5   2.0000     -10.022170      -272.7171
   6   2.0000      -1.014369       -27.6024
   7   2.0000      -0.762454       -20.7474
   8   2.0000      -0.726133       -19.7591
   9   2.0000      -0.622747       -16.9458
  10   2.0000      -0.591912       -16.1067
  11   2.0000      -0.491800       -13.3826
  12   2.0000      -0.444659       -12.0998
  13   2.0000      -0.440951       -11.9989
  14   2.0000      -0.403804       -10.9881
  15   2.0000      -0.397940       -10.8285
  16   2.0000      -0.383090       -10.4244
  17   2.0000      -0.344820        -9.3830
  18   2.0000      -0.340851        -9.2750
  19   2.0000      -0.337378        -9.1805
  20   2.0000      -0.319432        -8.6922
  21   2.0000      -0.312341        -8.4992
  22   2.0000      -0.306850        -8.3498
  23   2.0000      -0.219981        -5.9860
  24   0.0000      -0.049754        -1.3539
  25   0.0000       0.084574         2.3014
  26   0.0000       0.115401         3.1402
  27   0.0000       0.124102         3.3770
  28   0.0000       0.144315         3.9270

MULLIKEN ATOMIC CHARGES
-----------------------
   0 C :   -0.500747
   1 C :   -0.275901
   2 C :    0.321586
   3 O :   -0.456281
   4 C :   -0.275905
   5 C :   -0.500714
   6 H :    0.165571
   7 H :    0.165289
   8 H :    0.172753
   9 H :    0.170545
  10 H :    0.169828
  11 H :    0.170566
  12 H :    0.169807
  13 H :    0.165570
  14 H :    0.172750
  15 H :    0.165283
Sum of atomic charges:   -0.0000000

LOEWDIN ATOMIC CHARGES
----------------------
   0 C :   -0.397282
   1 C :   -0.282403
   2 C :    0.232450
   3 O :   -0.537177
   4 C :   -0.282393
   5 C :   -0.397292
   6 H :    0.159467
   7 H :    0.159278
   8 H :    0.160850
   9 H :    0.175930
  10 H :    0.176521
  11 H :    0.175952
  12 H :    0.176507
  13 H :    0.159466
  14 H :    0.160850
  15 H :    0.159275

  Mayer bond orders larger than 0.100000
B(  0-C ,  1-C ) :   0.8757 B(  0-C ,  6-H ) :   0.9702 B(  0-C ,  7-H ) :   0.9756
B(  0-C ,  8-H ) :   0.9646 B(  1-C ,  2-C ) :   0.9133 B(  1-C ,  9-H ) :   0.9402
B(  1-C , 10-H ) :   0.9661 B(  2-C ,  3-O ) :   1.8605 B(  2-C ,  4-C ) :   0.9133
B(  4-C ,  5-C ) :   0.8757 B(  4-C , 11-H ) :   0.9402 B(  4-C , 12-H ) :   0.9661
B(  5-C , 13-H ) :   0.9702 B(  5-C , 14-H ) :   0.9646 B(  5-C , 15-H ) :   0.9756

Dispersion correction           -0.003797695
FINAL SINGLE POINT ENERGY      -271.708111872251

DIPOLE MOMENT
-------------

Method             : SCF
Type of density    : Electron Density
Multiplicity       :   1
Irrep              :   0
Energy             :  -271.7116123562648795 Eh
Relativity type    :
Basis              : AO
                                X                 Y                 Z
Electronic contribution:      0.000117488      -4.500184745      -0.000998460
Nuclear contribution   :     -0.000472579       6.267379073       0.001461779
                        -----------------------------------------
Total Dipole Moment    :     -0.000355090       1.767194329       0.000463319
                        -----------------------------------------
Magnitude (a.u.)       :      1.767194425
Magnitude (Debye)      :      4.491851255

Rotational constants in cm-1:             0.176009             0.080630             0.065977
Rotational constants in MHz :          5276.631522          2417.241503          1977.931612

                             ****ORCA TERMINATED NORMALLY****
TOTAL RUN TIME: 0 days 0 hours 0 minutes 18 seconds 971 msec
