                         Program Version 6.0.0  -   RELEASE  -
|  1> ! pbe def2-sv(p) def2/J RI DEFGRID1 loosescf d4 GCP(DFT/SV(P)) printgap
|  2> %output
|  3>     printlevel normal
|  4> end
|  5> * xyz 0 1
|  6> C 1.7523379834 0.8313437324 0.9598308431
|  7> C 1.3620042301 0.590929613 -0.4947024129
|  8> C 0.2462055525 -0.4326656575 -0.7708743729
|  9> H 0.1247153556 -0.4249854024 -1.8633075111
| 10> C 0.6904532365 -1.8451637297 -0.388801261
| 11> C -1.1573310452 -0.1065136689 -0.208913636
| 12> C -1.3566741263 -0.4024931418 1.2774933065
| 13> C -1.5639692461 1.3353089151 -0.5132847755
| 14> H 0.9855976764 1.3889231856 1.4900645427
| 15> H 1.9302718982 -0.1040519358 1.4824084429
| 16> H 2.6695662344 1.4162916834 0.9947767498
| 17> H 2.247707786 0.2349925163 -1.0287583682
| 18> H 1.0843018105 1.5458451929 -0.9441083703
| 19> H -0.0897051193 -2.5644432416 -0.6283446804
| 20> H 1.5863925264 -2.11596462 -0.9433052088
| 21> H 0.9130371445 -1.920210516 0.6712152116
| 22> H -1.849566212 -0.7629194285 -0.7535596473
| 23> H -0.706668733 0.2022254839 1.9000438321
| 24> H -1.172322376 -1.4499960234 1.496514109
| 25> H -2.3868471241 -0.1805449359 1.5502354621
| 26> H -2.6171890412 1.4818512433 -0.2835878728
| 27> H -1.4095918515 1.5648814451 -1.5653798204
| 28> H -0.988261649 2.0367203353 0.0845429565
| 29> *
| 30>
| 31>                          ****END OF INPUT****

CARTESIAN COORDINATES (ANGSTROEM)
---------------------------------
  C      1.752338    0.831344    0.959831
  C      1.362004    0.590930   -0.494702
  C      0.246206   -0.432666   -0.770874
  H      0.124715   -0.424985   -1.863308
  C      0.690453   -1.845164   -0.388801
  C     -1.157331   -0.106514   -0.208914
  C     -1.356674   -0.402493    1.277493
  C     -1.563969    1.335309   -0.513285
  H      0.985598    1.388923    1.490065
  H      1.930272   -0.104052    1.482408
  H      2.669566    1.416292    0.994777
  H      2.247708    0.234993   -1.028758
  H      1.084302    1.545845   -0.944108
  H     -0.089705   -2.564443   -0.628345
  H      1.586393   -2.115965   -0.943305
  H      0.913037   -1.920211    0.671215
  H     -1.849566   -0.762919   -0.753560
  H     -0.706669    0.202225    1.900044
  H     -1.172322   -1.449996    1.496514
  H     -2.386847   -0.180545    1.550235
  H     -2.617189    1.481851   -0.283588
  H     -1.409592    1.564881   -1.565380
  H     -0.988262    2.036720    0.084543

 Total Charge           Charge          ....    0
 Multiplicity           Mult            ....    1
 Number of Electrons    NEL             ....   58
 Basis Dimension        Dim             ....  130

ORBITAL ENERGIES
----------------

  NO   OCC          E(Eh)            E(eV)
   0   2.0000      -9.888492      -269.0796
   1   2.0000      -9.887192      -269.0442
   2   2.0000      -9.877789      -268.7883
   3   2.0000      -9.869508      -268.5630
   4   2.0000      -9.868186      -268.5270
   5   2.0000      -9.867655      -268.5125
   6   2.0000      -9.866021      -268.4681
   7   2.0000      -0.739156       -20.1135
   8   2.0000      -0.680431       -18.5155
   9   2.0000      -0.642900       -17.4942
  10   2.0000      -0.608003       -16.5446
  11   2.0000      -0.567632       -15.4460
  12   2.0000      -0.529130       -14.3983
  13   2.0000      -0.462702       -12.5908
  14   2.0000      -0.425056       -11.5664
  15   2.0000      -0.409711       -11.1488
  16   2.0000      -0.392794       -10.6885
  17   2.0000      -0.369411       -10.0522
  18   2.0000      -0.363714        -9.8972
  19   2.0000      -0.340067        -9.2537
  20   2.0000      -0.335366        -9.1258
  21   2.0000      -0.332911        -9.0590
  22   2.0000      -0.330089        -8.9822
  23   2.0000      -0.307247        -8.3606
  24   2.0000      -0.299773        -8.1572
  25   2.0000      -0.291922        -7.9436
  26   2.0000      -0.266199        -7.2437
  27   2.0000      -0.262394        -7.1401
  28   2.0000      -0.255243        -6.9455
  29   0.0000       0.027247         0.7414
  30   0.0000       0.059622         1.6224
  31   0.0000       0.062031         1.6880
  32   0.0000       0.069762         1.8983
  33   0.0000       0.091265         2.4835

MULLIKEN ATOMIC CHARGES
-----------------------
   0 C :   -0.290351
   1 C :   -0.162079
   2 C :   -0.125493
   3 H :    0.061401
   4 C :   -0.255425
   5 C :   -0.150740
   6 C :   -0.256105
   7 C :   -0.247905
   8 H :    0.116160
   9 H :    0.101727
  10 H :    0.097961
  11 H :    0.077452
  12 H :    0.083472
  13 H :    0.096258
  14 H :    0.094296
  15 H :    0.109650
  16 H :    0.064133
  17 H :    0.096844
  18 H :    0.100330
  19 H :    0.093866
  20 H :    0.096156
  21 H :    0.096997
  22 H :    0.101393
Sum of atomic charges:   -0.0000000

LOEWDIN ATOMIC CHARGES
----------------------
   0 C :   -0.344894
   1 C :   -0.225998
   2 C :   -0.144973
   3 H :    0.115003
   4 C :   -0.331923
   5 C :   -0.149713
   6 C :   -0.334121
   7 C :   -0.330042
   8 H :    0.114927
   9 H :    0.116496
  10 H :    0.120014
  11 H :    0.114921
  12 H :    0.114301
  13 H :    0.117275
  14 H :    0.117182
  15 H :    0.115970
  16 H :    0.113982
  17 H :    0.116885
  18 H :    0.117220
  19 H :    0.117701
  20 H :    0.117251
  21 H :    0.116157
  22 H :    0.116378

  Mayer bond orders larger than 0.100000
B(  0-C ,  1-C ) :   1.1649 B(  0-C ,  8-H ) :   0.9374 B(  0-C ,  9-H ) :   0.9485
B(  0-C , 10-H ) :   0.9449 B(  1-C ,  2-C ) :   1.0926 B(  1-C , 11-H ) :   0.9214
B(  1-C , 12-H ) :   0.9134 B(  2-C ,  3-H ) :   0.8859 B(  2-C ,  4-C ) :   1.1211
B(  2-C ,  5-C ) :   1.0473 B(  4-C , 13-H ) :   0.9465 B(  4-C , 14-H ) :   0.9469
B(  4-C , 15-H ) :   0.9345 B(  5-C ,  6-C ) :   1.1154 B(  5-C ,  7-C ) :   1.1224
B(  5-C , 16-H ) :   0.8936 B(  6-C , 17-H ) :   0.9415 B(  6-C , 18-H ) :   0.9411
B(  6-C , 19-H ) :   0.9476 B(  7-C , 20-H ) :   0.9473 B(  7-C , 21-H ) :   0.9473
B(  7-C , 22-H ) :   0.9392

Dispersion correction           -0.019907801
FINAL SINGLE POINT ENERGY      -275.657624281420

DIPOLE MOMENT
-------------

Method             : SCF
Type of density    : Electron Density
Multiplicity       :   1
Irrep              :   0
Energy             :  -275.7345797752809062 Eh
Relativity type    :
Basis              : AO
                                X                 Y                 Z
Electronic contribution:     -0.301016580      -0.326749298      -1.600418315
Nuclear contribution   :      0.301561041       0.327057133       1.556831833
                        -----------------------------------------
Total Dipole Moment    :      0.000544461       0.000307834      -0.043586482
                        -----------------------------------------
Magnitude (a.u.)       :      0.043590970
Magnitude (Debye)      :      0.110799440

Rotational constants in cm-1:             0.092964             0.068306             0.058404
Rotational constants in MHz :          2786.998159          2047.762491          1750.922736

                             ****ORCA TERMINATED NORMALLY****
TOTAL RUN TIME: 0 days 0 hours 0 minutes 9 seconds 224 msec
