                         Program Version 6.0.0  -   RELEASE  -
|  1> ! pbe def2-sv(p) def2/J RI DEFGRID1 loosescf d4 GCP(DFT/SV(P)) printgap
|  2> %output
|  3>     printlevel normal
|  4> end
|  5> * xyz 0 1
|  6> C 4.1774859556 -0.2441232619 -0.0596172251
|  7> N 2.7460367204 -0.4203735555 0.0532175726
|  8> C 2.3206838748 -1.7570810887 0.3959721873
|  9> C 1.9166975129 0.6083056904 -0.1566034495
| 10> O 2.3175011482 1.7388286484 -0.4529118251
| 11> C 0.4491470083 0.3393674161 -0.017179362
| 12> C -0.1867234368 0.5282524095 1.2067516356
| 13> C -1.5486349413 0.3495582029 1.3179898375
| 14> C -2.3085316473 -0.0152331862 0.2043316648
| 15> C -1.6768481975 -0.1942148332 -1.0218013127
| 16> C -0.3078935783 -0.0120256313 -1.1249571425
| 17> O -3.6433867253 -0.1679234448 0.4235811372
| 18> C -4.4752157451 -0.5291517087 -0.6638879261
| 19> H 4.3756701808 0.794437287 -0.3166319494
| 20> H 4.5733127553 -0.8955046015 -0.8394249948
| 21> H 4.6584347794 -0.4841710799 0.8890619107
| 22> H 2.7539483373 -2.0439446547 1.3555042098
| 23> H 2.6650156925 -2.4571291704 -0.3671097581
| 24> H 1.2378993697 -1.803606483 0.4636037991
| 25> H 0.3917303973 0.8178775337 2.0707325273
| 26> H -2.0547942925 0.4904447383 2.2593797388
| 27> H -2.2351208361 -0.4694169717 -1.9013777394
| 28> H 0.1757746519 -0.1446266322 -2.0811017819
| 29> H -4.1915509169 -1.503003928 -1.0705599614
| 30> H -4.4441501028 0.2268855211 -1.4524207504
| 31> H -5.4788481844 -0.5837557297 -0.2488724741
| 32> *
| 33>
| 34>                          ****END OF INPUT****

CARTESIAN COORDINATES (ANGSTROEM)
---------------------------------
  C      4.177486   -0.244123   -0.059617
  N      2.746037   -0.420374    0.053218
  C      2.320684   -1.757081    0.395972
  C      1.916698    0.608306   -0.156603
  O      2.317501    1.738829   -0.452912
  C      0.449147    0.339367   -0.017179
  C     -0.186723    0.528252    1.206752
  C     -1.548635    0.349558    1.317990
  C     -2.308532   -0.015233    0.204332
  C     -1.676848   -0.194215   -1.021801
  C     -0.307894   -0.012026   -1.124957
  O     -3.643387   -0.167923    0.423581
  C     -4.475216   -0.529152   -0.663888
  H      4.375670    0.794437   -0.316632
  H      4.573313   -0.895505   -0.839425
  H      4.658435   -0.484171    0.889062
  H      2.753948   -2.043945    1.355504
  H      2.665016   -2.457129   -0.367110
  H      1.237899   -1.803606    0.463604
  H      0.391730    0.817878    2.070733
  H     -2.054794    0.490445    2.259380
  H     -2.235121   -0.469417   -1.901378
  H      0.175775   -0.144627   -2.081102
  H     -4.191551   -1.503004   -1.070560
  H     -4.444150    0.226886   -1.452421
  H     -5.478848   -0.583756   -0.248872

 Total Charge           Charge          ....    0
 Multiplicity           Mult            ....    1
 Number of Electrons    NEL             ....   96
 Basis Dimension        Dim             ....  208

ORBITAL ENERGIES
----------------

  NO   OCC          E(Eh)            E(eV)
   0   2.0000     -18.792111      -511.3593
   1   2.0000     -18.702235      -508.9137
   2   2.0000     -14.025372      -381.6498
   3   2.0000      -9.972181      -271.3568
   4   2.0000      -9.954767      -270.8830
   5   2.0000      -9.944033      -270.5909
   6   2.0000      -9.921652      -269.9819
   7   2.0000      -9.912688      -269.7379
   8   2.0000      -9.896837      -269.3066
   9   2.0000      -9.896187      -269.2889
  10   2.0000      -9.895435      -269.2685
  11   2.0000      -9.894531      -269.2439
  12   2.0000      -9.890264      -269.1278
  13   2.0000      -0.972389       -26.4601
  14   2.0000      -0.923842       -25.1390
  15   2.0000      -0.845423       -23.0051
  16   2.0000      -0.777687       -21.1619
  17   2.0000      -0.695364       -18.9218
  18   2.0000      -0.676933       -18.4203
  19   2.0000      -0.656149       -17.8547
  20   2.0000      -0.642915       -17.4946
  21   2.0000      -0.618996       -16.8437
  22   2.0000      -0.554020       -15.0756
  23   2.0000      -0.539816       -14.6891
  24   2.0000      -0.497650       -13.5418
  25   2.0000      -0.485960       -13.2236
  26   2.0000      -0.463562       -12.6141
  27   2.0000      -0.444191       -12.0871
  28   2.0000      -0.426434       -11.6039
  29   2.0000      -0.424719       -11.5572
  30   2.0000      -0.420606       -11.4453
  31   2.0000      -0.400608       -10.9011
  32   2.0000      -0.383556       -10.4371
  33   2.0000      -0.376992       -10.2585
  34   2.0000      -0.374554       -10.1921
  35   2.0000      -0.362435        -9.8624
  36   2.0000      -0.351180        -9.5561
  37   2.0000      -0.347086        -9.4447
  38   2.0000      -0.336689        -9.1618
  39   2.0000      -0.328340        -8.9346
  40   2.0000      -0.321020        -8.7354
  41   2.0000      -0.307505        -8.3676
  42   2.0000      -0.284420        -7.7395
  43   2.0000      -0.283623        -7.7178
  44   2.0000      -0.233488        -6.3535
  45   2.0000      -0.205847        -5.6014
  46   2.0000      -0.201060        -5.4711
  47   2.0000      -0.180419        -4.9095
  48   0.0000      -0.038038        -1.0351
  49   0.0000      -0.024451        -0.6653
  50   0.0000       0.001174         0.0320
  51   0.0000       0.032741         0.8909
  52   0.0000       0.042443         1.1549

MULLIKEN ATOMIC CHARGES
-----------------------
   0 C :   -0.176860
   1 N :   -0.228781
   2 C :   -0.177455
   3 C :    0.139565
   4 O :   -0.239373
   5 C :   -0.023666
   6 C :   -0.074258
   7 C :   -0.111197
   8 C :    0.279177
   9 C :   -0.190798
  10 C :   -0.076211
  11 O :   -0.267931
  12 C :   -0.115257
  13 H :    0.143149
  14 H :    0.106440
  15 H :    0.106762
  16 H :    0.105928
  17 H :    0.105314
  18 H :    0.162137
  19 H :    0.049262
  20 H :    0.045774
  21 H :    0.040286
  22 H :    0.047218
  23 H :    0.110086
  24 H :    0.113546
  25 H :    0.127145
Sum of atomic charges:    0.0000000

LOEWDIN ATOMIC CHARGES
----------------------
   0 C :   -0.254521
   1 N :   -0.044113
   2 C :   -0.250000
   3 C :    0.029132
   4 O :   -0.206873
   5 C :   -0.079996
   6 C :   -0.105625
   7 C :   -0.138892
   8 C :    0.029427
   9 C :   -0.173052
  10 C :   -0.104620
  11 O :   -0.091213
  12 C :   -0.201633
  13 H :    0.136751
  14 H :    0.115831
  15 H :    0.116024
  16 H :    0.114996
  17 H :    0.114629
  18 H :    0.137651
  19 H :    0.127515
  20 H :    0.131098
  21 H :    0.127151
  22 H :    0.126624
  23 H :    0.109316
  24 H :    0.111015
  25 H :    0.123377

  Mayer bond orders larger than 0.100000
B(  0-C ,  1-N ) :   1.0004 B(  0-C , 13-H ) :   0.9272 B(  0-C , 14-H ) :   0.9523
B(  0-C , 15-H ) :   0.9522 B(  1-N ,  2-C ) :   1.0178 B(  1-N ,  3-C ) :   1.2050
B(  1-N ,  4-O ) :   0.1046 B(  2-C , 16-H ) :   0.9471 B(  2-C , 17-H ) :   0.9471
B(  2-C , 18-H ) :   0.9292 B(  3-C ,  4-O ) :   2.0320 B(  3-C ,  5-C ) :   0.8919
B(  5-C ,  6-C ) :   1.3597 B(  5-C , 10-C ) :   1.4035 B(  6-C ,  7-C ) :   1.3732
B(  6-C , 19-H ) :   0.9683 B(  7-C ,  8-C ) :   1.3368 B(  7-C , 20-H ) :   0.9648
B(  8-C ,  9-C ) :   1.2903 B(  8-C , 11-O ) :   1.1429 B(  9-C , 10-C ) :   1.3348
B(  9-C , 21-H ) :   0.9637 B( 10-C , 22-H ) :   0.9646 B( 11-O , 12-C ) :   0.9871
B( 12-C , 23-H ) :   0.9420 B( 12-C , 24-H ) :   0.9418 B( 12-C , 25-H ) :   0.9590

Dispersion correction           -0.028460540
FINAL SINGLE POINT ENERGY      -592.809205188490

DIPOLE MOMENT
-------------

Method             : SCF
Type of density    : Electron Density
Multiplicity       :   1
Irrep              :   0
Energy             :  -592.8931068053067293 Eh
Relativity type    :
Basis              : AO
                                X                 Y                 Z
Electronic contribution:     -2.679805508       5.996393520       1.082244086
Nuclear contribution   :      2.272659668      -7.536469214      -1.162738537
                        -----------------------------------------
Total Dipole Moment    :     -0.407145841      -1.540075694      -0.080494451
                        -----------------------------------------
Magnitude (a.u.)       :      1.595017315
Magnitude (Debye)      :      4.054211822

Rotational constants in cm-1:             0.074332             0.012440             0.012285
Rotational constants in MHz :          2228.404248           372.951771           368.306201

                             ****ORCA TERMINATED NORMALLY****
TOTAL RUN TIME: 0 days 0 hours 0 minutes 17 seconds 689 msec
