                         Program Version 6.0.0  -   RELEASE  -
|  1> ! r2scan-3c def2/J RI DEFGRID2 scfconv6 printgap
|  2> %output
|  3>     printlevel normal
|  4> end
|  5> * xyz 0 1
|  6> C 2.8166239956 -0.1995794141 0.2078780144
|  7> C 1.4846191804 0.2945558178 -0.3419124464
|  8> C 0.3141738551 -0.536496289 0.1785087419
|  9> C -1.0328797955 -0.0246833951 -0.3377074378
| 10> H -0.9912475928 0.0324057858 -1.4388297605
| 11> C -2.1720154943 -0.9577241957 0.0736148959
| 12> O -1.2215995841 1.2814518117 0.1846512037
| 13> H 2.9866174354 -1.2346454054 -0.0801873789
| 14> H 2.8255990368 -0.1396519073 1.2936635206
| 15> H 3.6344902548 0.4043792552 -0.1768073226
| 16> H 1.3277305486 1.3356559556 -0.0543920668
| 17> H 1.500367466 0.2482769809 -1.4334605077
| 18> H 0.4361092001 -1.5766579166 -0.1267514983
| 19> H 0.298421022 -0.4943872234 1.2691392589
| 20> H -3.1227786437 -0.5956117029 -0.3112226922
| 21> H -1.9964141356 -1.9542468062 -0.320138304
| 22> H -2.230321737 -1.0107073887 1.1581486836
| 23> H -2.0858922795 1.6121700327 -0.0931552692
| 24> *
| 25>
| 26>                          ****END OF INPUT****

CARTESIAN COORDINATES (ANGSTROEM)
---------------------------------
  C      2.816624   -0.199579    0.207878
  C      1.484619    0.294556   -0.341912
  C      0.314174   -0.536496    0.178509
  C     -1.032880   -0.024683   -0.337707
  H     -0.991248    0.032406   -1.438830
  C     -2.172015   -0.957724    0.073615
  O     -1.221600    1.281452    0.184651
  H      2.986617   -1.234645   -0.080187
  H      2.825599   -0.139652    1.293664
  H      3.634490    0.404379   -0.176807
  H      1.327731    1.335656   -0.054392
  H      1.500367    0.248277   -1.433461
  H      0.436109   -1.576658   -0.126751
  H      0.298421   -0.494387    1.269139
  H     -3.122779   -0.595612   -0.311223
  H     -1.996414   -1.954247   -0.320138
  H     -2.230322   -1.010707    1.158149
  H     -2.085892    1.612170   -0.093155

 Total Charge           Charge          ....    0
 Multiplicity           Mult            ....    1
 Number of Electrons    NEL             ....   50
 Basis Dimension        Dim             ....  179

ORBITAL ENERGIES
----------------

  NO   OCC          E(Eh)            E(eV)
   0   2.0000     -18.944394      -515.5032
   1   2.0000     -10.079522      -274.2777
   2   2.0000     -10.020040      -272.6591
   3   2.0000     -10.019477      -272.6438
   4   2.0000     -10.016750      -272.5696
   5   2.0000     -10.011017      -272.4136
   6   2.0000      -0.982546       -26.7364
   7   2.0000      -0.759947       -20.6792
   8   2.0000      -0.712183       -19.3795
   9   2.0000      -0.647207       -17.6114
  10   2.0000      -0.566349       -15.4111
  11   2.0000      -0.539644       -14.6844
  12   2.0000      -0.482273       -13.1233
  13   2.0000      -0.416639       -11.3373
  14   2.0000      -0.413418       -11.2497
  15   2.0000      -0.406733       -11.0678
  16   2.0000      -0.366239        -9.9659
  17   2.0000      -0.361945        -9.8490
  18   2.0000      -0.346115        -9.4183
  19   2.0000      -0.336631        -9.1602
  20   2.0000      -0.314255        -8.5513
  21   2.0000      -0.299709        -8.1555
  22   2.0000      -0.292009        -7.9460
  23   2.0000      -0.275502        -7.4968
  24   2.0000      -0.233539        -6.3549
  25   0.0000       0.063875         1.7381
  26   0.0000       0.106948         2.9102
  27   0.0000       0.116586         3.1725
  28   0.0000       0.127730         3.4757
  29   0.0000       0.138384         3.7656

MULLIKEN ATOMIC CHARGES
-----------------------
   0 C :   -0.475560
   1 C :   -0.253099
   2 C :   -0.291453
   3 C :    0.085456
   4 H :    0.120880
   5 C :   -0.489545
   6 O :   -0.432812
   7 H :    0.137389
   8 H :    0.143854
   9 H :    0.146469
  10 H :    0.167186
  11 H :    0.133208
  12 H :    0.130513
  13 H :    0.151460
  14 H :    0.136444
  15 H :    0.145357
  16 H :    0.159065
  17 H :    0.285188
Sum of atomic charges:    0.0000000

LOEWDIN ATOMIC CHARGES
----------------------
   0 C :   -0.424703
   1 C :   -0.310122
   2 C :   -0.276575
   3 C :    0.046956
   4 H :    0.159677
   5 C :   -0.401631
   6 O :   -0.620820
   7 H :    0.147721
   8 H :    0.149897
   9 H :    0.149930
  10 H :    0.165384
  11 H :    0.150429
  12 H :    0.159532
  13 H :    0.166424
  14 H :    0.150169
  15 H :    0.157878
  16 H :    0.161648
  17 H :    0.268207

  Mayer bond orders larger than 0.100000
B(  0-C ,  1-C ) :   0.8888 B(  0-C ,  7-H ) :   0.9821 B(  0-C ,  8-H ) :   0.9869
B(  0-C ,  9-H ) :   0.9762 B(  1-C ,  2-C ) :   0.9238 B(  1-C , 10-H ) :   0.9740
B(  1-C , 11-H ) :   0.9656 B(  2-C ,  3-C ) :   0.9624 B(  2-C , 12-H ) :   0.9709
B(  2-C , 13-H ) :   0.9830 B(  3-C ,  4-H ) :   0.9493 B(  3-C ,  5-C ) :   0.9202
B(  3-C ,  6-O ) :   0.8499 B(  5-C , 14-H ) :   0.9724 B(  5-C , 15-H ) :   0.9754
B(  5-C , 16-H ) :   0.9839 B(  6-O , 17-H ) :   0.9032

Dispersion correction           -0.004098704
FINAL SINGLE POINT ENERGY      -272.903610246679

DIPOLE MOMENT
-------------

Method             : SCF
Type of density    : Electron Density
Multiplicity       :   1
Irrep              :   0
Energy             :  -272.9089278424429494 Eh
Relativity type    :
Basis              : AO
                                X                 Y                 Z
Electronic contribution:     -2.807843865       2.881762862      -0.023830282
Nuclear contribution   :      2.404847889      -3.145427677      -0.291836821
                        -----------------------------------------
Total Dipole Moment    :     -0.402995975      -0.263664815      -0.315667103
                        -----------------------------------------
Magnitude (a.u.)       :      0.575821683
Magnitude (Debye)      :      1.463622402

Rotational constants in cm-1:             0.241421             0.058422             0.050815
Rotational constants in MHz :          7237.605949          1751.459570          1523.409710

                             ****ORCA TERMINATED NORMALLY****
TOTAL RUN TIME: 0 days 0 hours 0 minutes 21 seconds 483 msec
