                         Program Version 6.0.0  -   RELEASE  -
|  1> ! r2scan-3c def2/J RI DEFGRID2 scfconv6 printgap
|  2> %output
|  3>     printlevel normal
|  4> end
|  5> %cpcm
|  6>     smd true
|  7>     smdsolvent "water"
|  8> end
|  9> * xyz 0 1
| 10> C 2.8166239956 -0.1995794141 0.2078780144
| 11> C 1.4846191804 0.2945558178 -0.3419124464
| 12> C 0.3141738551 -0.536496289 0.1785087419
| 13> C -1.0328797955 -0.0246833951 -0.3377074378
| 14> H -0.9912475928 0.0324057858 -1.4388297605
| 15> C -2.1720154943 -0.9577241957 0.0736148959
| 16> O -1.2215995841 1.2814518117 0.1846512037
| 17> H 2.9866174354 -1.2346454054 -0.0801873789
| 18> H 2.8255990368 -0.1396519073 1.2936635206
| 19> H 3.6344902548 0.4043792552 -0.1768073226
| 20> H 1.3277305486 1.3356559556 -0.0543920668
| 21> H 1.500367466 0.2482769809 -1.4334605077
| 22> H 0.4361092001 -1.5766579166 -0.1267514983
| 23> H 0.298421022 -0.4943872234 1.2691392589
| 24> H -3.1227786437 -0.5956117029 -0.3112226922
| 25> H -1.9964141356 -1.9542468062 -0.320138304
| 26> H -2.230321737 -1.0107073887 1.1581486836
| 27> H -2.0858922795 1.6121700327 -0.0931552692
| 28> *
| 29>
| 30>                          ****END OF INPUT****

CARTESIAN COORDINATES (ANGSTROEM)
---------------------------------
  C      2.816624   -0.199579    0.207878
  C      1.484619    0.294556   -0.341912
  C      0.314174   -0.536496    0.178509
  C     -1.032880   -0.024683   -0.337707
  H     -0.991248    0.032406   -1.438830
  C     -2.172015   -0.957724    0.073615
  O     -1.221600    1.281452    0.184651
  H      2.986617   -1.234645   -0.080187
  H      2.825599   -0.139652    1.293664
  H      3.634490    0.404379   -0.176807
  H      1.327731    1.335656   -0.054392
  H      1.500367    0.248277   -1.433461
  H      0.436109   -1.576658   -0.126751
  H      0.298421   -0.494387    1.269139
  H     -3.122779   -0.595612   -0.311223
  H     -1.996414   -1.954247   -0.320138
  H     -2.230322   -1.010707    1.158149
  H     -2.085892    1.612170   -0.093155

 Total Charge           Charge          ....    0
 Multiplicity           Mult            ....    1
 Number of Electrons    NEL             ....   50
 Basis Dimension        Dim             ....  179

ORBITAL ENERGIES
----------------

  NO   OCC          E(Eh)            E(eV)
   0   2.0000     -18.947651      -515.5918
   1   2.0000     -10.074403      -274.1384
   2   2.0000     -10.015192      -272.5272
   3   2.0000     -10.014838      -272.5176
   4   2.0000     -10.009112      -272.3618
   5   2.0000     -10.007486      -272.3175
   6   2.0000      -0.984690       -26.7948
   7   2.0000      -0.756344       -20.5812
   8   2.0000      -0.706674       -19.2296
   9   2.0000      -0.641536       -17.4571
  10   2.0000      -0.562736       -15.3128
  11   2.0000      -0.536620       -14.6022
  12   2.0000      -0.478731       -13.0269
  13   2.0000      -0.413140       -11.2421
  14   2.0000      -0.409193       -11.1347
  15   2.0000      -0.403694       -10.9851
  16   2.0000      -0.359470        -9.7817
  17   2.0000      -0.355873        -9.6838
  18   2.0000      -0.341580        -9.2949
  19   2.0000      -0.333408        -9.0725
  20   2.0000      -0.313978        -8.5438
  21   2.0000      -0.297805        -8.1037
  22   2.0000      -0.289132        -7.8677
  23   2.0000      -0.272397        -7.4123
  24   2.0000      -0.237288        -6.4569
  25   0.0000       0.081055         2.2056
  26   0.0000       0.111649         3.0381
  27   0.0000       0.123538         3.3616
  28   0.0000       0.134375         3.6565
  29   0.0000       0.144475         3.9314

MULLIKEN ATOMIC CHARGES
-----------------------
   0 C :   -0.516452
   1 C :   -0.257774
   2 C :   -0.312905
   3 C :    0.101618
   4 H :    0.136212
   5 C :   -0.535839
   6 O :   -0.519891
   7 H :    0.152374
   8 H :    0.154693
   9 H :    0.156499
  10 H :    0.153829
  11 H :    0.149443
  12 H :    0.151827
  13 H :    0.159701
  14 H :    0.161299
  15 H :    0.163010
  16 H :    0.161651
  17 H :    0.340703
Sum of atomic charges:   -0.0000000

LOEWDIN ATOMIC CHARGES
----------------------
   0 C :   -0.432195
   1 C :   -0.314186
   2 C :   -0.281026
   3 C :    0.049442
   4 H :    0.166879
   5 C :   -0.405917
   6 O :   -0.656870
   7 H :    0.152215
   8 H :    0.152327
   9 H :    0.152223
  10 H :    0.158600
  11 H :    0.154825
  12 H :    0.167194
  13 H :    0.166255
  14 H :    0.158527
  15 H :    0.163859
  16 H :    0.161338
  17 H :    0.286510

  Mayer bond orders larger than 0.100000
B(  0-C ,  1-C ) :   0.8856 B(  0-C ,  7-H ) :   0.9795 B(  0-C ,  8-H ) :   0.9844
B(  0-C ,  9-H ) :   0.9730 B(  1-C ,  2-C ) :   0.9135 B(  1-C , 10-H ) :   0.9773
B(  1-C , 11-H ) :   0.9640 B(  2-C ,  3-C ) :   0.9552 B(  2-C , 12-H ) :   0.9639
B(  2-C , 13-H ) :   0.9846 B(  3-C ,  4-H ) :   0.9459 B(  3-C ,  5-C ) :   0.9251
B(  3-C ,  6-O ) :   0.8330 B(  5-C , 14-H ) :   0.9682 B(  5-C , 15-H ) :   0.9717
B(  5-C , 16-H ) :   0.9803 B(  6-O , 17-H ) :   0.8776

Dispersion correction           -0.004098704
FINAL SINGLE POINT ENERGY      -272.909425661640

DIPOLE MOMENT
-------------

Method             : SCF
Type of density    : Electron Density
Multiplicity       :   1
Irrep              :   0
Energy             :  -272.9147432574038703 Eh
Relativity type    :
Basis              : AO
                                X                 Y                 Z
Electronic contribution:     -2.967093656       2.701262739      -0.200365548
Nuclear contribution   :      2.404847889      -3.145427677      -0.291836821
                        -----------------------------------------
Total Dipole Moment    :     -0.562245767      -0.444164938      -0.492202369
                        -----------------------------------------
Magnitude (a.u.)       :      0.869290496
Magnitude (Debye)      :      2.209560844

Rotational constants in cm-1:             0.241421             0.058422             0.050815
Rotational constants in MHz :          7237.605949          1751.459570          1523.409710

                             ****ORCA TERMINATED NORMALLY****
TOTAL RUN TIME: 0 days 0 hours 0 minutes 26 seconds 246 msec
