                         Program Version 6.0.0  -   RELEASE  -
|  1> ! r2scan-3c def2/J RI DEFGRID2 scfconv6 printgap
|  2> %output
|  3>     printlevel normal
|  4> end
|  5> * xyz 0 1
|  6> C -2.1004888663 -0.4083912231 -0.4609259076
|  7> C -1.2758633173 0.235324108 0.6499085339
|  8> N 0.0422304963 0.6326771948 0.1806994213
|  9> C 0.9552663921 -0.4776051737 -0.0382740735
| 10> C 2.354114866 0.0360585687 -0.3473038614
| 11> H -1.6988633706 -1.3804682267 -0.7333022994
| 12> H -3.125587394 -0.5412514899 -0.1263350011
| 13> H -2.0927294076 0.2316215369 -1.3381954065
| 14> H -1.2150146966 -0.4615435721 1.5072943864
| 15> H -1.7849283883 1.1412476093 0.9876038383
| 16> H 0.4591333304 1.2617154613 0.8605324971
| 17> H 0.9915670595 -1.1558923406 0.8360091735
| 18> H 0.5840916451 -1.0539297904 -0.8896774805
| 19> H 2.759509462 0.5774970327 0.5048894965
| 20> H 3.0150728108 -0.7948538405 -0.5772248606
| 21> H 2.3189320685 0.707756817 -1.2000058634
| 22> *
| 23>
| 24>                          ****END OF INPUT****

CARTESIAN COORDINATES (ANGSTROEM)
---------------------------------
  C     -2.100489   -0.408391   -0.460926
  C     -1.275863    0.235324    0.649909
  N      0.042230    0.632677    0.180699
  C      0.955266   -0.477605   -0.038274
  C      2.354115    0.036059   -0.347304
  H     -1.698863   -1.380468   -0.733302
  H     -3.125587   -0.541251   -0.126335
  H     -2.092729    0.231622   -1.338195
  H     -1.215015   -0.461544    1.507294
  H     -1.784928    1.141248    0.987604
  H      0.459133    1.261715    0.860532
  H      0.991567   -1.155892    0.836009
  H      0.584092   -1.053930   -0.889677
  H      2.759509    0.577497    0.504889
  H      3.015073   -0.794854   -0.577225
  H      2.318932    0.707757   -1.200006

 Total Charge           Charge          ....    0
 Multiplicity           Mult            ....    1
 Number of Electrons    NEL             ....   42
 Basis Dimension        Dim             ....  155

ORBITAL ENERGIES
----------------

  NO   OCC          E(Eh)            E(eV)
   0   2.0000     -14.136537      -384.6747
   1   2.0000     -10.047994      -273.4198
   2   2.0000     -10.047375      -273.4030
   3   2.0000     -10.017099      -272.5791
   4   2.0000     -10.011888      -272.4373
   5   2.0000      -0.867110       -23.5953
   6   2.0000      -0.724719       -19.7206
   7   2.0000      -0.678261       -18.4564
   8   2.0000      -0.586553       -15.9609
   9   2.0000      -0.547631       -14.9018
  10   2.0000      -0.453664       -12.3448
  11   2.0000      -0.426841       -11.6149
  12   2.0000      -0.419915       -11.4265
  13   2.0000      -0.392406       -10.6779
  14   2.0000      -0.355006        -9.6602
  15   2.0000      -0.342944        -9.3320
  16   2.0000      -0.330572        -8.9953
  17   2.0000      -0.317337        -8.6352
  18   2.0000      -0.312423        -8.5015
  19   2.0000      -0.294791        -8.0217
  20   2.0000      -0.189172        -5.1476
  21   0.0000       0.077216         2.1011
  22   0.0000       0.107038         2.9126
  23   0.0000       0.113000         3.0749
  24   0.0000       0.135834         3.6962
  25   0.0000       0.138927         3.7804

MULLIKEN ATOMIC CHARGES
-----------------------
   0 C :   -0.470773
   1 C :   -0.170198
   2 N :   -0.323321
   3 C :   -0.182215
   4 C :   -0.470340
   5 H :    0.142742
   6 H :    0.143398
   7 H :    0.159060
   8 H :    0.117805
   9 H :    0.136692
  10 H :    0.221888
  11 H :    0.119468
  12 H :    0.136397
  13 H :    0.135318
  14 H :    0.144087
  15 H :    0.159993
Sum of atomic charges:    0.0000000

LOEWDIN ATOMIC CHARGES
----------------------
   0 C :   -0.402035
   1 C :   -0.073386
   2 N :   -0.864628
   3 C :   -0.070097
   4 C :   -0.395862
   5 H :    0.148958
   6 H :    0.151656
   7 H :    0.158557
   8 H :    0.149613
   9 H :    0.171695
  10 H :    0.246385
  11 H :    0.149468
  12 H :    0.169841
  13 H :    0.148110
  14 H :    0.153321
  15 H :    0.158402

  Mayer bond orders larger than 0.100000
B(  0-C ,  1-C ) :   0.9172 B(  0-C ,  5-H ) :   0.9757 B(  0-C ,  6-H ) :   0.9738
B(  0-C ,  7-H ) :   0.9760 B(  1-C ,  2-N ) :   0.9168 B(  1-C ,  8-H ) :   0.9603
B(  1-C ,  9-H ) :   0.9709 B(  2-N ,  3-C ) :   0.9709 B(  2-N , 10-H ) :   0.9154
B(  3-C ,  4-C ) :   0.9402 B(  3-C , 11-H ) :   0.9498 B(  3-C , 12-H ) :   0.9563
B(  4-C , 13-H ) :   0.9756 B(  4-C , 14-H ) :   0.9729 B(  4-C , 15-H ) :   0.9759

Dispersion correction           -0.003398319
FINAL SINGLE POINT ENERGY      -213.713903482321

DIPOLE MOMENT
-------------

Method             : SCF
Type of density    : Electron Density
Multiplicity       :   1
Irrep              :   0
Energy             :  -213.7226510402074382 Eh
Relativity type    :
Basis              : AO
                                X                 Y                 Z
Electronic contribution:     -0.116940635       1.261021116       0.484452958
Nuclear contribution   :      0.198358532      -1.373844929      -0.157003500
                        -----------------------------------------
Total Dipole Moment    :      0.081417897      -0.112823813       0.327449459
                        -----------------------------------------
Magnitude (a.u.)       :      0.355782567
Magnitude (Debye)      :      0.904327417

Rotational constants in cm-1:             0.430091             0.081116             0.075178
Rotational constants in MHz :         12893.818244          2431.796579          2253.766219

                             ****ORCA TERMINATED NORMALLY****
TOTAL RUN TIME: 0 days 0 hours 0 minutes 14 seconds 591 msec
