                         Program Version 6.0.0  -   RELEASE  -
|  1> ! r2scan-3c def2/J RI DEFGRID2 scfconv6 printgap
|  2> %output
|  3>     printlevel normal
|  4> end
|  5> %cpcm
|  6>     smd true
|  7>     smdsolvent "water"
|  8> end
|  9> * xyz 0 1
| 10> C -2.1004888663 -0.4083912231 -0.4609259076
| 11> C -1.2758633173 0.235324108 0.6499085339
| 12> N 0.0422304963 0.6326771948 0.1806994213
| 13> C 0.9552663921 -0.4776051737 -0.0382740735
| 14> C 2.354114866 0.0360585687 -0.3473038614
| 15> H -1.6988633706 -1.3804682267 -0.7333022994
| 16> H -3.125587394 -0.5412514899 -0.1263350011
| 17> H -2.0927294076 0.2316215369 -1.3381954065
| 18> H -1.2150146966 -0.4615435721 1.5072943864
| 19> H -1.7849283883 1.1412476093 0.9876038383
| 20> H 0.4591333304 1.2617154613 0.8605324971
| 21> H 0.9915670595 -1.1558923406 0.8360091735
| 22> H 0.5840916451 -1.0539297904 -0.8896774805
| 23> H 2.759509462 0.5774970327 0.5048894965
| 24> H 3.0150728108 -0.7948538405 -0.5772248606
| 25> H 2.3189320685 0.707756817 -1.2000058634
| 26> *
| 27>
| 28>                          ****END OF INPUT****

CARTESIAN COORDINATES (ANGSTROEM)
---------------------------------
  C     -2.100489   -0.408391   -0.460926
  C     -1.275863    0.235324    0.649909
  N      0.042230    0.632677    0.180699
  C      0.955266   -0.477605   -0.038274
  C      2.354115    0.036059   -0.347304
  H     -1.698863   -1.380468   -0.733302
  H     -3.125587   -0.541251   -0.126335
  H     -2.092729    0.231622   -1.338195
  H     -1.215015   -0.461544    1.507294
  H     -1.784928    1.141248    0.987604
  H      0.459133    1.261715    0.860532
  H      0.991567   -1.155892    0.836009
  H      0.584092   -1.053930   -0.889677
  H      2.759509    0.577497    0.504889
  H      3.015073   -0.794854   -0.577225
  H      2.318932    0.707757   -1.200006

 Total Charge           Charge          ....    0
 Multiplicity           Mult            ....    1
 Number of Electrons    NEL             ....   42
 Basis Dimension        Dim             ....  155

ORBITAL ENERGIES
----------------

  NO   OCC          E(Eh)            E(eV)
   0   2.0000     -14.134115      -384.6088
   1   2.0000     -10.041935      -273.2549
   2   2.0000     -10.041027      -273.2302
   3   2.0000     -10.009835      -272.3815
   4   2.0000     -10.007141      -272.3082
   5   2.0000      -0.863060       -23.4850
   6   2.0000      -0.719265       -19.5722
   7   2.0000      -0.672980       -18.3127
   8   2.0000      -0.580834       -15.8053
   9   2.0000      -0.542136       -14.7523
  10   2.0000      -0.448333       -12.1998
  11   2.0000      -0.421750       -11.4764
  12   2.0000      -0.414740       -11.2857
  13   2.0000      -0.386121       -10.5069
  14   2.0000      -0.349094        -9.4993
  15   2.0000      -0.337846        -9.1933
  16   2.0000      -0.325142        -8.8476
  17   2.0000      -0.311648        -8.4804
  18   2.0000      -0.306490        -8.3400
  19   2.0000      -0.288204        -7.8424
  20   2.0000      -0.190016        -5.1706
  21   0.0000       0.088024         2.3952
  22   0.0000       0.114906         3.1267
  23   0.0000       0.119447         3.2503
  24   0.0000       0.140662         3.8276
  25   0.0000       0.146021         3.9734

MULLIKEN ATOMIC CHARGES
-----------------------
   0 C :   -0.505748
   1 C :   -0.186123
   2 N :   -0.384493
   3 C :   -0.197704
   4 C :   -0.502974
   5 H :    0.158999
   6 H :    0.158887
   7 H :    0.156257
   8 H :    0.127395
   9 H :    0.154930
  10 H :    0.270026
  11 H :    0.128711
  12 H :    0.149764
  13 H :    0.155943
  14 H :    0.158781
  15 H :    0.157350
Sum of atomic charges:    0.0000000

LOEWDIN ATOMIC CHARGES
----------------------
   0 C :   -0.411105
   1 C :   -0.074973
   2 N :   -0.885247
   3 C :   -0.071858
   4 C :   -0.403764
   5 H :    0.153218
   6 H :    0.156329
   7 H :    0.155718
   8 H :    0.154042
   9 H :    0.176382
  10 H :    0.256721
  11 H :    0.154119
  12 H :    0.172205
  13 H :    0.154444
  14 H :    0.157716
  15 H :    0.156052

  Mayer bond orders larger than 0.100000
B(  0-C ,  1-C ) :   0.9026 B(  0-C ,  5-H ) :   0.9719 B(  0-C ,  6-H ) :   0.9705
B(  0-C ,  7-H ) :   0.9751 B(  1-C ,  2-N ) :   0.9190 B(  1-C ,  8-H ) :   0.9622
B(  1-C ,  9-H ) :   0.9717 B(  2-N ,  3-C ) :   0.9768 B(  2-N , 10-H ) :   0.8998
B(  3-C ,  4-C ) :   0.9321 B(  3-C , 11-H ) :   0.9513 B(  3-C , 12-H ) :   0.9551
B(  4-C , 13-H ) :   0.9717 B(  4-C , 14-H ) :   0.9697 B(  4-C , 15-H ) :   0.9743

Dispersion correction           -0.003398319
FINAL SINGLE POINT ENERGY      -213.718367281905

DIPOLE MOMENT
-------------

Method             : SCF
Type of density    : Electron Density
Multiplicity       :   1
Irrep              :   0
Energy             :  -213.7271148397910565 Eh
Relativity type    :
Basis              : AO
                                X                 Y                 Z
Electronic contribution:     -0.088355019       1.179854841       0.676014628
Nuclear contribution   :      0.198358532      -1.373844929      -0.157003500
                        -----------------------------------------
Total Dipole Moment    :      0.110003513      -0.193990088       0.519011129
                        -----------------------------------------
Magnitude (a.u.)       :      0.564894219
Magnitude (Debye)      :      1.435846997

Rotational constants in cm-1:             0.430091             0.081116             0.075178
Rotational constants in MHz :         12893.818244          2431.796579          2253.766219

                             ****ORCA TERMINATED NORMALLY****
TOTAL RUN TIME: 0 days 0 hours 0 minutes 18 seconds 861 msec
