                         Program Version 6.0.0  -   RELEASE  -
|  1> ! pbe def2-sv(p) def2/J RI DEFGRID1 loosescf d4 GCP(DFT/SV(P)) printgap
|  2> %output
|  3>     printlevel normal
|  4> end
|  5> * xyz 0 1
|  6> C -2.0716174702 -0.5500928644 0.1333513587
|  7> O -1.301473435 0.6250574543 -0.0338920714
|  8> C -0.003387715 0.4168505754 -0.5479976759
|  9> C 0.9647812226 -0.2063297415 0.4720634026
| 10> O 2.2817676726 -0.2715300045 -0.0200372021
| 11> H -2.0946623815 -1.1333519986 -0.7925998956
| 12> H -3.0753324921 -0.2128849477 0.3805654012
| 13> H -1.6856631666 -1.1730571064 0.9445482085
| 14> H -0.0404360098 -0.2111304193 -1.4491698788
| 15> H 0.3496066218 1.4140189381 -0.8252355227
| 16> H 0.6839451033 -1.2406664165 0.6824259192
| 17> H 0.9180026229 0.3677605524 1.4068238073
| 18> H 2.6135320058 0.624022125 -0.1755078235
| 19> *
| 20>
| 21>                          ****END OF INPUT****

CARTESIAN COORDINATES (ANGSTROEM)
---------------------------------
  C     -2.071617   -0.550093    0.133351
  O     -1.301473    0.625057   -0.033892
  C     -0.003388    0.416851   -0.547998
  C      0.964781   -0.206330    0.472063
  O      2.281768   -0.271530   -0.020037
  H     -2.094662   -1.133352   -0.792600
  H     -3.075332   -0.212885    0.380565
  H     -1.685663   -1.173057    0.944548
  H     -0.040436   -0.211130   -1.449170
  H      0.349607    1.414019   -0.825236
  H      0.683945   -1.240666    0.682426
  H      0.918003    0.367761    1.406824
  H      2.613532    0.624022   -0.175508

 Total Charge           Charge          ....    0
 Multiplicity           Mult            ....    1
 Number of Electrons    NEL             ....   42
 Basis Dimension        Dim             ....   86

ORBITAL ENERGIES
----------------

  NO   OCC          E(Eh)            E(eV)
   0   2.0000     -18.754242      -510.3289
   1   2.0000     -18.748550      -510.1740
   2   2.0000      -9.930313      -270.2176
   3   2.0000      -9.929726      -270.2016
   4   2.0000      -9.927026      -270.1281
   5   2.0000      -0.935633       -25.4599
   6   2.0000      -0.921684       -25.0803
   7   2.0000      -0.671846       -18.2818
   8   2.0000      -0.611387       -16.6367
   9   2.0000      -0.543599       -14.7921
  10   2.0000      -0.464182       -12.6310
  11   2.0000      -0.438117       -11.9218
  12   2.0000      -0.434519       -11.8239
  13   2.0000      -0.399988       -10.8842
  14   2.0000      -0.376211       -10.2372
  15   2.0000      -0.354365        -9.6427
  16   2.0000      -0.327107        -8.9010
  17   2.0000      -0.294282        -8.0078
  18   2.0000      -0.260433        -7.0867
  19   2.0000      -0.230434        -6.2704
  20   2.0000      -0.198551        -5.4028
  21   0.0000       0.024036         0.6541
  22   0.0000       0.039390         1.0719
  23   0.0000       0.068663         1.8684
  24   0.0000       0.085766         2.3338
  25   0.0000       0.094914         2.5828

MULLIKEN ATOMIC CHARGES
-----------------------
   0 C :   -0.109350
   1 O :   -0.340126
   2 C :   -0.018182
   3 C :   -0.021798
   4 O :   -0.434985
   5 H :    0.086647
   6 H :    0.116426
   7 H :    0.096696
   8 H :    0.075314
   9 H :    0.077814
  10 H :    0.093994
  11 H :    0.081061
  12 H :    0.296489
Sum of atomic charges:   -0.0000000

LOEWDIN ATOMIC CHARGES
----------------------
   0 C :   -0.207223
   1 O :   -0.180764
   2 C :   -0.140354
   3 C :   -0.145796
   4 O :   -0.336000
   5 H :    0.098861
   6 H :    0.117108
   7 H :    0.097482
   8 H :    0.097837
   9 H :    0.106006
  10 H :    0.112148
  11 H :    0.097439
  12 H :    0.283256

  Mayer bond orders larger than 0.100000
B(  0-C ,  1-O ) :   1.0165 B(  0-C ,  5-H ) :   0.9403 B(  0-C ,  6-H ) :   0.9639
B(  0-C ,  7-H ) :   0.9417 B(  1-O ,  2-C ) :   1.0329 B(  2-C ,  3-C ) :   1.0708
B(  2-C ,  8-H ) :   0.9118 B(  2-C ,  9-H ) :   0.9315 B(  3-C ,  4-O ) :   1.0590
B(  3-C , 10-H ) :   0.9249 B(  3-C , 11-H ) :   0.9227 B(  4-O , 12-H ) :   0.8534

Dispersion correction           -0.007363749
FINAL SINGLE POINT ENERGY      -268.931844532336

DIPOLE MOMENT
-------------

Method             : SCF
Type of density    : Electron Density
Multiplicity       :   1
Irrep              :   0
Energy             :  -268.9921439698405266 Eh
Relativity type    :
Basis              : AO
                                X                 Y                 Z
Electronic contribution:      2.058886274       1.568668965      -0.172645079
Nuclear contribution   :     -2.172316568      -1.463256819       0.160423571
                        -----------------------------------------
Total Dipole Moment    :     -0.113430294       0.105412146      -0.012221508
                        -----------------------------------------
Magnitude (a.u.)       :      0.155330349
Magnitude (Debye)      :      0.394818370

Rotational constants in cm-1:             0.497811             0.081072             0.075657
Rotational constants in MHz :         14923.984518          2430.490860          2268.145912

                             ****ORCA TERMINATED NORMALLY****
TOTAL RUN TIME: 0 days 0 hours 0 minutes 6 seconds 428 msec
