                         Program Version 6.0.0  -   RELEASE  -
|  1> ! pbe def2-sv(p) def2/J RI DEFGRID1 loosescf d4 GCP(DFT/SV(P)) printgap
|  2> %output
|  3>     printlevel normal
|  4> end
|  5> * xyz 0 1
|  6> C -2.7037134598 0.6299719164 -0.4902849196
|  7> C -1.7198755423 0.3640441836 0.6499790992
|  8> C -0.5104899401 -0.3739498053 0.1355035832
|  9> O -0.5368253058 -1.4633111049 -0.4005490865
| 10> O 0.605471324 0.3144147998 0.3253354342
| 11> C 1.8420991232 -0.2628660271 -0.1290673455
| 12> C 2.9243610368 0.7943584807 -0.027048652
| 13> H -3.6083266774 1.0854090593 -0.0995117755
| 14> H -2.2632493076 1.2989786786 -1.2250868809
| 15> H -2.9609917114 -0.3046098037 -0.9827416134
| 16> H -2.198612165 -0.2673273739 1.3999647825
| 17> H -1.3913759073 1.2943776252 1.1103475742
| 18> H 2.0647946133 -1.1320315254 0.4982807959
| 19> H 1.7042025935 -0.6106795663 -1.1580822366
| 20> H 3.8697062323 0.3730963536 -0.3527998207
| 21> H 2.6752545028 1.6450512353 -0.6546121151
| 22> H 3.016400277 1.1323492857 1.0007649781
| 23> *
| 24>
| 25>                          ****END OF INPUT****

CARTESIAN COORDINATES (ANGSTROEM)
---------------------------------
  C     -2.703713    0.629972   -0.490285
  C     -1.719876    0.364044    0.649979
  C     -0.510490   -0.373950    0.135504
  O     -0.536825   -1.463311   -0.400549
  O      0.605471    0.314415    0.325335
  C      1.842099   -0.262866   -0.129067
  C      2.924361    0.794358   -0.027049
  H     -3.608327    1.085409   -0.099512
  H     -2.263249    1.298979   -1.225087
  H     -2.960992   -0.304610   -0.982742
  H     -2.198612   -0.267327    1.399965
  H     -1.391376    1.294378    1.110348
  H      2.064795   -1.132032    0.498281
  H      1.704203   -0.610680   -1.158082
  H      3.869706    0.373096   -0.352800
  H      2.675255    1.645051   -0.654612
  H      3.016400    1.132349    1.000765

 Total Charge           Charge          ....    0
 Multiplicity           Mult            ....    1
 Number of Electrons    NEL             ....   56
 Basis Dimension        Dim             ....  118

ORBITAL ENERGIES
----------------

  NO   OCC          E(Eh)            E(eV)
   0   2.0000     -18.797712      -511.5117
   1   2.0000     -18.729078      -509.6441
   2   2.0000     -10.002903      -272.1928
   3   2.0000      -9.946732      -270.6643
   4   2.0000      -9.898010      -269.3385
   5   2.0000      -9.889689      -269.1121
   6   2.0000      -9.884195      -268.9626
   7   2.0000      -1.004084       -27.3225
   8   2.0000      -0.906225       -24.6596
   9   2.0000      -0.720394       -19.6029
  10   2.0000      -0.690007       -18.7761
  11   2.0000      -0.603616       -16.4252
  12   2.0000      -0.555608       -15.1189
  13   2.0000      -0.506185       -13.7740
  14   2.0000      -0.447042       -12.1646
  15   2.0000      -0.440396       -11.9838
  16   2.0000      -0.416574       -11.3356
  17   2.0000      -0.394604       -10.7377
  18   2.0000      -0.377375       -10.2689
  19   2.0000      -0.363431        -9.8894
  20   2.0000      -0.358281        -9.7493
  21   2.0000      -0.334511        -9.1025
  22   2.0000      -0.327644        -8.9157
  23   2.0000      -0.316166        -8.6033
  24   2.0000      -0.304236        -8.2787
  25   2.0000      -0.294216        -8.0060
  26   2.0000      -0.255498        -6.9524
  27   2.0000      -0.215009        -5.8507
  28   0.0000      -0.018933        -0.5152
  29   0.0000       0.041041         1.1168
  30   0.0000       0.056797         1.5455
  31   0.0000       0.082140         2.2351
  32   0.0000       0.088533         2.4091

MULLIKEN ATOMIC CHARGES
-----------------------
   0 C :   -0.298650
   1 C :   -0.145972
   2 C :    0.098812
   3 O :   -0.217674
   4 O :   -0.236837
   5 C :   -0.030453
   6 C :   -0.272738
   7 H :    0.111068
   8 H :    0.108109
   9 H :    0.123880
  10 H :    0.113249
  11 H :    0.096692
  12 H :    0.103709
  13 H :    0.107471
  14 H :    0.110998
  15 H :    0.113946
  16 H :    0.114390
Sum of atomic charges:    0.0000000

LOEWDIN ATOMIC CHARGES
----------------------
   0 C :   -0.331932
   1 C :   -0.253174
   2 C :    0.034672
   3 O :   -0.174161
   4 O :   -0.069640
   5 C :   -0.109125
   6 C :   -0.350696
   7 H :    0.122284
   8 H :    0.121316
   9 H :    0.127635
  10 H :    0.140460
  11 H :    0.127061
  12 H :    0.115986
  13 H :    0.116730
  14 H :    0.130142
  15 H :    0.126114
  16 H :    0.126329

  Mayer bond orders larger than 0.100000
B(  0-C ,  1-C ) :   1.1419 B(  0-C ,  7-H ) :   0.9534 B(  0-C ,  8-H ) :   0.9572
B(  0-C ,  9-H ) :   0.9492 B(  1-C ,  2-C ) :   1.0286 B(  1-C , 10-H ) :   0.9018
B(  1-C , 11-H ) :   0.9143 B(  2-C ,  3-O ) :   2.0427 B(  2-C ,  4-O ) :   1.2208
B(  4-O ,  5-C ) :   0.9114 B(  5-C ,  6-C ) :   1.1507 B(  5-C , 12-H ) :   0.9345
B(  5-C , 13-H ) :   0.9275 B(  6-C , 14-H ) :   0.9447 B(  6-C , 15-H ) :   0.9510
B(  6-C , 16-H ) :   0.9491

Dispersion correction           -0.011560269
FINAL SINGLE POINT ENERGY      -346.244589945480

DIPOLE MOMENT
-------------

Method             : SCF
Type of density    : Electron Density
Multiplicity       :   1
Irrep              :   0
Energy             :  -346.3092149569401954 Eh
Relativity type    :
Basis              : AO
                                X                 Y                 Z
Electronic contribution:     -0.501290639      -3.592166003       0.657454495
Nuclear contribution   :      0.852688241       4.218429036      -0.435933404
                        -----------------------------------------
Total Dipole Moment    :      0.351397601       0.626263033       0.221521091
                        -----------------------------------------
Magnitude (a.u.)       :      0.751503330
Magnitude (Debye)      :      1.910169660

Rotational constants in cm-1:             0.200885             0.045193             0.040331
Rotational constants in MHz :          6022.370059          1354.861272          1209.088371

                             ****ORCA TERMINATED NORMALLY****
TOTAL RUN TIME: 0 days 0 hours 0 minutes 8 seconds 390 msec
