                         Program Version 6.0.0  -   RELEASE  -
|  1> ! r2scan-3c def2/J RI DEFGRID2 scfconv6 printgap
|  2> %output
|  3>     printlevel normal
|  4> end
|  5> * xyz 0 1
|  6> C 2.1922800633 0.7352620561 0.1973589021
|  7> C 1.6331037928 -0.5259942854 -0.4508470185
|  8> C 0.2685048416 -0.937669736 0.1056674815
|  9> C -0.8834761157 -0.0023108149 -0.2941631917
| 10> H -0.7777109383 0.2706054841 -1.3507062321
| 11> C -2.233922157 -0.6908530581 -0.0822209675
| 12> O -0.8438566696 1.2388177669 0.3889913486
| 13> H 1.504874572 1.56638498 0.065272137
| 14> H 3.1470906855 0.999128165 -0.2513456318
| 15> H 2.3459303551 0.5788548537 1.2629366891
| 16> H 1.5438311727 -0.370193527 -1.5283502703
| 17> H 2.3346709076 -1.3487594587 -0.2927519059
| 18> H 0.0284413675 -1.9347857796 -0.2670557318
| 19> H 0.3220787299 -0.9905494489 1.1957784796
| 20> H -2.3242920831 -1.0367556869 0.9455280603
| 21> H -3.039818802 0.0090055847 -0.2898125097
| 22> H -2.3306136273 -1.5430547181 -0.7479334913
| 23> H -0.9958020092 1.0757285451 1.3304669961
| 24> *
| 25>
| 26>                          ****END OF INPUT****

CARTESIAN COORDINATES (ANGSTROEM)
---------------------------------
  C      2.192280    0.735262    0.197359
  C      1.633104   -0.525994   -0.450847
  C      0.268505   -0.937670    0.105667
  C     -0.883476   -0.002311   -0.294163
  H     -0.777711    0.270605   -1.350706
  C     -2.233922   -0.690853   -0.082221
  O     -0.843857    1.238818    0.388991
  H      1.504875    1.566385    0.065272
  H      3.147091    0.999128   -0.251346
  H      2.345930    0.578855    1.262937
  H      1.543831   -0.370194   -1.528350
  H      2.334671   -1.348759   -0.292752
  H      0.028441   -1.934786   -0.267056
  H      0.322079   -0.990549    1.195778
  H     -2.324292   -1.036756    0.945528
  H     -3.039819    0.009006   -0.289813
  H     -2.330614   -1.543055   -0.747933
  H     -0.995802    1.075729    1.330467

 Total Charge           Charge          ....    0
 Multiplicity           Mult            ....    1
 Number of Electrons    NEL             ....   50
 Basis Dimension        Dim             ....  179

ORBITAL ENERGIES
----------------

  NO   OCC          E(Eh)            E(eV)
   0   2.0000     -18.944391      -515.5031
   1   2.0000     -10.080398      -274.3016
   2   2.0000     -10.024421      -272.7784
   3   2.0000     -10.022372      -272.7226
   4   2.0000     -10.019482      -272.6440
   5   2.0000     -10.004951      -272.2486
   6   2.0000      -0.984037       -26.7770
   7   2.0000      -0.760320       -20.6894
   8   2.0000      -0.711710       -19.3666
   9   2.0000      -0.644437       -17.5360
  10   2.0000      -0.579886       -15.7795
  11   2.0000      -0.546380       -14.8677
  12   2.0000      -0.452596       -12.3158
  13   2.0000      -0.430845       -11.7239
  14   2.0000      -0.421260       -11.4631
  15   2.0000      -0.398919       -10.8551
  16   2.0000      -0.381009       -10.3678
  17   2.0000      -0.359795        -9.7905
  18   2.0000      -0.344635        -9.3780
  19   2.0000      -0.335273        -9.1232
  20   2.0000      -0.309697        -8.4273
  21   2.0000      -0.301430        -8.2023
  22   2.0000      -0.299099        -8.1389
  23   2.0000      -0.281055        -7.6479
  24   2.0000      -0.228049        -6.2055
  25   0.0000       0.065415         1.7800
  26   0.0000       0.101190         2.7535
  27   0.0000       0.112543         3.0625
  28   0.0000       0.116979         3.1832
  29   0.0000       0.134642         3.6638

MULLIKEN ATOMIC CHARGES
-----------------------
   0 C :   -0.502888
   1 C :   -0.232845
   2 C :   -0.237095
   3 C :   -0.027199
   4 H :    0.138958
   5 C :   -0.484792
   6 O :   -0.400385
   7 H :    0.184679
   8 H :    0.140159
   9 H :    0.135580
  10 H :    0.130809
  11 H :    0.141615
  12 H :    0.141655
  13 H :    0.134588
  14 H :    0.137997
  15 H :    0.163841
  16 H :    0.146222
  17 H :    0.289101
Sum of atomic charges:    0.0000000

LOEWDIN ATOMIC CHARGES
----------------------
   0 C :   -0.427384
   1 C :   -0.312221
   2 C :   -0.291577
   3 C :    0.042027
   4 H :    0.179455
   5 C :   -0.401507
   6 O :   -0.613960
   7 H :    0.168882
   8 H :    0.146586
   9 H :    0.147516
  10 H :    0.152334
  11 H :    0.150264
  12 H :    0.161670
  13 H :    0.159338
  14 H :    0.153762
  15 H :    0.161390
  16 H :    0.156958
  17 H :    0.266469

  Mayer bond orders larger than 0.100000
B(  0-C ,  1-C ) :   0.8957 B(  0-C ,  7-H ) :   0.9745 B(  0-C ,  8-H ) :   0.9716
B(  0-C ,  9-H ) :   0.9840 B(  1-C ,  2-C ) :   0.9000 B(  1-C , 10-H ) :   0.9837
B(  1-C , 11-H ) :   0.9725 B(  2-C ,  3-C ) :   0.9140 B(  2-C , 12-H ) :   0.9666
B(  2-C , 13-H ) :   0.9718 B(  3-C ,  4-H ) :   0.9656 B(  3-C ,  5-C ) :   0.9354
B(  3-C ,  6-O ) :   0.9323 B(  5-C , 14-H ) :   0.9699 B(  5-C , 15-H ) :   0.9771
B(  5-C , 16-H ) :   0.9742 B(  6-O , 17-H ) :   0.8969

Dispersion correction           -0.004290533
FINAL SINGLE POINT ENERGY      -272.900685252968

DIPOLE MOMENT
-------------

Method             : SCF
Type of density    : Electron Density
Multiplicity       :   1
Irrep              :   0
Energy             :  -272.9060257795523512 Eh
Relativity type    :
Basis              : AO
                                X                 Y                 Z
Electronic contribution:     -1.765268505       1.992890109       0.146196176
Nuclear contribution   :      1.637406706      -2.537539936       0.073345533
                        -----------------------------------------
Total Dipole Moment    :     -0.127861799      -0.544649827       0.219541709
                        -----------------------------------------
Magnitude (a.u.)       :      0.600991378
Magnitude (Debye)      :      1.527598682

Rotational constants in cm-1:             0.206148             0.072055             0.058349
Rotational constants in MHz :          6180.159357          2160.166263          1749.268433

                             ****ORCA TERMINATED NORMALLY****
TOTAL RUN TIME: 0 days 0 hours 0 minutes 22 seconds 996 msec
