                         Program Version 6.0.0  -   RELEASE  -
|  1> ! r2scan-3c def2/J RI DEFGRID2 scfconv6 printgap
|  2> %output
|  3>     printlevel normal
|  4> end
|  5> %cpcm
|  6>     smd true
|  7>     smdsolvent "water"
|  8> end
|  9> * xyz 0 1
| 10> C 2.1922800633 0.7352620561 0.1973589021
| 11> C 1.6331037928 -0.5259942854 -0.4508470185
| 12> C 0.2685048416 -0.937669736 0.1056674815
| 13> C -0.8834761157 -0.0023108149 -0.2941631917
| 14> H -0.7777109383 0.2706054841 -1.3507062321
| 15> C -2.233922157 -0.6908530581 -0.0822209675
| 16> O -0.8438566696 1.2388177669 0.3889913486
| 17> H 1.504874572 1.56638498 0.065272137
| 18> H 3.1470906855 0.999128165 -0.2513456318
| 19> H 2.3459303551 0.5788548537 1.2629366891
| 20> H 1.5438311727 -0.370193527 -1.5283502703
| 21> H 2.3346709076 -1.3487594587 -0.2927519059
| 22> H 0.0284413675 -1.9347857796 -0.2670557318
| 23> H 0.3220787299 -0.9905494489 1.1957784796
| 24> H -2.3242920831 -1.0367556869 0.9455280603
| 25> H -3.039818802 0.0090055847 -0.2898125097
| 26> H -2.3306136273 -1.5430547181 -0.7479334913
| 27> H -0.9958020092 1.0757285451 1.3304669961
| 28> *
| 29>
| 30>                          ****END OF INPUT****

CARTESIAN COORDINATES (ANGSTROEM)
---------------------------------
  C      2.192280    0.735262    0.197359
  C      1.633104   -0.525994   -0.450847
  C      0.268505   -0.937670    0.105667
  C     -0.883476   -0.002311   -0.294163
  H     -0.777711    0.270605   -1.350706
  C     -2.233922   -0.690853   -0.082221
  O     -0.843857    1.238818    0.388991
  H      1.504875    1.566385    0.065272
  H      3.147091    0.999128   -0.251346
  H      2.345930    0.578855    1.262937
  H      1.543831   -0.370194   -1.528350
  H      2.334671   -1.348759   -0.292752
  H      0.028441   -1.934786   -0.267056
  H      0.322079   -0.990549    1.195778
  H     -2.324292   -1.036756    0.945528
  H     -3.039819    0.009006   -0.289813
  H     -2.330614   -1.543055   -0.747933
  H     -0.995802    1.075729    1.330467

 Total Charge           Charge          ....    0
 Multiplicity           Mult            ....    1
 Number of Electrons    NEL             ....   50
 Basis Dimension        Dim             ....  179

ORBITAL ENERGIES
----------------

  NO   OCC          E(Eh)            E(eV)
   0   2.0000     -18.945056      -515.5212
   1   2.0000     -10.073365      -274.1102
   2   2.0000     -10.015625      -272.5390
   3   2.0000     -10.013897      -272.4920
   4   2.0000     -10.008427      -272.3431
   5   2.0000     -10.003533      -272.2100
   6   2.0000      -0.983584       -26.7647
   7   2.0000      -0.753020       -20.4907
   8   2.0000      -0.704803       -19.1787
   9   2.0000      -0.637698       -17.3526
  10   2.0000      -0.573986       -15.6190
  11   2.0000      -0.540237       -14.7006
  12   2.0000      -0.445550       -12.1240
  13   2.0000      -0.426229       -11.5983
  14   2.0000      -0.415480       -11.3058
  15   2.0000      -0.392539       -10.6815
  16   2.0000      -0.374050       -10.1784
  17   2.0000      -0.351427        -9.5628
  18   2.0000      -0.340549        -9.2668
  19   2.0000      -0.330525        -8.9941
  20   2.0000      -0.306401        -8.3376
  21   2.0000      -0.296600        -8.0709
  22   2.0000      -0.292039        -7.9468
  23   2.0000      -0.276415        -7.5216
  24   2.0000      -0.228327        -6.2131
  25   0.0000       0.080749         2.1973
  26   0.0000       0.111148         3.0245
  27   0.0000       0.123116         3.3502
  28   0.0000       0.124724         3.3939
  29   0.0000       0.139023         3.7830

MULLIKEN ATOMIC CHARGES
-----------------------
   0 C :   -0.535947
   1 C :   -0.252593
   2 C :   -0.258198
   3 C :    0.002097
   4 H :    0.149960
   5 C :   -0.529771
   6 O :   -0.483497
   7 H :    0.169232
   8 H :    0.151289
   9 H :    0.153158
  10 H :    0.142927
  11 H :    0.151298
  12 H :    0.155017
  13 H :    0.154911
  14 H :    0.160154
  15 H :    0.161810
  16 H :    0.163662
  17 H :    0.344491
Sum of atomic charges:    0.0000000

LOEWDIN ATOMIC CHARGES
----------------------
   0 C :   -0.435936
   1 C :   -0.315067
   2 C :   -0.290751
   3 C :    0.043700
   4 H :    0.182196
   5 C :   -0.406074
   6 O :   -0.648766
   7 H :    0.161292
   8 H :    0.148806
   9 H :    0.152000
  10 H :    0.154866
  11 H :    0.153198
  12 H :    0.166827
  13 H :    0.166180
  14 H :    0.160944
  15 H :    0.159866
  16 H :    0.162579
  17 H :    0.284141

  Mayer bond orders larger than 0.100000
B(  0-C ,  1-C ) :   0.8875 B(  0-C ,  7-H ) :   0.9786 B(  0-C ,  8-H ) :   0.9705
B(  0-C ,  9-H ) :   0.9797 B(  1-C ,  2-C ) :   0.8912 B(  1-C , 10-H ) :   0.9854
B(  1-C , 11-H ) :   0.9713 B(  2-C ,  3-C ) :   0.9085 B(  2-C , 12-H ) :   0.9639
B(  2-C , 13-H ) :   0.9733 B(  3-C ,  4-H ) :   0.9672 B(  3-C ,  5-C ) :   0.9224
B(  3-C ,  6-O ) :   0.9183 B(  5-C , 14-H ) :   0.9700 B(  5-C , 15-H ) :   0.9747
B(  5-C , 16-H ) :   0.9696 B(  6-O , 17-H ) :   0.8703

Dispersion correction           -0.004290533
FINAL SINGLE POINT ENERGY      -272.905860998742

DIPOLE MOMENT
-------------

Method             : SCF
Type of density    : Electron Density
Multiplicity       :   1
Irrep              :   0
Energy             :  -272.9112015253269874 Eh
Relativity type    :
Basis              : AO
                                X                 Y                 Z
Electronic contribution:     -1.781714045       1.711420410       0.268979262
Nuclear contribution   :      1.637406706      -2.537539936       0.073345533
                        -----------------------------------------
Total Dipole Moment    :     -0.144307340      -0.826119527       0.342324796
                        -----------------------------------------
Magnitude (a.u.)       :      0.905805910
Magnitude (Debye)      :      2.302375650

Rotational constants in cm-1:             0.206148             0.072055             0.058349
Rotational constants in MHz :          6180.159357          2160.166263          1749.268433

                             ****ORCA TERMINATED NORMALLY****
TOTAL RUN TIME: 0 days 0 hours 0 minutes 26 seconds 918 msec
