                         Program Version 6.0.0  -   RELEASE  -
|  1> ! r2scan-3c def2/J RI DEFGRID2 scfconv6 printgap
|  2> %output
|  3>     printlevel normal
|  4> end
|  5> %cpcm
|  6>     smd true
|  7>     smdsolvent "water"
|  8> end
|  9> * xyz 0 1
| 10> C 1.8086662277 -1.3826446108 0.0936982971
| 11> C 0.8560156355 -0.19988852 0.2634701272
| 12> C 1.6232372028 1.1110213475 0.1015939434
| 13> C -0.2920745416 -0.3095604499 -0.749061248
| 14> C -1.4882692244 0.5977162178 -0.4506821574
| 15> O -2.2863635781 0.139882109 0.622786987
| 16> H 2.222389305 -1.3912426748 -0.9121749619
| 17> H 1.2890120684 -2.3234129122 0.2594814633
| 18> H 2.6302742195 -1.3148572923 0.8026371621
| 19> H 0.4441306311 -0.2399911545 1.2783495836
| 20> H 2.0620111892 1.1685566916 -0.8921025648
| 21> H 2.4243957103 1.171742636 0.8344670056
| 22> H 0.9728166468 1.9709255603 0.2389629665
| 23> H -0.6579633145 -1.3385702924 -0.7716184468
| 24> H 0.0851241502 -0.0651093101 -1.7431624887
| 25> H -1.158113433 1.6267188601 -0.2591712167
| 26> H -2.1609327527 0.6114354021 -1.3117615968
| 27> H -1.7418352585 0.0883439101 1.4201402449
| 28> *
| 29>
| 30>                          ****END OF INPUT****

CARTESIAN COORDINATES (ANGSTROEM)
---------------------------------
  C      1.808666   -1.382645    0.093698
  C      0.856016   -0.199889    0.263470
  C      1.623237    1.111021    0.101594
  C     -0.292075   -0.309560   -0.749061
  C     -1.488269    0.597716   -0.450682
  O     -2.286364    0.139882    0.622787
  H      2.222389   -1.391243   -0.912175
  H      1.289012   -2.323413    0.259481
  H      2.630274   -1.314857    0.802637
  H      0.444131   -0.239991    1.278350
  H      2.062011    1.168557   -0.892103
  H      2.424396    1.171743    0.834467
  H      0.972817    1.970926    0.238963
  H     -0.657963   -1.338570   -0.771618
  H      0.085124   -0.065109   -1.743162
  H     -1.158113    1.626719   -0.259171
  H     -2.160933    0.611435   -1.311762
  H     -1.741835    0.088344    1.420140

 Total Charge           Charge          ....    0
 Multiplicity           Mult            ....    1
 Number of Electrons    NEL             ....   50
 Basis Dimension        Dim             ....  179

ORBITAL ENERGIES
----------------

  NO   OCC          E(Eh)            E(eV)
   0   2.0000     -18.949415      -515.6398
   1   2.0000     -10.066218      -273.9157
   2   2.0000     -10.026577      -272.8370
   3   2.0000     -10.015041      -272.5231
   4   2.0000     -10.006520      -272.2912
   5   2.0000     -10.006295      -272.2851
   6   2.0000      -0.984828       -26.7985
   7   2.0000      -0.768328       -20.9073
   8   2.0000      -0.684641       -18.6300
   9   2.0000      -0.642035       -17.4707
  10   2.0000      -0.590170       -16.0593
  11   2.0000      -0.518299       -14.1036
  12   2.0000      -0.468027       -12.7357
  13   2.0000      -0.432706       -11.7745
  14   2.0000      -0.412857       -11.2344
  15   2.0000      -0.389014       -10.5856
  16   2.0000      -0.375061       -10.2059
  17   2.0000      -0.359359        -9.7787
  18   2.0000      -0.345517        -9.4020
  19   2.0000      -0.322681        -8.7806
  20   2.0000      -0.312588        -8.5060
  21   2.0000      -0.291816        -7.9407
  22   2.0000      -0.286968        -7.8088
  23   2.0000      -0.272735        -7.4215
  24   2.0000      -0.237563        -6.4644
  25   0.0000       0.070262         1.9119
  26   0.0000       0.104712         2.8494
  27   0.0000       0.119464         3.2508
  28   0.0000       0.131774         3.5858
  29   0.0000       0.135411         3.6847

MULLIKEN ATOMIC CHARGES
-----------------------
   0 C :   -0.515669
   1 C :   -0.003955
   2 C :   -0.544141
   3 C :   -0.277224
   4 C :   -0.195183
   5 O :   -0.510147
   6 H :    0.155603
   7 H :    0.158381
   8 H :    0.158053
   9 H :    0.143960
  10 H :    0.163065
  11 H :    0.157016
  12 H :    0.156363
  13 H :    0.157940
  14 H :    0.153183
  15 H :    0.140303
  16 H :    0.153461
  17 H :    0.348991
Sum of atomic charges:   -0.0000000

LOEWDIN ATOMIC CHARGES
----------------------
   0 C :   -0.423913
   1 C :   -0.245636
   2 C :   -0.424921
   3 C :   -0.295598
   4 C :    0.000806
   5 O :   -0.660912
   6 H :    0.156590
   7 H :    0.155366
   8 H :    0.154956
   9 H :    0.156673
  10 H :    0.156380
  11 H :    0.155964
  12 H :    0.154940
  13 H :    0.166735
  14 H :    0.168828
  15 H :    0.163853
  16 H :    0.178895
  17 H :    0.280994

  Mayer bond orders larger than 0.100000
B(  0-C ,  1-C ) :   0.8948 B(  0-C ,  6-H ) :   0.9798 B(  0-C ,  7-H ) :   0.9776
B(  0-C ,  8-H ) :   0.9755 B(  1-C ,  2-C ) :   0.8997 B(  1-C ,  3-C ) :   0.8868
B(  1-C ,  9-H ) :   0.9598 B(  2-C , 10-H ) :   0.9872 B(  2-C , 11-H ) :   0.9697
B(  2-C , 12-H ) :   0.9686 B(  3-C ,  4-C ) :   0.9244 B(  3-C , 13-H ) :   0.9725
B(  3-C , 14-H ) :   0.9569 B(  4-C ,  5-O ) :   0.9469 B(  4-C , 15-H ) :   0.9813
B(  4-C , 16-H ) :   0.9742 B(  5-O , 17-H ) :   0.8658

Dispersion correction           -0.004360314
FINAL SINGLE POINT ENERGY      -272.904457542344

DIPOLE MOMENT
-------------

Method             : SCF
Type of density    : Electron Density
Multiplicity       :   1
Irrep              :   0
Energy             :  -272.9100251088998448 Eh
Relativity type    :
Basis              : AO
                                X                 Y                 Z
Electronic contribution:     -5.109020189       0.186783166       1.052691650
Nuclear contribution   :      5.980926396      -0.031191909      -0.981414116
                        -----------------------------------------
Total Dipole Moment    :      0.871906207       0.155591257       0.071277533
                        -----------------------------------------
Magnitude (a.u.)       :      0.888543505
Magnitude (Debye)      :      2.258498104

Rotational constants in cm-1:             0.191660             0.064907             0.058057
Rotational constants in MHz :          5745.820921          1945.869005          1740.511237

                             ****ORCA TERMINATED NORMALLY****
TOTAL RUN TIME: 0 days 0 hours 0 minutes 27 seconds 674 msec
