                         Program Version 6.0.0  -   RELEASE  -
|  1> ! r2scan-3c def2/J RI DEFGRID2 scfconv6 printgap
|  2> %output
|  3>     printlevel normal
|  4> end
|  5> * xyz 0 1
|  6> C 2.1830234928 -0.7731839862 0.5446535472
|  7> C 1.4214151705 0.4282599066 -0.0055948382
|  8> C 0.3238539087 0.0492719013 -1.0086854288
|  9> C -1.0871037933 -0.0169431971 -0.4085412484
| 10> H -1.7784977963 -0.2862682323 -1.2268787126
| 11> C -1.2298373958 -1.0517518682 0.7059836913
| 12> O -1.4127235789 1.287242421 0.0499063607
| 13> H 2.6705266613 -1.3112561133 -0.2655865879
| 14> H 1.5225652592 -1.4616657641 1.0627991303
| 15> H 2.9485795265 -0.4419659766 1.2427296443
| 16> H 0.971607969 0.9977492986 0.8091070081
| 17> H 2.1367504718 1.0882506236 -0.5001305377
| 18> H 0.2870784298 0.802103218 -1.7982494601
| 19> H 0.5515480611 -0.9119504161 -1.47042525
| 20> H -2.2713774929 -1.1376088631 1.0094702437
| 21> H -0.892838662 -2.0222548343 0.3543682348
| 22> H -0.6411790892 -0.756387582 1.570031218
| 23> H -2.2814394286 1.266305097 0.4724471056
| 24> *
| 25>
| 26>                          ****END OF INPUT****

CARTESIAN COORDINATES (ANGSTROEM)
---------------------------------
  C      2.183023   -0.773184    0.544654
  C      1.421415    0.428260   -0.005595
  C      0.323854    0.049272   -1.008685
  C     -1.087104   -0.016943   -0.408541
  H     -1.778498   -0.286268   -1.226879
  C     -1.229837   -1.051752    0.705984
  O     -1.412724    1.287242    0.049906
  H      2.670527   -1.311256   -0.265587
  H      1.522565   -1.461666    1.062799
  H      2.948580   -0.441966    1.242730
  H      0.971608    0.997749    0.809107
  H      2.136750    1.088251   -0.500131
  H      0.287078    0.802103   -1.798249
  H      0.551548   -0.911950   -1.470425
  H     -2.271377   -1.137609    1.009470
  H     -0.892839   -2.022255    0.354368
  H     -0.641179   -0.756388    1.570031
  H     -2.281439    1.266305    0.472447

 Total Charge           Charge          ....    0
 Multiplicity           Mult            ....    1
 Number of Electrons    NEL             ....   50
 Basis Dimension        Dim             ....  179

ORBITAL ENERGIES
----------------

  NO   OCC          E(Eh)            E(eV)
   0   2.0000     -18.944600      -515.5088
   1   2.0000     -10.080396      -274.3015
   2   2.0000     -10.020629      -272.6752
   3   2.0000     -10.020288      -272.6659
   4   2.0000     -10.017638      -272.5938
   5   2.0000     -10.011974      -272.4397
   6   2.0000      -0.982574       -26.7372
   7   2.0000      -0.759954       -20.6794
   8   2.0000      -0.707428       -19.2501
   9   2.0000      -0.653340       -17.7783
  10   2.0000      -0.576925       -15.6989
  11   2.0000      -0.529717       -14.4143
  12   2.0000      -0.473715       -12.8904
  13   2.0000      -0.436231       -11.8704
  14   2.0000      -0.410929       -11.1820
  15   2.0000      -0.390087       -10.6148
  16   2.0000      -0.381430       -10.3792
  17   2.0000      -0.358718        -9.7612
  18   2.0000      -0.351580        -9.5670
  19   2.0000      -0.337158        -9.1745
  20   2.0000      -0.309321        -8.4171
  21   2.0000      -0.300366        -8.1734
  22   2.0000      -0.290991        -7.9183
  23   2.0000      -0.274907        -7.4806
  24   2.0000      -0.232686        -6.3317
  25   0.0000       0.060610         1.6493
  26   0.0000       0.100787         2.7426
  27   0.0000       0.114244         3.1087
  28   0.0000       0.125624         3.4184
  29   0.0000       0.130596         3.5537

MULLIKEN ATOMIC CHARGES
-----------------------
   0 C :   -0.488733
   1 C :   -0.270817
   2 C :   -0.245619
   3 C :    0.037814
   4 H :    0.130341
   5 C :   -0.525802
   6 O :   -0.426056
   7 H :    0.145259
   8 H :    0.147250
   9 H :    0.144789
  10 H :    0.171064
  11 H :    0.139618
  12 H :    0.152108
  13 H :    0.139583
  14 H :    0.138428
  15 H :    0.155778
  16 H :    0.169954
  17 H :    0.285039
Sum of atomic charges:   -0.0000000

LOEWDIN ATOMIC CHARGES
----------------------
   0 C :   -0.426730
   1 C :   -0.314685
   2 C :   -0.276225
   3 C :    0.047973
   4 H :    0.160359
   5 C :   -0.404866
   6 O :   -0.622853
   7 H :    0.147810
   8 H :    0.148905
   9 H :    0.150276
  10 H :    0.166641
  11 H :    0.153957
  12 H :    0.167631
  13 H :    0.160526
  14 H :    0.150866
  15 H :    0.160170
  16 H :    0.161769
  17 H :    0.268473

  Mayer bond orders larger than 0.100000
B(  0-C ,  1-C ) :   0.8928 B(  0-C ,  7-H ) :   0.9868 B(  0-C ,  8-H ) :   0.9752
B(  0-C ,  9-H ) :   0.9735 B(  1-C ,  2-C ) :   0.8451 B(  1-C , 10-H ) :   0.9786
B(  1-C , 11-H ) :   0.9637 B(  2-C ,  3-C ) :   0.9589 B(  2-C , 12-H ) :   0.9653
B(  2-C , 13-H ) :   0.9779 B(  3-C ,  4-H ) :   0.9669 B(  3-C ,  5-C ) :   0.8944
B(  3-C ,  6-O ) :   0.9232 B(  5-C , 14-H ) :   0.9648 B(  5-C , 15-H ) :   0.9715
B(  5-C , 16-H ) :   0.9779 B(  6-O , 17-H ) :   0.9036

Dispersion correction           -0.004404666
FINAL SINGLE POINT ENERGY      -272.899234946265

DIPOLE MOMENT
-------------

Method             : SCF
Type of density    : Electron Density
Multiplicity       :   1
Irrep              :   0
Energy             :  -272.9044534806963611 Eh
Relativity type    :
Basis              : AO
                                X                 Y                 Z
Electronic contribution:     -3.338147833       3.465703656      -1.110844540
Nuclear contribution   :      3.003039798      -3.897682553       1.182528502
                        -----------------------------------------
Total Dipole Moment    :     -0.335108035      -0.431978897       0.071683962
                        -----------------------------------------
Magnitude (a.u.)       :      0.551399813
Magnitude (Debye)      :      1.401546941

Rotational constants in cm-1:             0.174546             0.075972             0.064885
Rotational constants in MHz :          5232.745969          2277.578723          1945.215049

                             ****ORCA TERMINATED NORMALLY****
TOTAL RUN TIME: 0 days 0 hours 0 minutes 22 seconds 290 msec
