                         Program Version 6.0.0  -   RELEASE  -
|  1> ! r2scan-3c def2/J RI DEFGRID2 scfconv6 printgap
|  2> %output
|  3>     printlevel normal
|  4> end
|  5> %cpcm
|  6>     smd true
|  7>     smdsolvent "water"
|  8> end
|  9> * xyz 0 1
| 10> C 2.1830234928 -0.7731839862 0.5446535472
| 11> C 1.4214151705 0.4282599066 -0.0055948382
| 12> C 0.3238539087 0.0492719013 -1.0086854288
| 13> C -1.0871037933 -0.0169431971 -0.4085412484
| 14> H -1.7784977963 -0.2862682323 -1.2268787126
| 15> C -1.2298373958 -1.0517518682 0.7059836913
| 16> O -1.4127235789 1.287242421 0.0499063607
| 17> H 2.6705266613 -1.3112561133 -0.2655865879
| 18> H 1.5225652592 -1.4616657641 1.0627991303
| 19> H 2.9485795265 -0.4419659766 1.2427296443
| 20> H 0.971607969 0.9977492986 0.8091070081
| 21> H 2.1367504718 1.0882506236 -0.5001305377
| 22> H 0.2870784298 0.802103218 -1.7982494601
| 23> H 0.5515480611 -0.9119504161 -1.47042525
| 24> H -2.2713774929 -1.1376088631 1.0094702437
| 25> H -0.892838662 -2.0222548343 0.3543682348
| 26> H -0.6411790892 -0.756387582 1.570031218
| 27> H -2.2814394286 1.266305097 0.4724471056
| 28> *
| 29>
| 30>                          ****END OF INPUT****

CARTESIAN COORDINATES (ANGSTROEM)
---------------------------------
  C      2.183023   -0.773184    0.544654
  C      1.421415    0.428260   -0.005595
  C      0.323854    0.049272   -1.008685
  C     -1.087104   -0.016943   -0.408541
  H     -1.778498   -0.286268   -1.226879
  C     -1.229837   -1.051752    0.705984
  O     -1.412724    1.287242    0.049906
  H      2.670527   -1.311256   -0.265587
  H      1.522565   -1.461666    1.062799
  H      2.948580   -0.441966    1.242730
  H      0.971608    0.997749    0.809107
  H      2.136750    1.088251   -0.500131
  H      0.287078    0.802103   -1.798249
  H      0.551548   -0.911950   -1.470425
  H     -2.271377   -1.137609    1.009470
  H     -0.892839   -2.022255    0.354368
  H     -0.641179   -0.756388    1.570031
  H     -2.281439    1.266305    0.472447

 Total Charge           Charge          ....    0
 Multiplicity           Mult            ....    1
 Number of Electrons    NEL             ....   50
 Basis Dimension        Dim             ....  179

ORBITAL ENERGIES
----------------

  NO   OCC          E(Eh)            E(eV)
   0   2.0000     -18.947472      -515.5869
   1   2.0000     -10.074954      -274.1534
   2   2.0000     -10.015339      -272.5312
   3   2.0000     -10.015181      -272.5269
   4   2.0000     -10.008949      -272.3574
   5   2.0000     -10.006484      -272.2903
   6   2.0000      -0.984312       -26.7845
   7   2.0000      -0.755540       -20.5593
   8   2.0000      -0.700805       -19.0699
   9   2.0000      -0.646679       -17.5970
  10   2.0000      -0.572554       -15.5800
  11   2.0000      -0.526377       -14.3234
  12   2.0000      -0.469158       -12.7664
  13   2.0000      -0.430967       -11.7272
  14   2.0000      -0.407531       -11.0895
  15   2.0000      -0.384437       -10.4611
  16   2.0000      -0.375805       -10.2262
  17   2.0000      -0.353529        -9.6200
  18   2.0000      -0.343400        -9.3444
  19   2.0000      -0.331519        -9.0211
  20   2.0000      -0.308208        -8.3868
  21   2.0000      -0.297647        -8.0994
  22   2.0000      -0.288401        -7.8478
  23   2.0000      -0.271062        -7.3760
  24   2.0000      -0.235399        -6.4055
  25   0.0000       0.076005         2.0682
  26   0.0000       0.108983         2.9656
  27   0.0000       0.122061         3.3215
  28   0.0000       0.133859         3.6425
  29   0.0000       0.137805         3.7499

MULLIKEN ATOMIC CHARGES
-----------------------
   0 C :   -0.522753
   1 C :   -0.274546
   2 C :   -0.267080
   3 C :    0.049232
   4 H :    0.141706
   5 C :   -0.555954
   6 O :   -0.512657
   7 H :    0.157393
   8 H :    0.159685
   9 H :    0.153075
  10 H :    0.159549
  11 H :    0.150176
  12 H :    0.158755
  13 H :    0.159261
  14 H :    0.161177
  15 H :    0.170380
  16 H :    0.172514
  17 H :    0.340087
Sum of atomic charges:   -0.0000000

LOEWDIN ATOMIC CHARGES
----------------------
   0 C :   -0.432470
   1 C :   -0.318787
   2 C :   -0.281176
   3 C :    0.050184
   4 H :    0.166847
   5 C :   -0.406712
   6 O :   -0.659001
   7 H :    0.151577
   8 H :    0.153018
   9 H :    0.151870
  10 H :    0.161516
  11 H :    0.155865
  12 H :    0.166295
  13 H :    0.167767
  14 H :    0.158645
  15 H :    0.165396
  16 H :    0.162527
  17 H :    0.286641

  Mayer bond orders larger than 0.100000
B(  0-C ,  1-C ) :   0.8941 B(  0-C ,  7-H ) :   0.9838 B(  0-C ,  8-H ) :   0.9727
B(  0-C ,  9-H ) :   0.9715 B(  1-C ,  2-C ) :   0.8313 B(  1-C , 10-H ) :   0.9807
B(  1-C , 11-H ) :   0.9648 B(  2-C ,  3-C ) :   0.9465 B(  2-C , 12-H ) :   0.9703
B(  2-C , 13-H ) :   0.9733 B(  3-C ,  4-H ) :   0.9637 B(  3-C ,  5-C ) :   0.9057
B(  3-C ,  6-O ) :   0.9084 B(  5-C , 14-H ) :   0.9609 B(  5-C , 15-H ) :   0.9680
B(  5-C , 16-H ) :   0.9723 B(  6-O , 17-H ) :   0.8781

Dispersion correction           -0.004404666
FINAL SINGLE POINT ENERGY      -272.905135812366

DIPOLE MOMENT
-------------

Method             : SCF
Type of density    : Electron Density
Multiplicity       :   1
Irrep              :   0
Energy             :  -272.9103543467973054 Eh
Relativity type    :
Basis              : AO
                                X                 Y                 Z
Electronic contribution:     -3.480171848       3.201779682      -1.097882691
Nuclear contribution   :      3.003039798      -3.897682553       1.182528502
                        -----------------------------------------
Total Dipole Moment    :     -0.477132050      -0.695902871       0.084645811
                        -----------------------------------------
Magnitude (a.u.)       :      0.847998061
Magnitude (Debye)      :      2.155439776

Rotational constants in cm-1:             0.174546             0.075972             0.064885
Rotational constants in MHz :          5232.745969          2277.578723          1945.215049

                             ****ORCA TERMINATED NORMALLY****
TOTAL RUN TIME: 0 days 0 hours 0 minutes 27 seconds 348 msec
