                         Program Version 6.0.0  -   RELEASE  -
|  1> ! pbe def2-sv(p) def2/J RI DEFGRID1 loosescf d4 GCP(DFT/SV(P)) printgap
|  2> %output
|  3>     printlevel normal
|  4> end
|  5> * xyz 0 1
|  6> C 2.7326511338 -0.2655400007 0.100872553
|  7> C 1.2648763057 -0.1382103203 0.4937067788
|  8> C 0.3648909238 -0.1374043959 -0.7415797025
|  9> C -1.134369075 0.0576348555 -0.4549469318
| 10> H -1.6655425007 0.0105141709 -1.4139117112
| 11> C -1.7042112942 -1.0103740412 0.4779206427
| 12> O -1.4170537362 1.3628416168 0.0219522312
| 13> H 3.365189405 -0.2688741137 0.9851876633
| 14> H 3.0319636507 0.5659687427 -0.5333360694
| 15> H 2.9007900962 -1.1902411783 -0.4464133435
| 16> H 1.0003838741 -0.9713791583 1.1462808026
| 17> H 1.1285941591 0.7909659651 1.0509522173
| 18> H 0.6802876071 0.669243538 -1.4078404116
| 19> H 0.4864916055 -1.0802451807 -1.277391412
| 20> H -1.2602680216 -0.934911998 1.4673706678
| 21> H -2.7791135946 -0.8770515068 0.572201374
| 22> H -1.5061139841 -1.9990347651 0.0752629444
| 23> H -1.0477169657 1.4538236359 0.9111756091
| 24> *
| 25>
| 26>                          ****END OF INPUT****

CARTESIAN COORDINATES (ANGSTROEM)
---------------------------------
  C      2.732651   -0.265540    0.100873
  C      1.264876   -0.138210    0.493707
  C      0.364891   -0.137404   -0.741580
  C     -1.134369    0.057635   -0.454947
  H     -1.665543    0.010514   -1.413912
  C     -1.704211   -1.010374    0.477921
  O     -1.417054    1.362842    0.021952
  H      3.365189   -0.268874    0.985188
  H      3.031964    0.565969   -0.533336
  H      2.900790   -1.190241   -0.446413
  H      1.000384   -0.971379    1.146281
  H      1.128594    0.790966    1.050952
  H      0.680288    0.669244   -1.407840
  H      0.486492   -1.080245   -1.277391
  H     -1.260268   -0.934912    1.467371
  H     -2.779114   -0.877052    0.572201
  H     -1.506114   -1.999035    0.075263
  H     -1.047717    1.453824    0.911176

 Total Charge           Charge          ....    0
 Multiplicity           Mult            ....    1
 Number of Electrons    NEL             ....   50
 Basis Dimension        Dim             ....  108

ORBITAL ENERGIES
----------------

  NO   OCC          E(Eh)            E(eV)
   0   2.0000     -18.735775      -509.8264
   1   2.0000      -9.933247      -270.2974
   2   2.0000      -9.888906      -269.0908
   3   2.0000      -9.879829      -268.8438
   4   2.0000      -9.876116      -268.7428
   5   2.0000      -9.874856      -268.7085
   6   2.0000      -0.913826       -24.8665
   7   2.0000      -0.718141       -19.5416
   8   2.0000      -0.669116       -18.2076
   9   2.0000      -0.609461       -16.5843
  10   2.0000      -0.554923       -15.1002
  11   2.0000      -0.509770       -13.8716
  12   2.0000      -0.433952       -11.8084
  13   2.0000      -0.419768       -11.4225
  14   2.0000      -0.408672       -11.1205
  15   2.0000      -0.385811       -10.4985
  16   2.0000      -0.362118        -9.8537
  17   2.0000      -0.346255        -9.4221
  18   2.0000      -0.331208        -9.0126
  19   2.0000      -0.326450        -8.8831
  20   2.0000      -0.303158        -8.2493
  21   2.0000      -0.293304        -7.9812
  22   2.0000      -0.289409        -7.8752
  23   2.0000      -0.260444        -7.0870
  24   2.0000      -0.209570        -5.7027
  25   0.0000       0.025004         0.6804
  26   0.0000       0.049276         1.3409
  27   0.0000       0.057367         1.5610
  28   0.0000       0.067336         1.8323
  29   0.0000       0.089259         2.4289

MULLIKEN ATOMIC CHARGES
-----------------------
   0 C :   -0.256103
   1 C :   -0.231206
   2 C :   -0.145775
   3 C :    0.046726
   4 H :    0.069058
   5 C :   -0.274607
   6 O :   -0.434272
   7 H :    0.102019
   8 H :    0.100669
   9 H :    0.098129
  10 H :    0.094896
  11 H :    0.071222
  12 H :    0.086406
  13 H :    0.075770
  14 H :    0.096444
  15 H :    0.111114
  16 H :    0.097003
  17 H :    0.292506
Sum of atomic charges:    0.0000000

LOEWDIN ATOMIC CHARGES
----------------------
   0 C :   -0.336753
   1 C :   -0.241575
   2 C :   -0.240744
   3 C :   -0.057637
   4 H :    0.112229
   5 C :   -0.354183
   6 O :   -0.330804
   7 H :    0.118333
   8 H :    0.118302
   9 H :    0.117542
  10 H :    0.115254
  11 H :    0.106623
  12 H :    0.118865
  13 H :    0.116689
  14 H :    0.114536
  15 H :    0.123930
  16 H :    0.123056
  17 H :    0.276338

  Mayer bond orders larger than 0.100000
B(  0-C ,  1-C ) :   1.1600 B(  0-C ,  7-H ) :   0.9531 B(  0-C ,  8-H ) :   0.9547
B(  0-C ,  9-H ) :   0.9545 B(  1-C ,  2-C ) :   1.1192 B(  1-C , 10-H ) :   0.9207
B(  1-C , 11-H ) :   0.9177 B(  2-C ,  3-C ) :   1.0588 B(  2-C , 12-H ) :   0.9161
B(  2-C , 13-H ) :   0.9096 B(  3-C ,  4-H ) :   0.9056 B(  3-C ,  5-C ) :   1.1118
B(  3-C ,  6-O ) :   1.0403 B(  5-C , 14-H ) :   0.9377 B(  5-C , 15-H ) :   0.9453
B(  5-C , 16-H ) :   0.9410 B(  6-O , 17-H ) :   0.8503

Dispersion correction           -0.012594269
FINAL SINGLE POINT ENERGY      -272.304885358429

DIPOLE MOMENT
-------------

Method             : SCF
Type of density    : Electron Density
Multiplicity       :   1
Irrep              :   0
Energy             :  -272.3747784456095928 Eh
Relativity type    :
Basis              : AO
                                X                 Y                 Z
Electronic contribution:     -3.727254042       3.166979778      -0.729690283
Nuclear contribution   :      4.045858322      -3.574087804       1.060017559
                        -----------------------------------------
Total Dipole Moment    :      0.318604281      -0.407108027       0.330327277
                        -----------------------------------------
Magnitude (a.u.)       :      0.613483286
Magnitude (Debye)      :      1.559350590

Rotational constants in cm-1:             0.206197             0.062569             0.056537
Rotational constants in MHz :          6181.632773          1875.762775          1694.946940

                             ****ORCA TERMINATED NORMALLY****
TOTAL RUN TIME: 0 days 0 hours 0 minutes 7 seconds 702 msec
