                         Program Version 6.0.0  -   RELEASE  -
|  1> ! r2scan-3c def2/J RI DEFGRID2 scfconv6 printgap
|  2> %output
|  3>     printlevel normal
|  4> end
|  5> * xyz 0 1
|  6> C 1.7915744574 -1.0740042569 0.5191703703
|  7> C 1.3228935334 0.3566221016 0.7668232654
|  8> C 0.1777058965 0.8802991665 -0.1193463184
|  9> H -0.0197529659 1.9075912541 0.2184961709
| 10> C -1.178454482 0.1318224833 -0.0501881621
| 11> C -1.2363510928 -1.1532028719 -0.8772449429
| 12> C -1.5994217575 -0.1302471775 1.3934923781
| 13> O 0.6036936623 1.0492957841 -1.4610127943
| 14> H 1.0636236252 -1.7977842759 0.8738189954
| 15> H 2.7197231425 -1.2438862434 1.0605464031
| 16> H 1.9844928791 -1.2555045596 -0.5354675704
| 17> H 1.0274940784 0.4659098208 1.8100056082
| 18> H 2.1649363422 1.0323038262 0.5932414055
| 19> H -1.9060862132 0.8224210408 -0.4953509007
| 20> H -2.2474195722 -1.5530063653 -0.8403250903
| 21> H -0.9986516897 -0.9485132522 -1.9183280199
| 22> H -0.559907535 -1.9123943655 -0.4996842862
| 23> H -2.6267635808 -0.4856576441 1.4181749309
| 24> H -1.5387924696 0.7821576926 1.9820560178
| 25> H -0.9684933938 -0.8854747456 1.8534409911
| 26> H 0.9271744421 0.1976434597 -1.7852449084
| 27> *
| 28>
| 29>                          ****END OF INPUT****

CARTESIAN COORDINATES (ANGSTROEM)
---------------------------------
  C      1.791574   -1.074004    0.519170
  C      1.322894    0.356622    0.766823
  C      0.177706    0.880299   -0.119346
  H     -0.019753    1.907591    0.218496
  C     -1.178454    0.131822   -0.050188
  C     -1.236351   -1.153203   -0.877245
  C     -1.599422   -0.130247    1.393492
  O      0.603694    1.049296   -1.461013
  H      1.063624   -1.797784    0.873819
  H      2.719723   -1.243886    1.060546
  H      1.984493   -1.255505   -0.535468
  H      1.027494    0.465910    1.810006
  H      2.164936    1.032304    0.593241
  H     -1.906086    0.822421   -0.495351
  H     -2.247420   -1.553006   -0.840325
  H     -0.998652   -0.948513   -1.918328
  H     -0.559908   -1.912394   -0.499684
  H     -2.626764   -0.485658    1.418175
  H     -1.538792    0.782158    1.982056
  H     -0.968493   -0.885475    1.853441
  H      0.927174    0.197643   -1.785245

 Total Charge           Charge          ....    0
 Multiplicity           Mult            ....    1
 Number of Electrons    NEL             ....   58
 Basis Dimension        Dim             ....  208

ORBITAL ENERGIES
----------------

  NO   OCC          E(Eh)            E(eV)
   0   2.0000     -18.943010      -515.4655
   1   2.0000     -10.076207      -274.1875
   2   2.0000     -10.033190      -273.0170
   3   2.0000     -10.027183      -272.8535
   4   2.0000     -10.025165      -272.7986
   5   2.0000     -10.019554      -272.6459
   6   2.0000     -10.017095      -272.5790
   7   2.0000      -0.981799       -26.7161
   8   2.0000      -0.771729       -20.9998
   9   2.0000      -0.730552       -19.8793
  10   2.0000      -0.657991       -17.9049
  11   2.0000      -0.644551       -17.5391
  12   2.0000      -0.575298       -15.6547
  13   2.0000      -0.520832       -14.1726
  14   2.0000      -0.469149       -12.7662
  15   2.0000      -0.434111       -11.8128
  16   2.0000      -0.423963       -11.5366
  17   2.0000      -0.410771       -11.1777
  18   2.0000      -0.387913       -10.5556
  19   2.0000      -0.368431       -10.0255
  20   2.0000      -0.356036        -9.6882
  21   2.0000      -0.354454        -9.6452
  22   2.0000      -0.340681        -9.2704
  23   2.0000      -0.324022        -8.8171
  24   2.0000      -0.321021        -8.7354
  25   2.0000      -0.303410        -8.2562
  26   2.0000      -0.289953        -7.8900
  27   2.0000      -0.272210        -7.4072
  28   2.0000      -0.229130        -6.2349
  29   0.0000       0.054314         1.4780
  30   0.0000       0.086400         2.3511
  31   0.0000       0.106879         2.9083
  32   0.0000       0.118787         3.2324
  33   0.0000       0.128560         3.4983

MULLIKEN ATOMIC CHARGES
-----------------------
   0 C :   -0.508321
   1 C :   -0.249993
   2 C :   -0.045048
   3 H :    0.149010
   4 C :    0.014224
   5 C :   -0.553798
   6 C :   -0.502972
   7 O :   -0.414307
   8 H :    0.148467
   9 H :    0.151908
  10 H :    0.138095
  11 H :    0.148992
  12 H :    0.156643
  13 H :    0.154655
  14 H :    0.148515
  15 H :    0.163415
  16 H :    0.156284
  17 H :    0.147630
  18 H :    0.153236
  19 H :    0.152179
  20 H :    0.291186
Sum of atomic charges:    0.0000000

LOEWDIN ATOMIC CHARGES
----------------------
   0 C :   -0.423152
   1 C :   -0.293235
   2 C :    0.053299
   3 H :    0.186265
   4 C :   -0.222005
   5 C :   -0.415854
   6 C :   -0.412026
   7 O :   -0.608583
   8 H :    0.148097
   9 H :    0.154299
  10 H :    0.144734
  11 H :    0.160093
  12 H :    0.165804
  13 H :    0.164232
  14 H :    0.156366
  15 H :    0.158190
  16 H :    0.154176
  17 H :    0.154496
  18 H :    0.155653
  19 H :    0.153101
  20 H :    0.266049

  Mayer bond orders larger than 0.100000
B(  0-C ,  1-C ) :   0.8567 B(  0-C ,  8-H ) :   0.9797 B(  0-C ,  9-H ) :   0.9654
B(  0-C , 10-H ) :   0.9858 B(  1-C ,  2-C ) :   0.9108 B(  1-C , 11-H ) :   0.9676
B(  1-C , 12-H ) :   0.9675 B(  2-C ,  3-H ) :   0.9722 B(  2-C ,  4-C ) :   0.8977
B(  2-C ,  7-O ) :   0.9560 B(  4-C ,  5-C ) :   0.8699 B(  4-C ,  6-C ) :   0.8821
B(  4-C , 13-H ) :   0.9655 B(  5-C , 14-H ) :   0.9692 B(  5-C , 15-H ) :   0.9813
B(  5-C , 16-H ) :   0.9742 B(  6-C , 17-H ) :   0.9653 B(  6-C , 18-H ) :   0.9775
B(  6-C , 19-H ) :   0.9744 B(  7-O , 20-H ) :   0.8900

Dispersion correction           -0.005956626
FINAL SINGLE POINT ENERGY      -312.198186995465

DIPOLE MOMENT
-------------

Method             : SCF
Type of density    : Electron Density
Multiplicity       :   1
Irrep              :   0
Energy             :  -312.2037409038911164 Eh
Relativity type    :
Basis              : AO
                                X                 Y                 Z
Electronic contribution:      0.903435328       4.073809188      -3.105965332
Nuclear contribution   :     -0.908961427      -4.557219106       3.482714552
                        -----------------------------------------
Total Dipole Moment    :     -0.005526100      -0.483409918       0.376749220
                        -----------------------------------------
Magnitude (a.u.)       :      0.612907547
Magnitude (Debye)      :      1.557887178

Rotational constants in cm-1:             0.094657             0.069572             0.059744
Rotational constants in MHz :          2837.748286          2085.729374          1791.087336

                             ****ORCA TERMINATED NORMALLY****
TOTAL RUN TIME: 0 days 0 hours 0 minutes 28 seconds 170 msec
