                         Program Version 6.0.0  -   RELEASE  -
|  1> ! r2scan-3c def2/J RI DEFGRID2 scfconv6 printgap
|  2> %output
|  3>     printlevel normal
|  4> end
|  5> %cpcm
|  6>     smd true
|  7>     smdsolvent "water"
|  8> end
|  9> * xyz 0 1
| 10> C 1.7915744574 -1.0740042569 0.5191703703
| 11> C 1.3228935334 0.3566221016 0.7668232654
| 12> C 0.1777058965 0.8802991665 -0.1193463184
| 13> H -0.0197529659 1.9075912541 0.2184961709
| 14> C -1.178454482 0.1318224833 -0.0501881621
| 15> C -1.2363510928 -1.1532028719 -0.8772449429
| 16> C -1.5994217575 -0.1302471775 1.3934923781
| 17> O 0.6036936623 1.0492957841 -1.4610127943
| 18> H 1.0636236252 -1.7977842759 0.8738189954
| 19> H 2.7197231425 -1.2438862434 1.0605464031
| 20> H 1.9844928791 -1.2555045596 -0.5354675704
| 21> H 1.0274940784 0.4659098208 1.8100056082
| 22> H 2.1649363422 1.0323038262 0.5932414055
| 23> H -1.9060862132 0.8224210408 -0.4953509007
| 24> H -2.2474195722 -1.5530063653 -0.8403250903
| 25> H -0.9986516897 -0.9485132522 -1.9183280199
| 26> H -0.559907535 -1.9123943655 -0.4996842862
| 27> H -2.6267635808 -0.4856576441 1.4181749309
| 28> H -1.5387924696 0.7821576926 1.9820560178
| 29> H -0.9684933938 -0.8854747456 1.8534409911
| 30> H 0.9271744421 0.1976434597 -1.7852449084
| 31> *
| 32>
| 33>                          ****END OF INPUT****

CARTESIAN COORDINATES (ANGSTROEM)
---------------------------------
  C      1.791574   -1.074004    0.519170
  C      1.322894    0.356622    0.766823
  C      0.177706    0.880299   -0.119346
  H     -0.019753    1.907591    0.218496
  C     -1.178454    0.131822   -0.050188
  C     -1.236351   -1.153203   -0.877245
  C     -1.599422   -0.130247    1.393492
  O      0.603694    1.049296   -1.461013
  H      1.063624   -1.797784    0.873819
  H      2.719723   -1.243886    1.060546
  H      1.984493   -1.255505   -0.535468
  H      1.027494    0.465910    1.810006
  H      2.164936    1.032304    0.593241
  H     -1.906086    0.822421   -0.495351
  H     -2.247420   -1.553006   -0.840325
  H     -0.998652   -0.948513   -1.918328
  H     -0.559908   -1.912394   -0.499684
  H     -2.626764   -0.485658    1.418175
  H     -1.538792    0.782158    1.982056
  H     -0.968493   -0.885475    1.853441
  H      0.927174    0.197643   -1.785245

 Total Charge           Charge          ....    0
 Multiplicity           Mult            ....    1
 Number of Electrons    NEL             ....   58
 Basis Dimension        Dim             ....  208

ORBITAL ENERGIES
----------------

  NO   OCC          E(Eh)            E(eV)
   0   2.0000     -18.948111      -515.6043
   1   2.0000     -10.071286      -274.0536
   2   2.0000     -10.025492      -272.8075
   3   2.0000     -10.017610      -272.5930
   4   2.0000     -10.009935      -272.3842
   5   2.0000     -10.008088      -272.3339
   6   2.0000     -10.006230      -272.2833
   7   2.0000      -0.985686       -26.8219
   8   2.0000      -0.763141       -20.7661
   9   2.0000      -0.719601       -19.5813
  10   2.0000      -0.648038       -17.6340
  11   2.0000      -0.635748       -17.2996
  12   2.0000      -0.565879       -15.3984
  13   2.0000      -0.515556       -14.0290
  14   2.0000      -0.462027       -12.5724
  15   2.0000      -0.426943       -11.6177
  16   2.0000      -0.414814       -11.2877
  17   2.0000      -0.403775       -10.9873
  18   2.0000      -0.376592       -10.2476
  19   2.0000      -0.358607        -9.7582
  20   2.0000      -0.347807        -9.4643
  21   2.0000      -0.344121        -9.3640
  22   2.0000      -0.332340        -9.0434
  23   2.0000      -0.316724        -8.6185
  24   2.0000      -0.310620        -8.4524
  25   2.0000      -0.295075        -8.0294
  26   2.0000      -0.283649        -7.7185
  27   2.0000      -0.267303        -7.2737
  28   2.0000      -0.231931        -6.3112
  29   0.0000       0.069390         1.8882
  30   0.0000       0.100149         2.7252
  31   0.0000       0.116590         3.1726
  32   0.0000       0.128695         3.5020
  33   0.0000       0.139058         3.7840

MULLIKEN ATOMIC CHARGES
-----------------------
   0 C :   -0.542774
   1 C :   -0.265843
   2 C :   -0.027905
   3 H :    0.157594
   4 C :   -0.000621
   5 C :   -0.563727
   6 C :   -0.545423
   7 O :   -0.506235
   8 H :    0.164041
   9 H :    0.159346
  10 H :    0.160994
  11 H :    0.161962
  12 H :    0.155817
  13 H :    0.158223
  14 H :    0.160077
  15 H :    0.164736
  16 H :    0.168587
  17 H :    0.158893
  18 H :    0.163864
  19 H :    0.168412
  20 H :    0.349981
Sum of atomic charges:   -0.0000000

LOEWDIN ATOMIC CHARGES
----------------------
   0 C :   -0.429937
   1 C :   -0.292528
   2 C :    0.051336
   3 H :    0.188969
   4 C :   -0.220461
   5 C :   -0.420513
   6 C :   -0.417735
   7 O :   -0.648270
   8 H :    0.153274
   9 H :    0.155335
  10 H :    0.153030
  11 H :    0.165113
  12 H :    0.164280
  13 H :    0.163687
  14 H :    0.158169
  15 H :    0.159297
  16 H :    0.159206
  17 H :    0.157006
  18 H :    0.158747
  19 H :    0.158160
  20 H :    0.283835

  Mayer bond orders larger than 0.100000
B(  0-C ,  1-C ) :   0.8514 B(  0-C ,  8-H ) :   0.9760 B(  0-C ,  9-H ) :   0.9643
B(  0-C , 10-H ) :   0.9798 B(  1-C ,  2-C ) :   0.9124 B(  1-C , 11-H ) :   0.9667
B(  1-C , 12-H ) :   0.9694 B(  2-C ,  3-H ) :   0.9706 B(  2-C ,  4-C ) :   0.8998
B(  2-C ,  7-O ) :   0.9312 B(  4-C ,  5-C ) :   0.8824 B(  4-C ,  6-C ) :   0.8828
B(  4-C , 13-H ) :   0.9668 B(  5-C , 14-H ) :   0.9704 B(  5-C , 15-H ) :   0.9732
B(  5-C , 16-H ) :   0.9709 B(  6-C , 17-H ) :   0.9635 B(  6-C , 18-H ) :   0.9733
B(  6-C , 19-H ) :   0.9730 B(  7-O , 20-H ) :   0.8632

Dispersion correction           -0.005956626
FINAL SINGLE POINT ENERGY      -312.204372318763

DIPOLE MOMENT
-------------

Method             : SCF
Type of density    : Electron Density
Multiplicity       :   1
Irrep              :   0
Energy             :  -312.2099262271883617 Eh
Relativity type    :
Basis              : AO
                                X                 Y                 Z
Electronic contribution:      0.915600104       3.829839942      -2.964371768
Nuclear contribution   :     -0.908961427      -4.557219106       3.482714552
                        -----------------------------------------
Total Dipole Moment    :      0.006638677      -0.727379164       0.518342785
                        -----------------------------------------
Magnitude (a.u.)       :      0.893198613
Magnitude (Debye)      :      2.270330449

Rotational constants in cm-1:             0.094657             0.069572             0.059744
Rotational constants in MHz :          2837.748286          2085.729374          1791.087336

                             ****ORCA TERMINATED NORMALLY****
TOTAL RUN TIME: 0 days 0 hours 0 minutes 30 seconds 358 msec
