                         Program Version 6.0.0  -   RELEASE  -
|  1> ! pbe def2-sv(p) def2/J RI DEFGRID1 loosescf d4 GCP(DFT/SV(P)) printgap
|  2> %output
|  3>     printlevel normal
|  4> end
|  5> * xyz 0 1
|  6> C -3.5941870046 -0.3281804574 -0.1924219291
|  7> C -2.1864398704 -0.5891041349 0.3307784384
|  8> C -1.1882535919 0.4386774604 -0.1993636301
|  9> C 0.2164916456 0.2549980265 0.3700113678
| 10> C 0.9061146554 -1.0424340494 -0.0614035913
| 11> C 2.3817571677 -0.7509174407 0.1881588385
| 12> C 2.5523161321 0.68629038 -0.3102162444
| 13> C 1.1878701511 1.3628049453 -0.0846239259
| 14> H -4.2893413622 -1.0697879715 0.1933131001
| 15> H -3.9378728867 0.6575593996 0.1130812409
| 16> H -3.6103845338 -0.3741419652 -1.2789614811
| 17> H -2.193453749 -0.5533641486 1.4225667976
| 18> H -1.8710648842 -1.5905190711 0.032829718
| 19> H -1.1470537905 0.3717591117 -1.289454167
| 20> H -1.5427559973 1.440372084 0.057862194
| 21> H 0.1521037189 0.2636971629 1.4632780581
| 22> H 0.5539324431 -1.9095329701 0.4947847692
| 23> H 0.7345132071 -1.2159159029 -1.1253479401
| 24> H 2.5891472011 -0.8050272247 1.258216069
| 25> H 3.042368102 -1.448679058 -0.3244985789
| 26> H 3.3555541096 1.2023315959 0.2137916385
| 27> H 2.7973828659 0.6806892499 -1.3725973524
| 28> H 1.25139748 2.1522005123 0.6633624727
| 29> H 0.8304166713 1.8154142198 -1.0098562634
| 30> *
| 31>
| 32>                          ****END OF INPUT****

CARTESIAN COORDINATES (ANGSTROEM)
---------------------------------
  C     -3.594187   -0.328180   -0.192422
  C     -2.186440   -0.589104    0.330778
  C     -1.188254    0.438677   -0.199364
  C      0.216492    0.254998    0.370011
  C      0.906115   -1.042434   -0.061404
  C      2.381757   -0.750917    0.188159
  C      2.552316    0.686290   -0.310216
  C      1.187870    1.362805   -0.084624
  H     -4.289341   -1.069788    0.193313
  H     -3.937873    0.657559    0.113081
  H     -3.610385   -0.374142   -1.278961
  H     -2.193454   -0.553364    1.422567
  H     -1.871065   -1.590519    0.032830
  H     -1.147054    0.371759   -1.289454
  H     -1.542756    1.440372    0.057862
  H      0.152104    0.263697    1.463278
  H      0.553932   -1.909533    0.494785
  H      0.734513   -1.215916   -1.125348
  H      2.589147   -0.805027    1.258216
  H      3.042368   -1.448679   -0.324499
  H      3.355554    1.202332    0.213792
  H      2.797383    0.680689   -1.372597
  H      1.251397    2.152201    0.663362
  H      0.830417    1.815414   -1.009856

 Total Charge           Charge          ....    0
 Multiplicity           Mult            ....    1
 Number of Electrons    NEL             ....   64
 Basis Dimension        Dim             ....  144

ORBITAL ENERGIES
----------------

  NO   OCC          E(Eh)            E(eV)
   0   2.0000      -9.883570      -268.9456
   1   2.0000      -9.878113      -268.7971
   2   2.0000      -9.876484      -268.7528
   3   2.0000      -9.875142      -268.7163
   4   2.0000      -9.874317      -268.6938
   5   2.0000      -9.874022      -268.6858
   6   2.0000      -9.872671      -268.6490
   7   2.0000      -9.869022      -268.5497
   8   2.0000      -0.758201       -20.6317
   9   2.0000      -0.704413       -19.1681
  10   2.0000      -0.645510       -17.5652
  11   2.0000      -0.629514       -17.1299
  12   2.0000      -0.578845       -15.7512
  13   2.0000      -0.519621       -14.1396
  14   2.0000      -0.499247       -13.5852
  15   2.0000      -0.487154       -13.2561
  16   2.0000      -0.430723       -11.7206
  17   2.0000      -0.417059       -11.3488
  18   2.0000      -0.411518       -11.1980
  19   2.0000      -0.374462       -10.1896
  20   2.0000      -0.367093        -9.9891
  21   2.0000      -0.356388        -9.6978
  22   2.0000      -0.337061        -9.1719
  23   2.0000      -0.326862        -8.8944
  24   2.0000      -0.303608        -8.2616
  25   2.0000      -0.290409        -7.9024
  26   2.0000      -0.289694        -7.8830
  27   2.0000      -0.284838        -7.7508
  28   2.0000      -0.277651        -7.5553
  29   2.0000      -0.269167        -7.3244
  30   2.0000      -0.265882        -7.2350
  31   2.0000      -0.261443        -7.1142
  32   0.0000       0.032583         0.8866
  33   0.0000       0.044777         1.2184
  34   0.0000       0.048881         1.3301
  35   0.0000       0.071648         1.9496
  36   0.0000       0.083140         2.2624

MULLIKEN ATOMIC CHARGES
-----------------------
   0 C :   -0.250318
   1 C :   -0.194606
   2 C :   -0.125380
   3 C :   -0.194517
   4 C :   -0.147707
   5 C :   -0.132842
   6 C :   -0.165742
   7 C :   -0.085494
   8 H :    0.099551
   9 H :    0.095172
  10 H :    0.094450
  11 H :    0.080151
  12 H :    0.091332
  13 H :    0.070489
  14 H :    0.077360
  15 H :    0.059442
  16 H :    0.092045
  17 H :    0.072641
  18 H :    0.074515
  19 H :    0.084710
  20 H :    0.080757
  21 H :    0.076939
  22 H :    0.076415
  23 H :    0.070639
Sum of atomic charges:    0.0000000

LOEWDIN ATOMIC CHARGES
----------------------
   0 C :   -0.339412
   1 C :   -0.234806
   2 C :   -0.216878
   3 C :   -0.145230
   4 C :   -0.222686
   5 C :   -0.227512
   6 C :   -0.230652
   7 C :   -0.222301
   8 H :    0.117450
   9 H :    0.115717
  10 H :    0.116168
  11 H :    0.113378
  12 H :    0.114645
  13 H :    0.111101
  14 H :    0.112942
  15 H :    0.113034
  16 H :    0.115616
  17 H :    0.113439
  18 H :    0.114856
  19 H :    0.114897
  20 H :    0.116292
  21 H :    0.116365
  22 H :    0.117563
  23 H :    0.116013

  Mayer bond orders larger than 0.100000
B(  0-C ,  1-C ) :   1.1562 B(  0-C ,  8-H ) :   0.9529 B(  0-C ,  9-H ) :   0.9541
B(  0-C , 10-H ) :   0.9540 B(  1-C ,  2-C ) :   1.1377 B(  1-C , 11-H ) :   0.9254
B(  1-C , 12-H ) :   0.9209 B(  2-C ,  3-C ) :   1.0978 B(  2-C , 13-H ) :   0.9054
B(  2-C , 14-H ) :   0.9208 B(  3-C ,  4-C ) :   1.1062 B(  3-C ,  7-C ) :   1.1235
B(  3-C , 15-H ) :   0.8890 B(  4-C ,  5-C ) :   1.1172 B(  4-C , 16-H ) :   0.9200
B(  4-C , 17-H ) :   0.9159 B(  5-C ,  6-C ) :   1.1644 B(  5-C , 18-H ) :   0.9157
B(  5-C , 19-H ) :   0.9277 B(  6-C ,  7-C ) :   1.1631 B(  6-C , 20-H ) :   0.9221
B(  6-C , 21-H ) :   0.9199 B(  7-C , 22-H ) :   0.9138 B(  7-C , 23-H ) :   0.9134

Dispersion correction           -0.020326544
FINAL SINGLE POINT ENERGY      -313.694144726283

DIPOLE MOMENT
-------------

Method             : SCF
Type of density    : Electron Density
Multiplicity       :   1
Irrep              :   0
Energy             :  -313.7754188692799744 Eh
Relativity type    :
Basis              : AO
                                X                 Y                 Z
Electronic contribution:      3.090048872       0.343695606       0.494595580
Nuclear contribution   :     -3.081970101      -0.359264822      -0.457476185
                        -----------------------------------------
Total Dipole Moment    :      0.008078772      -0.015569216       0.037119396
                        -----------------------------------------
Magnitude (a.u.)       :      0.041055043
Magnitude (Debye)      :      0.104353627

Rotational constants in cm-1:             0.173074             0.032206             0.028899
Rotational constants in MHz :          5188.629985           965.522432           866.363995

                             ****ORCA TERMINATED NORMALLY****
TOTAL RUN TIME: 0 days 0 hours 0 minutes 10 seconds 943 msec
