                         Program Version 6.0.0  -   RELEASE  -
|  1> ! r2scan-3c def2/J RI DEFGRID2 scfconv6 printgap
|  2> %output
|  3>     printlevel normal
|  4> end
|  5> * xyz 0 1
|  6> C -2.8982606886 0.2785408375 0.9060041704
|  7> C -2.3578148991 0.2103483165 -0.5179164102
|  8> C -1.1547678496 -0.7235712591 -0.6650388222
|  9> C 0.0871082634 -0.2797892741 0.103389063
| 10> C 1.2747916046 -1.2250583078 -0.0940795857
| 11> C 2.4826793253 -0.4197554576 0.3918673705
| 12> C 2.1107463245 1.0599991879 0.1720863032
| 13> C 0.6675816723 1.0618712752 -0.3498472212
| 14> H -3.1314400952 -0.7189425447 1.2721056062
| 15> H -2.1741083033 0.7318013567 1.5776078952
| 16> H -3.8063370361 0.8761680085 0.9353416558
| 17> H -3.1508741203 -0.1498650752 -1.1777258245
| 18> H -2.0837048071 1.2124605908 -0.8518456332
| 19> H -1.4384755662 -1.7224761353 -0.3235688552
| 20> H -0.9003960186 -0.7982847481 -1.7258109917
| 21> H -0.1420902062 -0.228699757 1.171576799
| 22> H 1.1574609058 -2.1627517215 0.4473745459
| 23> H 1.3773314576 -1.4551169381 -1.1563322835
| 24> H 2.6554159897 -0.610380434 1.4514587096
| 25> H 3.388987149 -0.6948892885 -0.1457278367
| 26> H 2.1740236524 1.6082287617 1.1122310483
| 27> H 2.7841476122 1.542461048 -0.5351777413
| 28> H 0.1027625261 1.9128307489 0.027157019
| 29> H 0.6601634809 1.1033215309 -1.4406936079
| 30> *
| 31>
| 32>                          ****END OF INPUT****

CARTESIAN COORDINATES (ANGSTROEM)
---------------------------------
  C     -2.898261    0.278541    0.906004
  C     -2.357815    0.210348   -0.517916
  C     -1.154768   -0.723571   -0.665039
  C      0.087108   -0.279789    0.103389
  C      1.274792   -1.225058   -0.094080
  C      2.482679   -0.419755    0.391867
  C      2.110746    1.059999    0.172086
  C      0.667582    1.061871   -0.349847
  H     -3.131440   -0.718943    1.272106
  H     -2.174108    0.731801    1.577608
  H     -3.806337    0.876168    0.935342
  H     -3.150874   -0.149865   -1.177726
  H     -2.083705    1.212461   -0.851846
  H     -1.438476   -1.722476   -0.323569
  H     -0.900396   -0.798285   -1.725811
  H     -0.142090   -0.228700    1.171577
  H      1.157461   -2.162752    0.447375
  H      1.377331   -1.455117   -1.156332
  H      2.655416   -0.610380    1.451459
  H      3.388987   -0.694889   -0.145728
  H      2.174024    1.608229    1.112231
  H      2.784148    1.542461   -0.535178
  H      0.102763    1.912831    0.027157
  H      0.660163    1.103322   -1.440694

 Total Charge           Charge          ....    0
 Multiplicity           Mult            ....    1
 Number of Electrons    NEL             ....   64
 Basis Dimension        Dim             ....  232

ORBITAL ENERGIES
----------------

  NO   OCC          E(Eh)            E(eV)
   0   2.0000     -10.023455      -272.7521
   1   2.0000     -10.020580      -272.6738
   2   2.0000     -10.018196      -272.6090
   3   2.0000     -10.017778      -272.5976
   4   2.0000     -10.017256      -272.5834
   5   2.0000     -10.016848      -272.5723
   6   2.0000     -10.016210      -272.5549
   7   2.0000     -10.013141      -272.4714
   8   2.0000      -0.805140       -21.9090
   9   2.0000      -0.748625       -20.3711
  10   2.0000      -0.684966       -18.6389
  11   2.0000      -0.670911       -18.2564
  12   2.0000      -0.623051       -16.9541
  13   2.0000      -0.554799       -15.0969
  14   2.0000      -0.526282       -14.3209
  15   2.0000      -0.511745       -13.9253
  16   2.0000      -0.450528       -12.2595
  17   2.0000      -0.436646       -11.8818
  18   2.0000      -0.414478       -11.2785
  19   2.0000      -0.400221       -10.8906
  20   2.0000      -0.379636       -10.3304
  21   2.0000      -0.370815       -10.0904
  22   2.0000      -0.362071        -9.8524
  23   2.0000      -0.329319        -8.9612
  24   2.0000      -0.312569        -8.5054
  25   2.0000      -0.306684        -8.3453
  26   2.0000      -0.301212        -8.1964
  27   2.0000      -0.298989        -8.1359
  28   2.0000      -0.280672        -7.6375
  29   2.0000      -0.278348        -7.5742
  30   2.0000      -0.275978        -7.5098
  31   2.0000      -0.271308        -7.3827
  32   0.0000       0.080823         2.1993
  33   0.0000       0.096840         2.6352
  34   0.0000       0.104326         2.8389
  35   0.0000       0.116618         3.1733
  36   0.0000       0.123979         3.3736

MULLIKEN ATOMIC CHARGES
-----------------------
   0 C :   -0.496997
   1 C :   -0.234821
   2 C :   -0.272983
   3 C :   -0.067991
   4 C :   -0.361068
   5 C :   -0.282952
   6 C :   -0.330656
   7 C :   -0.372966
   8 H :    0.145462
   9 H :    0.150168
  10 H :    0.146400
  11 H :    0.141680
  12 H :    0.144678
  13 H :    0.146102
  14 H :    0.143586
  15 H :    0.165849
  16 H :    0.153900
  17 H :    0.159369
  18 H :    0.148886
  19 H :    0.149454
  20 H :    0.150229
  21 H :    0.150979
  22 H :    0.159993
  23 H :    0.163700
Sum of atomic charges:   -0.0000000

LOEWDIN ATOMIC CHARGES
----------------------
   0 C :   -0.427044
   1 C :   -0.314427
   2 C :   -0.300819
   3 C :   -0.227882
   4 C :   -0.296414
   5 C :   -0.306306
   6 C :   -0.306350
   7 C :   -0.300573
   8 H :    0.150244
   9 H :    0.148110
  10 H :    0.150235
  11 H :    0.151002
  12 H :    0.152872
  13 H :    0.157184
  14 H :    0.157714
  15 H :    0.161394
  16 H :    0.157706
  17 H :    0.157585
  18 H :    0.154816
  19 H :    0.154807
  20 H :    0.155133
  21 H :    0.155371
  22 H :    0.157460
  23 H :    0.158183

  Mayer bond orders larger than 0.100000
B(  0-C ,  1-C ) :   0.8848 B(  0-C ,  8-H ) :   0.9812 B(  0-C ,  9-H ) :   0.9833
B(  0-C , 10-H ) :   0.9706 B(  1-C ,  2-C ) :   0.9026 B(  1-C , 11-H ) :   0.9690
B(  1-C , 12-H ) :   0.9863 B(  2-C ,  3-C ) :   0.9076 B(  2-C , 13-H ) :   0.9798
B(  2-C , 14-H ) :   0.9861 B(  3-C ,  4-C ) :   0.8887 B(  3-C ,  7-C ) :   0.8729
B(  3-C , 15-H ) :   0.9573 B(  4-C ,  5-C ) :   0.9053 B(  4-C , 16-H ) :   0.9495
B(  4-C , 17-H ) :   1.0284 B(  5-C ,  6-C ) :   0.9208 B(  5-C , 18-H ) :   0.9765
B(  5-C , 19-H ) :   0.9757 B(  6-C ,  7-C ) :   0.8968 B(  6-C , 20-H ) :   0.9834
B(  6-C , 21-H ) :   0.9793 B(  7-C , 22-H ) :   0.9575 B(  7-C , 23-H ) :   1.0120

Dispersion correction           -0.007023774
FINAL SINGLE POINT ENERGY      -314.382491125261

DIPOLE MOMENT
-------------

Method             : SCF
Type of density    : Electron Density
Multiplicity       :   1
Irrep              :   0
Energy             :  -314.3856635796477690 Eh
Relativity type    :
Basis              : AO
                                X                 Y                 Z
Electronic contribution:      2.350061707      -0.419943092      -0.600029808
Nuclear contribution   :     -2.370863133       0.418294442       0.598520348
                        -----------------------------------------
Total Dipole Moment    :     -0.020801426      -0.001648650      -0.001509460
                        -----------------------------------------
Magnitude (a.u.)       :      0.020921182
Magnitude (Debye)      :      0.053177418

Rotational constants in cm-1:             0.138468             0.036787             0.033780
Rotational constants in MHz :          4151.157163          1102.860197          1012.693634

                             ****ORCA TERMINATED NORMALLY****
TOTAL RUN TIME: 0 days 0 hours 0 minutes 25 seconds 481 msec
