                         Program Version 6.0.0  -   RELEASE  -
|  1> ! r2scan-3c def2/J RI DEFGRID2 scfconv6 printgap
|  2> %output
|  3>     printlevel normal
|  4> end
|  5> %cpcm
|  6>     smd true
|  7>     smdsolvent "water"
|  8> end
|  9> * xyz 0 1
| 10> C -2.8982606886 0.2785408375 0.9060041704
| 11> C -2.3578148991 0.2103483165 -0.5179164102
| 12> C -1.1547678496 -0.7235712591 -0.6650388222
| 13> C 0.0871082634 -0.2797892741 0.103389063
| 14> C 1.2747916046 -1.2250583078 -0.0940795857
| 15> C 2.4826793253 -0.4197554576 0.3918673705
| 16> C 2.1107463245 1.0599991879 0.1720863032
| 17> C 0.6675816723 1.0618712752 -0.3498472212
| 18> H -3.1314400952 -0.7189425447 1.2721056062
| 19> H -2.1741083033 0.7318013567 1.5776078952
| 20> H -3.8063370361 0.8761680085 0.9353416558
| 21> H -3.1508741203 -0.1498650752 -1.1777258245
| 22> H -2.0837048071 1.2124605908 -0.8518456332
| 23> H -1.4384755662 -1.7224761353 -0.3235688552
| 24> H -0.9003960186 -0.7982847481 -1.7258109917
| 25> H -0.1420902062 -0.228699757 1.171576799
| 26> H 1.1574609058 -2.1627517215 0.4473745459
| 27> H 1.3773314576 -1.4551169381 -1.1563322835
| 28> H 2.6554159897 -0.610380434 1.4514587096
| 29> H 3.388987149 -0.6948892885 -0.1457278367
| 30> H 2.1740236524 1.6082287617 1.1122310483
| 31> H 2.7841476122 1.542461048 -0.5351777413
| 32> H 0.1027625261 1.9128307489 0.027157019
| 33> H 0.6601634809 1.1033215309 -1.4406936079
| 34> *
| 35>
| 36>                          ****END OF INPUT****

CARTESIAN COORDINATES (ANGSTROEM)
---------------------------------
  C     -2.898261    0.278541    0.906004
  C     -2.357815    0.210348   -0.517916
  C     -1.154768   -0.723571   -0.665039
  C      0.087108   -0.279789    0.103389
  C      1.274792   -1.225058   -0.094080
  C      2.482679   -0.419755    0.391867
  C      2.110746    1.059999    0.172086
  C      0.667582    1.061871   -0.349847
  H     -3.131440   -0.718943    1.272106
  H     -2.174108    0.731801    1.577608
  H     -3.806337    0.876168    0.935342
  H     -3.150874   -0.149865   -1.177726
  H     -2.083705    1.212461   -0.851846
  H     -1.438476   -1.722476   -0.323569
  H     -0.900396   -0.798285   -1.725811
  H     -0.142090   -0.228700    1.171577
  H      1.157461   -2.162752    0.447375
  H      1.377331   -1.455117   -1.156332
  H      2.655416   -0.610380    1.451459
  H      3.388987   -0.694889   -0.145728
  H      2.174024    1.608229    1.112231
  H      2.784148    1.542461   -0.535178
  H      0.102763    1.912831    0.027157
  H      0.660163    1.103322   -1.440694

 Total Charge           Charge          ....    0
 Multiplicity           Mult            ....    1
 Number of Electrons    NEL             ....   64
 Basis Dimension        Dim             ....  232

ORBITAL ENERGIES
----------------

  NO   OCC          E(Eh)            E(eV)
   0   2.0000     -10.016085      -272.5515
   1   2.0000     -10.014012      -272.4951
   2   2.0000     -10.011127      -272.4166
   3   2.0000     -10.011123      -272.4165
   4   2.0000     -10.010871      -272.4096
   5   2.0000     -10.009399      -272.3696
   6   2.0000     -10.009381      -272.3691
   7   2.0000     -10.006129      -272.2806
   8   2.0000      -0.798282       -21.7223
   9   2.0000      -0.742109       -20.1938
  10   2.0000      -0.678457       -18.4618
  11   2.0000      -0.664383       -18.0788
  12   2.0000      -0.616598       -16.7785
  13   2.0000      -0.548357       -14.9216
  14   2.0000      -0.519957       -14.1488
  15   2.0000      -0.504836       -13.7373
  16   2.0000      -0.443653       -12.0724
  17   2.0000      -0.430043       -11.7021
  18   2.0000      -0.407656       -11.0929
  19   2.0000      -0.393609       -10.7106
  20   2.0000      -0.372615       -10.1394
  21   2.0000      -0.363948        -9.9035
  22   2.0000      -0.355376        -9.6703
  23   2.0000      -0.322574        -8.7777
  24   2.0000      -0.305726        -8.3192
  25   2.0000      -0.300149        -8.1675
  26   2.0000      -0.294841        -8.0230
  27   2.0000      -0.292365        -7.9556
  28   2.0000      -0.273487        -7.4420
  29   2.0000      -0.271033        -7.3752
  30   2.0000      -0.269044        -7.3211
  31   2.0000      -0.264658        -7.2017
  32   0.0000       0.088823         2.4170
  33   0.0000       0.104264         2.8372
  34   0.0000       0.111070         3.0224
  35   0.0000       0.122725         3.3395
  36   0.0000       0.129000         3.5103

MULLIKEN ATOMIC CHARGES
-----------------------
   0 C :   -0.532906
   1 C :   -0.248515
   2 C :   -0.294033
   3 C :   -0.059520
   4 C :   -0.381852
   5 C :   -0.300713
   6 C :   -0.349260
   7 C :   -0.388519
   8 H :    0.155702
   9 H :    0.161671
  10 H :    0.155849
  11 H :    0.149050
  12 H :    0.150896
  13 H :    0.153542
  14 H :    0.152857
  15 H :    0.174552
  16 H :    0.161814
  17 H :    0.167827
  18 H :    0.157286
  19 H :    0.157121
  20 H :    0.158719
  21 H :    0.158905
  22 H :    0.168435
  23 H :    0.171093
Sum of atomic charges:   -0.0000000

LOEWDIN ATOMIC CHARGES
----------------------
   0 C :   -0.435163
   1 C :   -0.317223
   2 C :   -0.304480
   3 C :   -0.226997
   4 C :   -0.300833
   5 C :   -0.310940
   6 C :   -0.311107
   7 C :   -0.303503
   8 H :    0.152659
   9 H :    0.151233
  10 H :    0.152110
  11 H :    0.152508
  12 H :    0.154160
  13 H :    0.158663
  14 H :    0.159618
  15 H :    0.163977
  16 H :    0.159239
  17 H :    0.159402
  18 H :    0.156679
  19 H :    0.156328
  20 H :    0.156987
  21 H :    0.156990
  22 H :    0.159622
  23 H :    0.160070

  Mayer bond orders larger than 0.100000
B(  0-C ,  1-C ) :   0.8794 B(  0-C ,  8-H ) :   0.9786 B(  0-C ,  9-H ) :   0.9798
B(  0-C , 10-H ) :   0.9687 B(  1-C ,  2-C ) :   0.9004 B(  1-C , 11-H ) :   0.9693
B(  1-C , 12-H ) :   0.9865 B(  2-C ,  3-C ) :   0.9045 B(  2-C , 13-H ) :   0.9779
B(  2-C , 14-H ) :   0.9860 B(  3-C ,  4-C ) :   0.8844 B(  3-C ,  7-C ) :   0.8710
B(  3-C , 15-H ) :   0.9562 B(  4-C ,  5-C ) :   0.9023 B(  4-C , 16-H ) :   0.9483
B(  4-C , 17-H ) :   1.0264 B(  5-C ,  6-C ) :   0.9149 B(  5-C , 18-H ) :   0.9754
B(  5-C , 19-H ) :   0.9745 B(  6-C ,  7-C ) :   0.8930 B(  6-C , 20-H ) :   0.9826
B(  6-C , 21-H ) :   0.9778 B(  7-C , 22-H ) :   0.9561 B(  7-C , 23-H ) :   1.0095

Dispersion correction           -0.007023774
FINAL SINGLE POINT ENERGY      -314.379775859625

DIPOLE MOMENT
-------------

Method             : SCF
Type of density    : Electron Density
Multiplicity       :   1
Irrep              :   0
Energy             :  -314.3829483140116849 Eh
Relativity type    :
Basis              : AO
                                X                 Y                 Z
Electronic contribution:      2.336242951      -0.415028594      -0.593934769
Nuclear contribution   :     -2.370863133       0.418294442       0.598520348
                        -----------------------------------------
Total Dipole Moment    :     -0.034620182       0.003265848       0.004585579
                        -----------------------------------------
Magnitude (a.u.)       :      0.035074924
Magnitude (Debye)      :      0.089153373

Rotational constants in cm-1:             0.138468             0.036787             0.033780
Rotational constants in MHz :          4151.157163          1102.860197          1012.693634

                             ****ORCA TERMINATED NORMALLY****
TOTAL RUN TIME: 0 days 0 hours 0 minutes 30 seconds 330 msec
