                         Program Version 6.0.0  -   RELEASE  -
|  1> ! r2scan-3c def2/J RI DEFGRID2 scfconv6 printgap
|  2> %output
|  3>     printlevel normal
|  4> end
|  5> * xyz 0 1
|  6> C -2.1561646512 -0.4321587198 -0.9236079164
|  7> C -2.0730306451 0.5657388402 0.2255288089
|  8> C -0.816868223 0.3705536824 1.0703591449
|  9> O 0.3532635613 0.7391661917 0.3260456643
| 10> C 1.2139131651 -0.2008957594 -0.0462122309
| 11> O 1.094817603 -1.3768912303 0.2298596142
| 12> C 2.3444579091 0.383587006 -0.8405249751
| 13> H -3.0687347253 -0.2785539915 -1.4925363373
| 14> H -1.308741159 -0.3158013211 -1.5964549931
| 15> H -2.1482026223 -1.4519734303 -0.544752225
| 16> H -2.9356480211 0.4468836634 0.8810389599
| 17> H -2.0731819499 1.5834032739 -0.1671838278
| 18> H -0.8319675989 1.0272787064 1.9428491665
| 19> H -0.7155367918 -0.6717819816 1.3881142858
| 20> H 3.0904407914 -0.3809258592 -1.0297573698
| 21> H 2.7771349161 1.2158308419 -0.2931280432
| 22> H 1.9562212455 0.7640886687 -1.7819150452
| 23> *
| 24>
| 25>                          ****END OF INPUT****

CARTESIAN COORDINATES (ANGSTROEM)
---------------------------------
  C     -2.156165   -0.432159   -0.923608
  C     -2.073031    0.565739    0.225529
  C     -0.816868    0.370554    1.070359
  O      0.353264    0.739166    0.326046
  C      1.213913   -0.200896   -0.046212
  O      1.094818   -1.376891    0.229860
  C      2.344458    0.383587   -0.840525
  H     -3.068735   -0.278554   -1.492536
  H     -1.308741   -0.315801   -1.596455
  H     -2.148203   -1.451973   -0.544752
  H     -2.935648    0.446884    0.881039
  H     -2.073182    1.583403   -0.167184
  H     -0.831968    1.027279    1.942849
  H     -0.715537   -0.671782    1.388114
  H      3.090441   -0.380926   -1.029757
  H      2.777135    1.215831   -0.293128
  H      1.956221    0.764089   -1.781915

 Total Charge           Charge          ....    0
 Multiplicity           Mult            ....    1
 Number of Electrons    NEL             ....   56
 Basis Dimension        Dim             ....  193

ORBITAL ENERGIES
----------------

  NO   OCC          E(Eh)            E(eV)
   0   2.0000     -18.996323      -516.9162
   1   2.0000     -18.928041      -515.0582
   2   2.0000     -10.156124      -276.3622
   3   2.0000     -10.086779      -274.4752
   4   2.0000     -10.039035      -273.1760
   5   2.0000     -10.037302      -273.1289
   6   2.0000     -10.020583      -272.6739
   7   2.0000      -1.071260       -29.1505
   8   2.0000      -0.975897       -26.5555
   9   2.0000      -0.767367       -20.8811
  10   2.0000      -0.721263       -19.6266
  11   2.0000      -0.661803       -18.0086
  12   2.0000      -0.580701       -15.8017
  13   2.0000      -0.526489       -14.3265
  14   2.0000      -0.466444       -12.6926
  15   2.0000      -0.457961       -12.4618
  16   2.0000      -0.437397       -11.9022
  17   2.0000      -0.413633       -11.2555
  18   2.0000      -0.412693       -11.2299
  19   2.0000      -0.380959       -10.3664
  20   2.0000      -0.375027       -10.2050
  21   2.0000      -0.357794        -9.7361
  22   2.0000      -0.331261        -9.0141
  23   2.0000      -0.326894        -8.8952
  24   2.0000      -0.321841        -8.7577
  25   2.0000      -0.302711        -8.2372
  26   2.0000      -0.267301        -7.2736
  27   2.0000      -0.236814        -6.4440
  28   0.0000      -0.013397        -0.3646
  29   0.0000       0.075141         2.0447
  30   0.0000       0.096035         2.6132
  31   0.0000       0.112599         3.0640
  32   0.0000       0.119537         3.2528

MULLIKEN ATOMIC CHARGES
-----------------------
   0 C :   -0.459180
   1 C :   -0.245023
   2 C :   -0.190829
   3 O :   -0.169829
   4 C :    0.438180
   5 O :   -0.437512
   6 C :   -0.516722
   7 H :    0.148106
   8 H :    0.146490
   9 H :    0.154348
  10 H :    0.140882
  11 H :    0.147565
  12 H :    0.146417
  13 H :    0.185638
  14 H :    0.177417
  15 H :    0.166624
  16 H :    0.167426
Sum of atomic charges:   -0.0000000

LOEWDIN ATOMIC CHARGES
----------------------
   0 C :   -0.415987
   1 C :   -0.286557
   2 C :    0.033853
   3 O :   -0.599301
   4 C :    0.352530
   5 O :   -0.439834
   6 C :   -0.335413
   7 H :    0.151081
   8 H :    0.155574
   9 H :    0.156962
  10 H :    0.159722
  11 H :    0.160142
  12 H :    0.178881
  13 H :    0.197760
  14 H :    0.174387
  15 H :    0.177604
  16 H :    0.178596

  Mayer bond orders larger than 0.100000
B(  0-C ,  1-C ) :   0.8951 B(  0-C ,  7-H ) :   0.9724 B(  0-C ,  8-H ) :   0.9763
B(  0-C ,  9-H ) :   0.9735 B(  1-C ,  2-C ) :   0.9514 B(  1-C , 10-H ) :   0.9665
B(  1-C , 11-H ) :   0.9807 B(  2-C ,  3-O ) :   0.7856 B(  2-C , 12-H ) :   0.9584
B(  2-C , 13-H ) :   0.9701 B(  3-O ,  4-C ) :   1.0505 B(  4-C ,  5-O ) :   1.8367
B(  4-C ,  6-C ) :   0.9615 B(  6-C , 14-H ) :   0.9906 B(  6-C , 15-H ) :   0.9571
B(  6-C , 16-H ) :   0.9439

Dispersion correction           -0.004117084
FINAL SINGLE POINT ENERGY      -346.936580170978

DIPOLE MOMENT
-------------

Method             : SCF
Type of density    : Electron Density
Multiplicity       :   1
Irrep              :   0
Energy             :  -346.9429693928597089 Eh
Relativity type    :
Basis              : AO
                                X                 Y                 Z
Electronic contribution:      4.631062975      -1.020330956       2.425553322
Nuclear contribution   :     -4.911616232       1.809133859      -2.518922909
                        -----------------------------------------
Total Dipole Moment    :     -0.280553256       0.788802903      -0.093369586
                        -----------------------------------------
Magnitude (a.u.)       :      0.842400160
Magnitude (Debye)      :      2.141211041

Rotational constants in cm-1:             0.157084             0.052624             0.050341
Rotational constants in MHz :          4709.265153          1577.625249          1509.177713

                             ****ORCA TERMINATED NORMALLY****
TOTAL RUN TIME: 0 days 0 hours 0 minutes 20 seconds 352 msec
