                         Program Version 6.0.0  -   RELEASE  -
|  1> ! r2scan-3c def2/J RI DEFGRID2 scfconv6 printgap
|  2> %output
|  3>     printlevel normal
|  4> end
|  5> %cpcm
|  6>     smd true
|  7>     smdsolvent "water"
|  8> end
|  9> * xyz 0 1
| 10> C -2.1561646512 -0.4321587198 -0.9236079164
| 11> C -2.0730306451 0.5657388402 0.2255288089
| 12> C -0.816868223 0.3705536824 1.0703591449
| 13> O 0.3532635613 0.7391661917 0.3260456643
| 14> C 1.2139131651 -0.2008957594 -0.0462122309
| 15> O 1.094817603 -1.3768912303 0.2298596142
| 16> C 2.3444579091 0.383587006 -0.8405249751
| 17> H -3.0687347253 -0.2785539915 -1.4925363373
| 18> H -1.308741159 -0.3158013211 -1.5964549931
| 19> H -2.1482026223 -1.4519734303 -0.544752225
| 20> H -2.9356480211 0.4468836634 0.8810389599
| 21> H -2.0731819499 1.5834032739 -0.1671838278
| 22> H -0.8319675989 1.0272787064 1.9428491665
| 23> H -0.7155367918 -0.6717819816 1.3881142858
| 24> H 3.0904407914 -0.3809258592 -1.0297573698
| 25> H 2.7771349161 1.2158308419 -0.2931280432
| 26> H 1.9562212455 0.7640886687 -1.7819150452
| 27> *
| 28>
| 29>                          ****END OF INPUT****

CARTESIAN COORDINATES (ANGSTROEM)
---------------------------------
  C     -2.156165   -0.432159   -0.923608
  C     -2.073031    0.565739    0.225529
  C     -0.816868    0.370554    1.070359
  O      0.353264    0.739166    0.326046
  C      1.213913   -0.200896   -0.046212
  O      1.094818   -1.376891    0.229860
  C      2.344458    0.383587   -0.840525
  H     -3.068735   -0.278554   -1.492536
  H     -1.308741   -0.315801   -1.596455
  H     -2.148203   -1.451973   -0.544752
  H     -2.935648    0.446884    0.881039
  H     -2.073182    1.583403   -0.167184
  H     -0.831968    1.027279    1.942849
  H     -0.715537   -0.671782    1.388114
  H      3.090441   -0.380926   -1.029757
  H      2.777135    1.215831   -0.293128
  H      1.956221    0.764089   -1.781915

 Total Charge           Charge          ....    0
 Multiplicity           Mult            ....    1
 Number of Electrons    NEL             ....   56
 Basis Dimension        Dim             ....  193

ORBITAL ENERGIES
----------------

  NO   OCC          E(Eh)            E(eV)
   0   2.0000     -19.001663      -517.0615
   1   2.0000     -18.943151      -515.4693
   2   2.0000     -10.165883      -276.6277
   3   2.0000     -10.079419      -274.2749
   4   2.0000     -10.030114      -272.9333
   5   2.0000     -10.026158      -272.8256
   6   2.0000     -10.011747      -272.4335
   7   2.0000      -1.078131       -29.3374
   8   2.0000      -0.989165       -26.9166
   9   2.0000      -0.760785       -20.7020
  10   2.0000      -0.715071       -19.4581
  11   2.0000      -0.655261       -17.8306
  12   2.0000      -0.573991       -15.6191
  13   2.0000      -0.523865       -14.2551
  14   2.0000      -0.466898       -12.7049
  15   2.0000      -0.461523       -12.5587
  16   2.0000      -0.444584       -12.0978
  17   2.0000      -0.407318       -11.0837
  18   2.0000      -0.404146       -10.9974
  19   2.0000      -0.380587       -10.3563
  20   2.0000      -0.367041        -9.9877
  21   2.0000      -0.352490        -9.5917
  22   2.0000      -0.329975        -8.9791
  23   2.0000      -0.326696        -8.8899
  24   2.0000      -0.312165        -8.4944
  25   2.0000      -0.298583        -8.1249
  26   2.0000      -0.271433        -7.3861
  27   2.0000      -0.252820        -6.8796
  28   0.0000      -0.020544        -0.5590
  29   0.0000       0.079268         2.1570
  30   0.0000       0.104860         2.8534
  31   0.0000       0.122908         3.3445
  32   0.0000       0.128608         3.4996

MULLIKEN ATOMIC CHARGES
-----------------------
   0 C :   -0.516593
   1 C :   -0.243689
   2 C :   -0.190924
   3 O :   -0.187830
   4 C :    0.482514
   5 O :   -0.526169
   6 C :   -0.555878
   7 H :    0.163007
   8 H :    0.159967
   9 H :    0.161907
  10 H :    0.161889
  11 H :    0.159777
  12 H :    0.171828
  13 H :    0.181787
  14 H :    0.185425
  15 H :    0.193595
  16 H :    0.199387
Sum of atomic charges:   -0.0000000

LOEWDIN ATOMIC CHARGES
----------------------
   0 C :   -0.426164
   1 C :   -0.284324
   2 C :    0.038690
   3 O :   -0.601349
   4 C :    0.363827
   5 O :   -0.502467
   6 C :   -0.334271
   7 H :    0.155893
   8 H :    0.157260
   9 H :    0.156341
  10 H :    0.167843
  11 H :    0.163965
  12 H :    0.189653
  13 H :    0.196816
  14 H :    0.178133
  15 H :    0.188778
  16 H :    0.191378

  Mayer bond orders larger than 0.100000
B(  0-C ,  1-C ) :   0.8692 B(  0-C ,  7-H ) :   0.9681 B(  0-C ,  8-H ) :   0.9742
B(  0-C ,  9-H ) :   0.9753 B(  1-C ,  2-C ) :   0.9479 B(  1-C , 10-H ) :   0.9637
B(  1-C , 11-H ) :   0.9815 B(  2-C ,  3-O ) :   0.7735 B(  2-C , 12-H ) :   0.9502
B(  2-C , 13-H ) :   0.9658 B(  3-O ,  4-C ) :   1.0783 B(  4-C ,  5-O ) :   1.7655
B(  4-C ,  6-C ) :   0.9596 B(  6-C , 14-H ) :   0.9831 B(  6-C , 15-H ) :   0.9453
B(  6-C , 16-H ) :   0.9321

Dispersion correction           -0.004117084
FINAL SINGLE POINT ENERGY      -346.942133859545

DIPOLE MOMENT
-------------

Method             : SCF
Type of density    : Electron Density
Multiplicity       :   1
Irrep              :   0
Energy             :  -346.9485230814275383 Eh
Relativity type    :
Basis              : AO
                                X                 Y                 Z
Electronic contribution:      4.544009855      -0.654103487       2.407556901
Nuclear contribution   :     -4.911616232       1.809133859      -2.518922909
                        -----------------------------------------
Total Dipole Moment    :     -0.367606377       1.155030372      -0.111366008
                        -----------------------------------------
Magnitude (a.u.)       :      1.217223068
Magnitude (Debye)      :      3.093935160

Rotational constants in cm-1:             0.157084             0.052624             0.050341
Rotational constants in MHz :          4709.265153          1577.625249          1509.177713

                             ****ORCA TERMINATED NORMALLY****
TOTAL RUN TIME: 0 days 0 hours 0 minutes 25 seconds 547 msec
