                         Program Version 6.0.0  -   RELEASE  -
|  1> ! pbe def2-sv(p) def2/J RI DEFGRID1 loosescf d4 GCP(DFT/SV(P)) printgap
|  2> %output
|  3>     printlevel normal
|  4> end
|  5> * xyz 0 1
|  6> C -2.2526882385 1.091862493 0.2688833639
|  7> C -1.8277509914 -0.3604777809 0.0866974743
|  8> C -0.558841021 -0.5664759627 -0.7472369773
|  9> C 0.7807777267 -0.1491519559 -0.0871336654
| 10> C 1.0872901839 1.3360425496 -0.2971181399
| 11> C 1.9138920471 -0.975102259 -0.7143657877
| 12> O 0.7543151024 -0.3605317361 1.3204847131
| 13> H -3.2580302231 1.1335176117 0.6827039554
| 14> H -2.2506028505 1.6178704646 -0.6830834648
| 15> H -1.5878827894 1.6048924592 0.9579952157
| 16> H -1.6920894986 -0.8119596254 1.0709036838
| 17> H -2.6351244483 -0.8987584016 -0.4162717584
| 18> H -0.4989895109 -1.6327583594 -0.9814779149
| 19> H -0.6559171543 -0.0292439589 -1.6914560236
| 20> H 1.1332295349 1.562860249 -1.3576753606
| 21> H 2.0451606322 1.5721970468 0.1600445221
| 22> H 0.3296180127 1.9553160372 0.1683986285
| 23> H 1.7543776598 -2.0387901555 -0.5471650915
| 24> H 2.866462318 -0.6934679788 -0.2715306701
| 25> H 1.9577642884 -0.7963074048 -1.784719376
| 26> H 0.7345927291 -1.3113340716 1.4913440488
| 27> *
| 28>
| 29>                          ****END OF INPUT****

CARTESIAN COORDINATES (ANGSTROEM)
---------------------------------
  C     -2.252688    1.091862    0.268883
  C     -1.827751   -0.360478    0.086697
  C     -0.558841   -0.566476   -0.747237
  C      0.780778   -0.149152   -0.087134
  C      1.087290    1.336043   -0.297118
  C      1.913892   -0.975102   -0.714366
  O      0.754315   -0.360532    1.320485
  H     -3.258030    1.133518    0.682704
  H     -2.250603    1.617870   -0.683083
  H     -1.587883    1.604892    0.957995
  H     -1.692089   -0.811960    1.070904
  H     -2.635124   -0.898758   -0.416272
  H     -0.498990   -1.632758   -0.981478
  H     -0.655917   -0.029244   -1.691456
  H      1.133230    1.562860   -1.357675
  H      2.045161    1.572197    0.160045
  H      0.329618    1.955316    0.168399
  H      1.754378   -2.038790   -0.547165
  H      2.866462   -0.693468   -0.271531
  H      1.957764   -0.796307   -1.784719
  H      0.734593   -1.311334    1.491344

 Total Charge           Charge          ....    0
 Multiplicity           Mult            ....    1
 Number of Electrons    NEL             ....   58
 Basis Dimension        Dim             ....  126

ORBITAL ENERGIES
----------------

  NO   OCC          E(Eh)            E(eV)
   0   2.0000     -18.739326      -509.9230
   1   2.0000      -9.945714      -270.6366
   2   2.0000      -9.878917      -268.8190
   3   2.0000      -9.878626      -268.8111
   4   2.0000      -9.874102      -268.6880
   5   2.0000      -9.868132      -268.5255
   6   2.0000      -9.866815      -268.4897
   7   2.0000      -0.918165       -24.9845
   8   2.0000      -0.718167       -19.5423
   9   2.0000      -0.680178       -18.5086
  10   2.0000      -0.617448       -16.8016
  11   2.0000      -0.605540       -16.4776
  12   2.0000      -0.526685       -14.3318
  13   2.0000      -0.505635       -13.7590
  14   2.0000      -0.429722       -11.6933
  15   2.0000      -0.416722       -11.3396
  16   2.0000      -0.406937       -11.0733
  17   2.0000      -0.375957       -10.2303
  18   2.0000      -0.374471       -10.1899
  19   2.0000      -0.348492        -9.4830
  20   2.0000      -0.338639        -9.2148
  21   2.0000      -0.335708        -9.1351
  22   2.0000      -0.326815        -8.8931
  23   2.0000      -0.311819        -8.4850
  24   2.0000      -0.292578        -7.9615
  25   2.0000      -0.285033        -7.7562
  26   2.0000      -0.274122        -7.4592
  27   2.0000      -0.261086        -7.1045
  28   2.0000      -0.212609        -5.7854
  29   0.0000       0.018771         0.5108
  30   0.0000       0.060119         1.6359
  31   0.0000       0.064502         1.7552
  32   0.0000       0.073724         2.0061
  33   0.0000       0.079239         2.1562

MULLIKEN ATOMIC CHARGES
-----------------------
   0 C :   -0.293397
   1 C :   -0.143616
   2 C :   -0.142482
   3 C :   -0.043656
   4 C :   -0.211504
   5 C :   -0.229372
   6 O :   -0.418445
   7 H :    0.096913
   8 H :    0.092926
   9 H :    0.126673
  10 H :    0.070636
  11 H :    0.078864
  12 H :    0.064073
  13 H :    0.075689
  14 H :    0.092451
  15 H :    0.098467
  16 H :    0.106093
  17 H :    0.086082
  18 H :    0.103103
  19 H :    0.096749
  20 H :    0.293753
Sum of atomic charges:    0.0000000

LOEWDIN ATOMIC CHARGES
----------------------
   0 C :   -0.344380
   1 C :   -0.233891
   2 C :   -0.231774
   3 C :   -0.013955
   4 C :   -0.327186
   5 C :   -0.338015
   6 O :   -0.316069
   7 H :    0.118320
   8 H :    0.113954
   9 H :    0.120668
  10 H :    0.111267
  11 H :    0.114255
  12 H :    0.111202
  13 H :    0.117880
  14 H :    0.120165
  15 H :    0.121439
  16 H :    0.122844
  17 H :    0.110393
  18 H :    0.119712
  19 H :    0.122787
  20 H :    0.280385

  Mayer bond orders larger than 0.100000
B(  0-C ,  1-C ) :   1.1615 B(  0-C ,  7-H ) :   0.9473 B(  0-C ,  8-H ) :   0.9541
B(  0-C ,  9-H ) :   0.9407 B(  1-C ,  2-C ) :   1.1384 B(  1-C , 10-H ) :   0.9099
B(  1-C , 11-H ) :   0.9247 B(  2-C ,  3-C ) :   1.0150 B(  2-C , 12-H ) :   0.9112
B(  2-C , 13-H ) :   0.9096 B(  3-C ,  4-C ) :   1.0900 B(  3-C ,  5-C ) :   1.0925
B(  3-C ,  6-O ) :   1.0302 B(  4-C , 14-H ) :   0.9446 B(  4-C , 15-H ) :   0.9403
B(  4-C , 16-H ) :   0.9328 B(  5-C , 17-H ) :   0.9358 B(  5-C , 18-H ) :   0.9434
B(  5-C , 19-H ) :   0.9411 B(  6-O , 20-H ) :   0.8500

Dispersion correction           -0.017094597
FINAL SINGLE POINT ENERGY      -311.518175071896

DIPOLE MOMENT
-------------

Method             : SCF
Type of density    : Electron Density
Multiplicity       :   1
Irrep              :   0
Energy             :  -311.5973515934423972 Eh
Relativity type    :
Basis              : AO
                                X                 Y                 Z
Electronic contribution:      1.657912971      -1.593132881       2.677060674
Nuclear contribution   :     -1.637563362       1.152375063      -2.984392911
                        -----------------------------------------
Total Dipole Moment    :      0.020349609      -0.440757818      -0.307332237
                        -----------------------------------------
Magnitude (a.u.)       :      0.537712437
Magnitude (Debye)      :      1.366756397

Rotational constants in cm-1:             0.130568             0.057034             0.053837
Rotational constants in MHz :          3914.317082          1709.824836          1613.982955

                             ****ORCA TERMINATED NORMALLY****
TOTAL RUN TIME: 0 days 0 hours 0 minutes 8 seconds 591 msec
