                         Program Version 6.0.0  -   RELEASE  -
|  1> ! pbe def2-sv(p) def2/J RI DEFGRID1 loosescf d4 GCP(DFT/SV(P)) printgap
|  2> %output
|  3>     printlevel normal
|  4> end
|  5> * xyz 0 1
|  6> C 2.7801794392 -0.7401670163 1.7338950103
|  7> C 3.2475263584 -1.141933404 0.334557061
|  8> C 3.3228718223 0.034975766 -0.6061355216
|  9> O 4.3872386637 0.3765063034 -1.1121866559
| 10> N 2.2231066691 0.7892150029 -0.8726477932
| 11> C 0.8738168762 0.7066782518 -0.5335427738
| 12> C 0.153915852 1.9021358578 -0.4519716802
| 13> C -1.1906051487 1.9015475265 -0.1436313858
| 14> C -1.8520240876 0.7037763901 0.0838653164
| 15> C -1.1506533915 -0.4904661606 -0.0195662034
| 16> C 0.1982140324 -0.4947660942 -0.3319954669
| 17> Cl -1.9621532191 -2.0021314704 0.2307216289
| 18> Cl -3.5406871188 0.7006075393 0.478816768
| 19> H 3.4295376939 0.0329919975 2.1369652109
| 20> H 2.8267762781 -1.6038738629 2.3911115233
| 21> H 1.7598502842 -0.3683255414 1.7233571604
| 22> H 2.6038439368 -1.9163244895 -0.0793745911
| 23> H 4.2593800737 -1.5480468994 0.3909108313
| 24> H 2.4657350432 1.6320090377 -1.3857881185
| 25> H 0.6548719535 2.8406374711 -0.6258840088
| 26> H -1.7372376275 2.8271271167 -0.0753338315
| 27> H 0.6947851279 -1.4425960566 -0.4323509694
| 28> *
| 29>
| 30>                          ****END OF INPUT****

CARTESIAN COORDINATES (ANGSTROEM)
---------------------------------
  C      2.780179   -0.740167    1.733895
  C      3.247526   -1.141933    0.334557
  C      3.322872    0.034976   -0.606136
  O      4.387239    0.376506   -1.112187
  N      2.223107    0.789215   -0.872648
  C      0.873817    0.706678   -0.533543
  C      0.153916    1.902136   -0.451972
  C     -1.190605    1.901548   -0.143631
  C     -1.852024    0.703776    0.083865
  C     -1.150653   -0.490466   -0.019566
  C      0.198214   -0.494766   -0.331995
  Cl    -1.962153   -2.002131    0.230722
  Cl    -3.540687    0.700608    0.478817
  H      3.429538    0.032992    2.136965
  H      2.826776   -1.603874    2.391112
  H      1.759850   -0.368326    1.723357
  H      2.603844   -1.916324   -0.079375
  H      4.259380   -1.548047    0.390911
  H      2.465735    1.632009   -1.385788
  H      0.654872    2.840637   -0.625884
  H     -1.737238    2.827127   -0.075334
  H      0.694785   -1.442596   -0.432351

 Total Charge           Charge          ....    0
 Multiplicity           Mult            ....    1
 Number of Electrons    NEL             ....  112
 Basis Dimension        Dim             ....  208

ORBITAL ENERGIES
----------------

  NO   OCC          E(Eh)            E(eV)
   0   2.0000    -100.653837     -2738.9302
   1   2.0000    -100.650792     -2738.8473
   2   2.0000     -18.727177      -509.5924
   3   2.0000     -14.044257      -382.1637
   4   2.0000      -9.998753      -272.0799
   5   2.0000      -9.973353      -271.3887
   6   2.0000      -9.966822      -271.2110
   7   2.0000      -9.966400      -271.1995
   8   2.0000      -9.923492      -270.0319
   9   2.0000      -9.923173      -270.0233
  10   2.0000      -9.919669      -269.9279
  11   2.0000      -9.907639      -269.6006
  12   2.0000      -9.893233      -269.2086
  13   2.0000      -9.189526      -250.0597
  14   2.0000      -9.186402      -249.9747
  15   2.0000      -7.021114      -191.0542
  16   2.0000      -7.018025      -190.9702
  17   2.0000      -7.009537      -190.7392
  18   2.0000      -7.008698      -190.7164
  19   2.0000      -7.006374      -190.6531
  20   2.0000      -7.005606      -190.6322
  21   2.0000      -0.949564       -25.8390
  22   2.0000      -0.870140       -23.6777
  23   2.0000      -0.841770       -22.9057
  24   2.0000      -0.789590       -21.4858
  25   2.0000      -0.768373       -20.9085
  26   2.0000      -0.716065       -19.4851
  27   2.0000      -0.691668       -18.8212
  28   2.0000      -0.672712       -18.3054
  29   2.0000      -0.603885       -16.4325
  30   2.0000      -0.581895       -15.8342
  31   2.0000      -0.570872       -15.5342
  32   2.0000      -0.536996       -14.6124
  33   2.0000      -0.502796       -13.6818
  34   2.0000      -0.462871       -12.5954
  35   2.0000      -0.455306       -12.3895
  36   2.0000      -0.432451       -11.7676
  37   2.0000      -0.423021       -11.5110
  38   2.0000      -0.408984       -11.1290
  39   2.0000      -0.406095       -11.0504
  40   2.0000      -0.401855       -10.9350
  41   2.0000      -0.386201       -10.5091
  42   2.0000      -0.372433       -10.1344
  43   2.0000      -0.363285        -9.8855
  44   2.0000      -0.349666        -9.5149
  45   2.0000      -0.342765        -9.3271
  46   2.0000      -0.334662        -9.1066
  47   2.0000      -0.317554        -8.6411
  48   2.0000      -0.313690        -8.5359
  49   2.0000      -0.310361        -8.4454
  50   2.0000      -0.290726        -7.9110
  51   2.0000      -0.267791        -7.2870
  52   2.0000      -0.264153        -7.1880
  53   2.0000      -0.241066        -6.5597
  54   2.0000      -0.209684        -5.7058
  55   2.0000      -0.207622        -5.6497
  56   0.0000      -0.066561        -1.8112
  57   0.0000      -0.063659        -1.7323
  58   0.0000      -0.025377        -0.6906
  59   0.0000      -0.012272        -0.3339
  60   0.0000       0.024216         0.6589

MULLIKEN ATOMIC CHARGES
-----------------------
   0 C :   -0.307543
   1 C :   -0.198781
   2 C :    0.040450
   3 O :   -0.205848
   4 N :   -0.177852
   5 C :    0.222000
   6 C :   -0.116074
   7 C :   -0.108794
   8 C :    0.087107
   9 C :    0.074201
  10 C :   -0.183767
  11 Cl:   -0.049167
  12 Cl:   -0.055996
  13 H :    0.115402
  14 H :    0.116742
  15 H :    0.142144
  16 H :    0.125776
  17 H :    0.106304
  18 H :    0.236028
  19 H :    0.046475
  20 H :    0.058923
  21 H :    0.032268
Sum of atomic charges:    0.0000000

LOEWDIN ATOMIC CHARGES
----------------------
   0 C :   -0.339517
   1 C :   -0.254389
   2 C :    0.032438
   3 O :   -0.187889
   4 N :   -0.106330
   5 C :    0.000139
   6 C :   -0.139188
   7 C :   -0.123404
   8 C :   -0.165912
   9 C :   -0.144858
  10 C :   -0.156928
  11 Cl:    0.146494
  12 Cl:    0.140390
  13 H :    0.126936
  14 H :    0.127822
  15 H :    0.125172
  16 H :    0.130678
  17 H :    0.140213
  18 H :    0.243751
  19 H :    0.130998
  20 H :    0.137724
  21 H :    0.135659

  Mayer bond orders larger than 0.100000
B(  0-C ,  1-C ) :   1.1305 B(  0-C , 13-H ) :   0.9515 B(  0-C , 14-H ) :   0.9479
B(  0-C , 15-H ) :   0.9375 B(  1-C ,  2-C ) :   1.0429 B(  1-C , 16-H ) :   0.8899
B(  1-C , 17-H ) :   0.9003 B(  2-C ,  3-O ) :   2.0989 B(  2-C ,  4-N ) :   1.1449
B(  4-N ,  5-C ) :   1.0565 B(  4-N , 18-H ) :   0.8342 B(  5-C ,  6-C ) :   1.3157
B(  5-C , 10-C ) :   1.2962 B(  6-C ,  7-C ) :   1.3600 B(  6-C , 19-H ) :   0.9636
B(  7-C ,  8-C ) :   1.3668 B(  7-C , 20-H ) :   0.9625 B(  8-C ,  9-C ) :   1.4163
B(  8-C , 12-Cl) :   1.0340 B(  9-C , 10-C ) :   1.3665 B(  9-C , 11-Cl) :   1.0457
B( 10-C , 21-H ) :   0.9587

Dispersion correction           -0.029248019
FINAL SINGLE POINT ENERGY     -1397.087058906675

DIPOLE MOMENT
-------------

Method             : SCF
Type of density    : Electron Density
Multiplicity       :   1
Irrep              :   0
Energy             : -1397.1460370134252571 Eh
Relativity type    :
Basis              : AO
                                X                 Y                 Z
Electronic contribution:    -23.704529502      -1.850493679      -2.552733949
Nuclear contribution   :     23.372229932       2.182381496       2.820005430
                        -----------------------------------------
Total Dipole Moment    :     -0.332299570       0.331887817       0.267271481
                        -----------------------------------------
Magnitude (a.u.)       :      0.540376324
Magnitude (Debye)      :      1.373527460

Rotational constants in cm-1:             0.040009             0.010937             0.009320
Rotational constants in MHz :          1199.441280           327.884554           279.406551

                             ****ORCA TERMINATED NORMALLY****
TOTAL RUN TIME: 0 days 0 hours 0 minutes 15 seconds 641 msec
