                         Program Version 6.0.0  -   RELEASE  -
|  1> ! pbe def2-sv(p) def2/J RI DEFGRID1 loosescf d4 GCP(DFT/SV(P)) printgap
|  2> %output
|  3>     printlevel normal
|  4> end
|  5> * xyz 0 1
|  6> C 2.4114223732 0.6200548158 -0.6285760686
|  7> C 1.0762793851 -0.081106144 -0.3657873104
|  8> H 0.7200995989 -0.5222853887 -1.3094230745
|  9> C 0.0447459182 0.9302836236 0.148093594
| 10> C -1.4225030413 0.4732800453 0.1782672915
| 11> C -1.9144234694 0.0058453836 -1.1909277814
| 12> C -1.66942597 -0.6037034701 1.2313443292
| 13> O 1.2311605757 -1.1105402405 0.5990524756
| 14> H 2.2866783361 1.3961340719 -1.3777488078
| 15> H 2.7787560689 1.070972435 0.2904234315
| 16> H 3.1517181639 -0.0910706851 -0.9893189925
| 17> H 0.3408780654 1.2142438223 1.1601006421
| 18> H 0.1116650489 1.8158451578 -0.4865827683
| 19> H -2.0083342072 1.3577526045 0.4590206513
| 20> H -2.994928392 -0.1159053176 -1.1753625582
| 21> H -1.4737376088 -0.9525454161 -1.4533763498
| 22> H -1.6607440918 0.7315449834 -1.9602729404
| 23> H -1.392114468 -0.2413376683 2.2183655308
| 24> H -2.7207194533 -0.8825441134 1.2467983865
| 25> H -1.0743499527 -1.4869149909 1.0186207193
| 26> H 1.9560080663 -1.6892310188 0.3282517303
| 27> *
| 28>
| 29>                          ****END OF INPUT****

CARTESIAN COORDINATES (ANGSTROEM)
---------------------------------
  C      2.411422    0.620055   -0.628576
  C      1.076279   -0.081106   -0.365787
  H      0.720100   -0.522285   -1.309423
  C      0.044746    0.930284    0.148094
  C     -1.422503    0.473280    0.178267
  C     -1.914423    0.005845   -1.190928
  C     -1.669426   -0.603703    1.231344
  O      1.231161   -1.110540    0.599052
  H      2.286678    1.396134   -1.377749
  H      2.778756    1.070972    0.290423
  H      3.151718   -0.091071   -0.989319
  H      0.340878    1.214244    1.160101
  H      0.111665    1.815845   -0.486583
  H     -2.008334    1.357753    0.459021
  H     -2.994928   -0.115905   -1.175363
  H     -1.473738   -0.952545   -1.453376
  H     -1.660744    0.731545   -1.960273
  H     -1.392114   -0.241338    2.218366
  H     -2.720719   -0.882544    1.246798
  H     -1.074350   -1.486915    1.018621
  H      1.956008   -1.689231    0.328252

 Total Charge           Charge          ....    0
 Multiplicity           Mult            ....    1
 Number of Electrons    NEL             ....   58
 Basis Dimension        Dim             ....  126

ORBITAL ENERGIES
----------------

  NO   OCC          E(Eh)            E(eV)
   0   2.0000     -18.740226      -509.9475
   1   2.0000      -9.936226      -270.3785
   2   2.0000      -9.886888      -269.0359
   3   2.0000      -9.877144      -268.7708
   4   2.0000      -9.876154      -268.7438
   5   2.0000      -9.866906      -268.4922
   6   2.0000      -9.854840      -268.1638
   7   2.0000      -0.917907       -24.9775
   8   2.0000      -0.724472       -19.7139
   9   2.0000      -0.675927       -18.3929
  10   2.0000      -0.607665       -16.5354
  11   2.0000      -0.598874       -16.2962
  12   2.0000      -0.539453       -14.6793
  13   2.0000      -0.479594       -13.0504
  14   2.0000      -0.459349       -12.4995
  15   2.0000      -0.414677       -11.2839
  16   2.0000      -0.392863       -10.6904
  17   2.0000      -0.381558       -10.3827
  18   2.0000      -0.367902       -10.0111
  19   2.0000      -0.358941        -9.7673
  20   2.0000      -0.333474        -9.0743
  21   2.0000      -0.329545        -8.9674
  22   2.0000      -0.319279        -8.6880
  23   2.0000      -0.310430        -8.4472
  24   2.0000      -0.292780        -7.9670
  25   2.0000      -0.277136        -7.5413
  26   2.0000      -0.274524        -7.4702
  27   2.0000      -0.251411        -6.8412
  28   2.0000      -0.212503        -5.7825
  29   0.0000       0.021618         0.5883
  30   0.0000       0.047510         1.2928
  31   0.0000       0.068201         1.8558
  32   0.0000       0.075623         2.0578
  33   0.0000       0.085965         2.3392

MULLIKEN ATOMIC CHARGES
-----------------------
   0 C :   -0.257270
   1 C :    0.002016
   2 H :    0.061978
   3 C :   -0.121832
   4 C :   -0.154351
   5 C :   -0.263697
   6 C :   -0.240756
   7 O :   -0.418458
   8 H :    0.096849
   9 H :    0.103578
  10 H :    0.089743
  11 H :    0.080554
  12 H :    0.077551
  13 H :    0.066269
  14 H :    0.097210
  15 H :    0.106960
  16 H :    0.091485
  17 H :    0.090469
  18 H :    0.086390
  19 H :    0.111771
  20 H :    0.293542
Sum of atomic charges:   -0.0000000

LOEWDIN ATOMIC CHARGES
----------------------
   0 C :   -0.351405
   1 C :   -0.057875
   2 H :    0.095648
   3 C :   -0.219720
   4 C :   -0.155209
   5 C :   -0.333215
   6 C :   -0.335852
   7 O :   -0.326230
   8 H :    0.122546
   9 H :    0.121969
  10 H :    0.111852
  11 H :    0.120574
  12 H :    0.117769
  13 H :    0.113033
  14 H :    0.118502
  15 H :    0.116662
  16 H :    0.113259
  17 H :    0.115587
  18 H :    0.110807
  19 H :    0.120324
  20 H :    0.280976

  Mayer bond orders larger than 0.100000
B(  0-C ,  1-C ) :   1.1123 B(  0-C ,  8-H ) :   0.9373 B(  0-C ,  9-H ) :   0.9434
B(  0-C , 10-H ) :   0.9455 B(  1-C ,  2-H ) :   0.8987 B(  1-C ,  3-C ) :   1.0743
B(  1-C ,  7-O ) :   1.0438 B(  3-C ,  4-C ) :   1.0934 B(  3-C , 11-H ) :   0.9037
B(  3-C , 12-H ) :   0.9157 B(  4-C ,  5-C ) :   1.1115 B(  4-C ,  6-C ) :   1.1190
B(  4-C , 13-H ) :   0.9028 B(  5-C , 14-H ) :   0.9483 B(  5-C , 15-H ) :   0.9436
B(  5-C , 16-H ) :   0.9510 B(  6-C , 17-H ) :   0.9498 B(  6-C , 18-H ) :   0.9492
B(  6-C , 19-H ) :   0.9340 B(  7-O , 20-H ) :   0.8509

Dispersion correction           -0.016613759
FINAL SINGLE POINT ENERGY      -311.516985954801

DIPOLE MOMENT
-------------

Method             : SCF
Type of density    : Electron Density
Multiplicity       :   1
Irrep              :   0
Energy             :  -311.5969095971479419 Eh
Relativity type    :
Basis              : AO
                                X                 Y                 Z
Electronic contribution:      2.261503814      -1.489260937       1.459569983
Nuclear contribution   :     -1.838471390       1.488950811      -1.896054808
                        -----------------------------------------
Total Dipole Moment    :      0.423032423      -0.000310127      -0.436484824
                        -----------------------------------------
Magnitude (a.u.)       :      0.607844988
Magnitude (Debye)      :      1.545019175

Rotational constants in cm-1:             0.132327             0.054960             0.047362
Rotational constants in MHz :          3967.055800          1647.661196          1419.879611

                             ****ORCA TERMINATED NORMALLY****
TOTAL RUN TIME: 0 days 0 hours 0 minutes 9 seconds 405 msec
