                         Program Version 6.0.0  -   RELEASE  -
|  1> ! pbe def2-sv(p) def2/J RI DEFGRID1 loosescf d4 GCP(DFT/SV(P)) printgap
|  2> %output
|  3>     printlevel normal
|  4> end
|  5> * xyz 0 1
|  6> C -1.2330153349 0.1986035718 -0.2920016948
|  7> C 0.1251573549 0.6602266917 0.2651373603
|  8> C 1.2776276248 -0.1889525449 -0.296474085
|  9> O 1.0884065578 -1.5338456367 0.0876612361
| 10> O 0.3513807477 2.0279364586 0.0210812658
| 11> O -1.6741101185 -1.0098289067 0.2754256688
| 12> H -1.1695865851 0.103870794 -1.3874316363
| 13> H -1.9909418095 0.947739801 -0.0470847524
| 14> H 0.1051682365 0.5514070019 1.3550473088
| 15> H 2.2203258107 0.2076287883 0.0993872282
| 16> H 1.2877998343 -0.1022291167 -1.392735941
| 17> H 1.8509070923 -2.0604934868 -0.1886609458
| 18> H 0.3270304812 2.1957090223 -0.9322182989
| 19> H -0.9342073081 -1.6394758731 0.2485950737
| 20> *
| 21>
| 22>                          ****END OF INPUT****

CARTESIAN COORDINATES (ANGSTROEM)
---------------------------------
  C     -1.233015    0.198604   -0.292002
  C      0.125157    0.660227    0.265137
  C      1.277628   -0.188953   -0.296474
  O      1.088407   -1.533846    0.087661
  O      0.351381    2.027936    0.021081
  O     -1.674110   -1.009829    0.275426
  H     -1.169587    0.103871   -1.387432
  H     -1.990942    0.947740   -0.047085
  H      0.105168    0.551407    1.355047
  H      2.220326    0.207629    0.099387
  H      1.287800   -0.102229   -1.392736
  H      1.850907   -2.060493   -0.188661
  H      0.327030    2.195709   -0.932218
  H     -0.934207   -1.639476    0.248595

 Total Charge           Charge          ....    0
 Multiplicity           Mult            ....    1
 Number of Electrons    NEL             ....   50
 Basis Dimension        Dim             ....  100

ORBITAL ENERGIES
----------------

  NO   OCC          E(Eh)            E(eV)
   0   2.0000     -18.774589      -510.8825
   1   2.0000     -18.754536      -510.3369
   2   2.0000     -18.725864      -509.5567
   3   2.0000      -9.943613      -270.5795
   4   2.0000      -9.938920      -270.4518
   5   2.0000      -9.922309      -269.9998
   6   2.0000      -0.949401       -25.8345
   7   2.0000      -0.930634       -25.3238
   8   2.0000      -0.902621       -24.5616
   9   2.0000      -0.679398       -18.4873
  10   2.0000      -0.606003       -16.4902
  11   2.0000      -0.549810       -14.9611
  12   2.0000      -0.493774       -13.4363
  13   2.0000      -0.467999       -12.7349
  14   2.0000      -0.432470       -11.7681
  15   2.0000      -0.403911       -10.9910
  16   2.0000      -0.402349       -10.9485
  17   2.0000      -0.363544        -9.8925
  18   2.0000      -0.348078        -9.4717
  19   2.0000      -0.323895        -8.8136
  20   2.0000      -0.283227        -7.7070
  21   2.0000      -0.271729        -7.3941
  22   2.0000      -0.238788        -6.4978
  23   2.0000      -0.230368        -6.2686
  24   2.0000      -0.196088        -5.3358
  25   0.0000       0.003502         0.0953
  26   0.0000       0.020374         0.5544
  27   0.0000       0.071979         1.9586
  28   0.0000       0.077359         2.1050
  29   0.0000       0.093306         2.5390

MULLIKEN ATOMIC CHARGES
-----------------------
   0 C :    0.039471
   1 C :   -0.025791
   2 C :    0.013024
   3 O :   -0.442588
   4 O :   -0.420169
   5 O :   -0.448585
   6 H :    0.046196
   7 H :    0.092269
   8 H :    0.088151
   9 H :    0.090872
  10 H :    0.057694
  11 H :    0.313335
  12 H :    0.296653
  13 H :    0.299469
Sum of atomic charges:   -0.0000000

LOEWDIN ATOMIC CHARGES
----------------------
   0 C :   -0.135615
   1 C :   -0.091210
   2 C :   -0.138541
   3 O :   -0.336189
   4 O :   -0.311547
   5 O :   -0.347229
   6 H :    0.085061
   7 H :    0.112900
   8 H :    0.120822
   9 H :    0.103538
  10 H :    0.089973
  11 H :    0.294208
  12 H :    0.283503
  13 H :    0.270326

  Mayer bond orders larger than 0.100000
B(  0-C ,  1-C ) :   1.0434 B(  0-C ,  5-O ) :   1.0864 B(  0-C ,  6-H ) :   0.9053
B(  0-C ,  7-H ) :   0.9261 B(  1-C ,  2-C ) :   1.0538 B(  1-C ,  4-O ) :   1.0270
B(  1-C ,  8-H ) :   0.8918 B(  2-C ,  3-O ) :   1.0464 B(  2-C ,  9-H ) :   0.9211
B(  2-C , 10-H ) :   0.9082 B(  3-O , 11-H ) :   0.8420 B(  4-O , 12-H ) :   0.8509
B(  5-O , 13-H ) :   0.8198

Dispersion correction           -0.009293151
FINAL SINGLE POINT ENERGY      -344.007958379381

DIPOLE MOMENT
-------------

Method             : SCF
Type of density    : Electron Density
Multiplicity       :   1
Irrep              :   0
Energy             :  -344.0824071260626624 Eh
Relativity type    :
Basis              : AO
                                X                 Y                 Z
Electronic contribution:     -0.403821392      -0.429917516       1.203481262
Nuclear contribution   :      1.588127141       0.183875199      -2.100589479
                        -----------------------------------------
Total Dipole Moment    :      1.184305749      -0.246042318      -0.897108217
                        -----------------------------------------
Magnitude (a.u.)       :      1.505961514
Magnitude (Debye)      :      3.827849965

Rotational constants in cm-1:             0.129388             0.112026             0.064876
Rotational constants in MHz :          3878.947110          3358.461234          1944.927385

                             ****ORCA TERMINATED NORMALLY****
TOTAL RUN TIME: 0 days 0 hours 0 minutes 6 seconds 766 msec
