                         Program Version 6.0.0  -   RELEASE  -
|  1> ! pbe def2-sv(p) def2/J RI DEFGRID1 loosescf d4 GCP(DFT/SV(P)) printgap
|  2> %output
|  3>     printlevel normal
|  4> end
|  5> * xyz 0 1
|  6> C -1.6020636199 0.4533819478 1.2432158506
|  7> C -1.6537940068 -0.5769797618 0.1179501061
|  8> C -2.9786325153 -0.4924119679 -0.6350103101
|  9> C -0.497023879 -0.3672070101 -0.8641392037
| 10> O 0.7588536685 -0.6697420061 -0.2443036972
| 11> C 1.6224754165 0.310560471 -0.004578934
| 12> O 1.4334294736 1.470121953 -0.3091801869
| 13> C 2.8503003707 -0.2054390401 0.6857563397
| 14> H -0.6618273043 0.385428709 1.7868367905
| 15> H -2.4152946675 0.2884533777 1.944514132
| 16> H -1.6880072412 1.4602346086 0.8394324554
| 17> H -1.5445372333 -1.5775404062 0.5486440707
| 18> H -3.0293901651 -1.2495813273 -1.4127338648
| 19> H -3.0873498626 0.4863247935 -1.0960636513
| 20> H -3.8069178998 -0.6446338416 0.0509541431
| 21> H -0.5846576155 -1.0518226063 -1.7110415073
| 22> H -0.4739673425 0.6665644267 -1.2231071607
| 23> H 3.62999953 0.5482578185 0.6548423413
| 24> H 3.1771624064 -1.1246327341 0.2097972066
| 25> H 2.6015549534 -0.4281437404 1.7207623693
| 26> *
| 27>
| 28>                          ****END OF INPUT****

CARTESIAN COORDINATES (ANGSTROEM)
---------------------------------
  C     -1.602064    0.453382    1.243216
  C     -1.653794   -0.576980    0.117950
  C     -2.978633   -0.492412   -0.635010
  C     -0.497024   -0.367207   -0.864139
  O      0.758854   -0.669742   -0.244304
  C      1.622475    0.310560   -0.004579
  O      1.433429    1.470122   -0.309180
  C      2.850300   -0.205439    0.685756
  H     -0.661827    0.385429    1.786837
  H     -2.415295    0.288453    1.944514
  H     -1.688007    1.460235    0.839432
  H     -1.544537   -1.577540    0.548644
  H     -3.029390   -1.249581   -1.412734
  H     -3.087350    0.486325   -1.096064
  H     -3.806918   -0.644634    0.050954
  H     -0.584658   -1.051823   -1.711042
  H     -0.473967    0.666564   -1.223107
  H      3.630000    0.548258    0.654842
  H      3.177162   -1.124633    0.209797
  H      2.601555   -0.428144    1.720762

 Total Charge           Charge          ....    0
 Multiplicity           Mult            ....    1
 Number of Electrons    NEL             ....   64
 Basis Dimension        Dim             ....  136

ORBITAL ENERGIES
----------------

  NO   OCC          E(Eh)            E(eV)
   0   2.0000     -18.796452      -511.4774
   1   2.0000     -18.730142      -509.6731
   2   2.0000     -10.007986      -272.3311
   3   2.0000      -9.939884      -270.4780
   4   2.0000      -9.903143      -269.4782
   5   2.0000      -9.893483      -269.2154
   6   2.0000      -9.883485      -268.9433
   7   2.0000      -9.877414      -268.7781
   8   2.0000      -1.003148       -27.2970
   9   2.0000      -0.908048       -24.7092
  10   2.0000      -0.738260       -20.0891
  11   2.0000      -0.685307       -18.6481
  12   2.0000      -0.624568       -16.9953
  13   2.0000      -0.617721       -16.8090
  14   2.0000      -0.524352       -14.2683
  15   2.0000      -0.501233       -13.6393
  16   2.0000      -0.446311       -12.1447
  17   2.0000      -0.432420       -11.7667
  18   2.0000      -0.414475       -11.2784
  19   2.0000      -0.408896       -11.1266
  20   2.0000      -0.392527       -10.6812
  21   2.0000      -0.374043       -10.1782
  22   2.0000      -0.360738        -9.8162
  23   2.0000      -0.349078        -9.4989
  24   2.0000      -0.340863        -9.2753
  25   2.0000      -0.337473        -9.1831
  26   2.0000      -0.309953        -8.4343
  27   2.0000      -0.304655        -8.2901
  28   2.0000      -0.299745        -8.1565
  29   2.0000      -0.285418        -7.7666
  30   2.0000      -0.249717        -6.7951
  31   2.0000      -0.217451        -5.9171
  32   0.0000      -0.018052        -0.4912
  33   0.0000       0.032433         0.8825
  34   0.0000       0.048805         1.3280
  35   0.0000       0.071951         1.9579
  36   0.0000       0.076250         2.0749

MULLIKEN ATOMIC CHARGES
-----------------------
   0 C :   -0.255345
   1 C :   -0.198764
   2 C :   -0.251853
   3 C :    0.036198
   4 O :   -0.244380
   5 C :    0.082019
   6 O :   -0.208249
   7 C :   -0.245050
   8 H :    0.113730
   9 H :    0.101568
  10 H :    0.104088
  11 H :    0.081624
  12 H :    0.102830
  13 H :    0.099948
  14 H :    0.106944
  15 H :    0.093149
  16 H :    0.103716
  17 H :    0.124001
  18 H :    0.123758
  19 H :    0.130067
Sum of atomic charges:    0.0000000

LOEWDIN ATOMIC CHARGES
----------------------
   0 C :   -0.330774
   1 C :   -0.169783
   2 C :   -0.327607
   3 C :   -0.102551
   4 O :   -0.069337
   5 C :    0.028417
   6 O :   -0.171435
   7 C :   -0.358727
   8 H :    0.119369
   9 H :    0.119168
  10 H :    0.122506
  11 H :    0.118338
  12 H :    0.118627
  13 H :    0.120140
  14 H :    0.122789
  15 H :    0.114450
  16 H :    0.119554
  17 H :    0.139515
  18 H :    0.140797
  19 H :    0.146544

  Mayer bond orders larger than 0.100000
B(  0-C ,  1-C ) :   1.1103 B(  0-C ,  8-H ) :   0.9427 B(  0-C ,  9-H ) :   0.9502
B(  0-C , 10-H ) :   0.9493 B(  1-C ,  2-C ) :   1.1031 B(  1-C ,  3-C ) :   1.0838
B(  1-C , 11-H ) :   0.9005 B(  2-C , 12-H ) :   0.9495 B(  2-C , 13-H ) :   0.9490
B(  2-C , 14-H ) :   0.9504 B(  3-C ,  4-O ) :   0.9327 B(  3-C , 15-H ) :   0.9294
B(  3-C , 16-H ) :   0.8939 B(  4-O ,  5-C ) :   1.1758 B(  5-C ,  6-O ) :   2.0627
B(  5-C ,  7-C ) :   1.0812 B(  7-C , 17-H ) :   0.9419 B(  7-C , 18-H ) :   0.9314
B(  7-C , 19-H ) :   0.9270

Dispersion correction           -0.015627218
FINAL SINGLE POINT ENERGY      -385.458106378401

DIPOLE MOMENT
-------------

Method             : SCF
Type of density    : Electron Density
Multiplicity       :   1
Irrep              :   0
Energy             :  -385.5329436032948252 Eh
Relativity type    :
Basis              : AO
                                X                 Y                 Z
Electronic contribution:      7.103603044       1.363153887      -1.998207377
Nuclear contribution   :     -7.363278616      -2.090648705       2.161619807
                        -----------------------------------------
Total Dipole Moment    :     -0.259675572      -0.727494817       0.163412429
                        -----------------------------------------
Magnitude (a.u.)       :      0.789546537
Magnitude (Debye)      :      2.006867808

Rotational constants in cm-1:             0.144592             0.035141             0.034125
Rotational constants in MHz :          4334.745652          1053.513421          1023.053783

                             ****ORCA TERMINATED NORMALLY****
TOTAL RUN TIME: 0 days 0 hours 0 minutes 12 seconds 238 msec
