                         Program Version 6.0.0  -   RELEASE  -
|  1> ! r2scan-3c def2/J RI DEFGRID2 scfconv6 printgap
|  2> %output
|  3>     printlevel normal
|  4> end
|  5> * xyz 0 1
|  6> C 3.4866728543 0.8431659616 -0.511347112
|  7> C 2.5780795917 -0.070934938 0.2544375989
|  8> C 3.0173283992 -0.8098591067 1.2608069262
|  9> C 1.1358136072 -0.0523784356 -0.1980681804
| 10> H 1.1175758458 0.200183253 -1.26355216
| 11> C 0.4027179566 -1.3835371176 -0.0196080499
| 12> C -0.9605526085 -1.3143207365 -0.7030552896
| 13> C -1.7141993145 -0.091895306 -0.2598892835
| 14> C -1.0998931482 0.9543980389 0.3172429863
| 15> C 0.360724089 1.0363602435 0.559480597
| 16> C -3.1517600501 -0.0610034242 -0.4644419042
| 17> O -3.8964898826 0.8588481813 -0.1732598217
| 18> H 3.0949774251 1.8589012877 -0.5071396709
| 19> H 4.4849759721 0.8511629835 -0.0832535043
| 20> H 3.5549112403 0.518827403 -1.5489767432
| 21> H 2.3797192914 -1.4712798858 1.8197339759
| 22> H 4.0496822597 -0.7845873102 1.5664729606
| 23> H 0.9933912252 -2.1962719062 -0.4431853724
| 24> H 0.2556894002 -1.5833888385 1.0420689112
| 25> H -0.8340584113 -1.2822124117 -1.789004744
| 26> H -1.5452548259 -2.2065898956 -0.4702986158
| 27> H -1.7052923595 1.7933995269 0.6356220619
| 28> H 0.7163553028 2.0305823716 0.280712952
| 29> H 0.5382668231 0.9316402106 1.6351251035
| 30> H -3.5701132522 -0.9726474639 -0.9311139393
| 31> *
| 32>
| 33>                          ****END OF INPUT****

CARTESIAN COORDINATES (ANGSTROEM)
---------------------------------
  C      3.486673    0.843166   -0.511347
  C      2.578080   -0.070935    0.254438
  C      3.017328   -0.809859    1.260807
  C      1.135814   -0.052378   -0.198068
  H      1.117576    0.200183   -1.263552
  C      0.402718   -1.383537   -0.019608
  C     -0.960553   -1.314321   -0.703055
  C     -1.714199   -0.091895   -0.259889
  C     -1.099893    0.954398    0.317243
  C      0.360724    1.036360    0.559481
  C     -3.151760   -0.061003   -0.464442
  O     -3.896490    0.858848   -0.173260
  H      3.094977    1.858901   -0.507140
  H      4.484976    0.851163   -0.083254
  H      3.554911    0.518827   -1.548977
  H      2.379719   -1.471280    1.819734
  H      4.049682   -0.784587    1.566473
  H      0.993391   -2.196272   -0.443185
  H      0.255689   -1.583389    1.042069
  H     -0.834058   -1.282212   -1.789005
  H     -1.545255   -2.206590   -0.470299
  H     -1.705292    1.793400    0.635622
  H      0.716355    2.030582    0.280713
  H      0.538267    0.931640    1.635125
  H     -3.570113   -0.972647   -0.931114

 Total Charge           Charge          ....    0
 Multiplicity           Mult            ....    1
 Number of Electrons    NEL             ....   82
 Basis Dimension        Dim             ....  284

ORBITAL ENERGIES
----------------

  NO   OCC          E(Eh)            E(eV)
   0   2.0000     -18.937188      -515.3071
   1   2.0000     -10.109304      -275.0881
   2   2.0000     -10.054672      -273.6015
   3   2.0000     -10.050769      -273.4953
   4   2.0000     -10.049506      -273.4610
   5   2.0000     -10.047453      -273.4051
   6   2.0000     -10.045417      -273.3497
   7   2.0000     -10.044715      -273.3306
   8   2.0000     -10.039124      -273.1785
   9   2.0000     -10.032133      -272.9882
  10   2.0000     -10.018632      -272.6208
  11   2.0000      -0.997872       -27.1535
  12   2.0000      -0.833133       -22.6707
  13   2.0000      -0.782972       -21.3058
  14   2.0000      -0.731031       -19.8924
  15   2.0000      -0.722620       -19.6635
  16   2.0000      -0.661453       -17.9990
  17   2.0000      -0.624043       -16.9811
  18   2.0000      -0.605760       -16.4836
  19   2.0000      -0.561384       -15.2760
  20   2.0000      -0.508984       -13.8502
  21   2.0000      -0.490247       -13.3403
  22   2.0000      -0.468143       -12.7388
  23   2.0000      -0.443135       -12.0583
  24   2.0000      -0.427069       -11.6211
  25   2.0000      -0.413774       -11.2594
  26   2.0000      -0.411745       -11.2042
  27   2.0000      -0.399511       -10.8712
  28   2.0000      -0.392229       -10.6731
  29   2.0000      -0.377443       -10.2708
  30   2.0000      -0.373685       -10.1685
  31   2.0000      -0.366230        -9.9656
  32   2.0000      -0.355833        -9.6827
  33   2.0000      -0.347444        -9.4544
  34   2.0000      -0.339239        -9.2312
  35   2.0000      -0.314243        -8.5510
  36   2.0000      -0.301312        -8.1991
  37   2.0000      -0.290560        -7.9065
  38   2.0000      -0.239483        -6.5167
  39   2.0000      -0.232662        -6.3311
  40   2.0000      -0.217060        -5.9065
  41   0.0000      -0.092204        -2.5090
  42   0.0000      -0.016990        -0.4623
  43   0.0000       0.033020         0.8985
  44   0.0000       0.064918         1.7665
  45   0.0000       0.087988         2.3943

MULLIKEN ATOMIC CHARGES
-----------------------
   0 C :   -0.530714
   1 C :    0.091788
   2 C :   -0.369344
   3 C :   -0.031648
   4 H :    0.174951
   5 C :   -0.347976
   6 C :   -0.366016
   7 C :    0.120241
   8 C :   -0.104641
   9 C :   -0.372692
  10 C :    0.022332
  11 O :   -0.351808
  12 H :    0.149955
  13 H :    0.151588
  14 H :    0.164821
  15 H :    0.141216
  16 H :    0.143005
  17 H :    0.176764
  18 H :    0.163330
  19 H :    0.178041
  20 H :    0.156763
  21 H :    0.186447
  22 H :    0.155551
  23 H :    0.193806
  24 H :    0.104240
Sum of atomic charges:    0.0000000

LOEWDIN ATOMIC CHARGES
----------------------
   0 C :   -0.390689
   1 C :   -0.121469
   2 C :   -0.321617
   3 C :   -0.200023
   4 H :    0.171520
   5 C :   -0.273911
   6 C :   -0.278349
   7 C :   -0.136155
   8 C :   -0.084520
   9 C :   -0.263565
  10 C :    0.206622
  11 O :   -0.472324
  12 H :    0.160407
  13 H :    0.159650
  14 H :    0.162446
  15 H :    0.159579
  16 H :    0.158506
  17 H :    0.166448
  18 H :    0.164723
  19 H :    0.169125
  20 H :    0.167328
  21 H :    0.186331
  22 H :    0.171496
  23 H :    0.183441
  24 H :    0.155000

  Mayer bond orders larger than 0.100000
B(  0-C ,  1-C ) :   0.8932 B(  0-C , 12-H ) :   0.9660 B(  0-C , 13-H ) :   0.9867
B(  0-C , 14-H ) :   0.9791 B(  1-C ,  2-C ) :   1.8664 B(  1-C ,  3-C ) :   0.8477
B(  2-C , 15-H ) :   0.9831 B(  2-C , 16-H ) :   0.9673 B(  3-C ,  4-H ) :   1.0077
B(  3-C ,  5-C ) :   0.8519 B(  3-C ,  9-C ) :   0.9147 B(  5-C ,  6-C ) :   0.8958
B(  5-C , 17-H ) :   0.9783 B(  5-C , 18-H ) :   0.9796 B(  6-C ,  7-C ) :   0.8756
B(  6-C , 19-H ) :   0.9979 B(  6-C , 20-H ) :   0.9714 B(  7-C ,  8-C ) :   1.7382
B(  7-C , 10-C ) :   0.8982 B(  7-C , 11-O ) :  -0.1263 B(  7-C , 24-H ) :  -0.1006
B(  8-C ,  9-C ) :   0.9149 B(  8-C , 11-O ) :   0.1363 B(  8-C , 21-H ) :   0.9562
B(  9-C , 22-H ) :   0.9574 B(  9-C , 23-H ) :   0.9750 B( 10-C , 11-O ) :   1.9403
B( 10-C , 24-H ) :   1.0284

Dispersion correction           -0.008852385
FINAL SINGLE POINT ENERGY      -464.550710807738

DIPOLE MOMENT
-------------

Method             : SCF
Type of density    : Electron Density
Multiplicity       :   1
Irrep              :   0
Energy             :  -464.5513442564562183 Eh
Relativity type    :
Basis              : AO
                                X                 Y                 Z
Electronic contribution:    -11.358475488       1.718190994      -0.130459611
Nuclear contribution   :     12.636420571      -2.156575125      -0.055845859
                        -----------------------------------------
Total Dipole Moment    :      1.277945082      -0.438384132      -0.186305470
                        -----------------------------------------
Magnitude (a.u.)       :      1.363830638
Magnitude (Debye)      :      3.466581987

Rotational constants in cm-1:             0.096465             0.018273             0.016880
Rotational constants in MHz :          2891.937905           547.813408           506.054231

                             ****ORCA TERMINATED NORMALLY****
TOTAL RUN TIME: 0 days 0 hours 0 minutes 53 seconds 197 msec
