                         Program Version 6.0.0  -   RELEASE  -
|  1> ! r2scan-3c def2/J RI DEFGRID2 scfconv6 printgap
|  2> %output
|  3>     printlevel normal
|  4> end
|  5> %cpcm
|  6>     smd true
|  7>     smdsolvent "water"
|  8> end
|  9> * xyz 0 1
| 10> C 3.4866728543 0.8431659616 -0.511347112
| 11> C 2.5780795917 -0.070934938 0.2544375989
| 12> C 3.0173283992 -0.8098591067 1.2608069262
| 13> C 1.1358136072 -0.0523784356 -0.1980681804
| 14> H 1.1175758458 0.200183253 -1.26355216
| 15> C 0.4027179566 -1.3835371176 -0.0196080499
| 16> C -0.9605526085 -1.3143207365 -0.7030552896
| 17> C -1.7141993145 -0.091895306 -0.2598892835
| 18> C -1.0998931482 0.9543980389 0.3172429863
| 19> C 0.360724089 1.0363602435 0.559480597
| 20> C -3.1517600501 -0.0610034242 -0.4644419042
| 21> O -3.8964898826 0.8588481813 -0.1732598217
| 22> H 3.0949774251 1.8589012877 -0.5071396709
| 23> H 4.4849759721 0.8511629835 -0.0832535043
| 24> H 3.5549112403 0.518827403 -1.5489767432
| 25> H 2.3797192914 -1.4712798858 1.8197339759
| 26> H 4.0496822597 -0.7845873102 1.5664729606
| 27> H 0.9933912252 -2.1962719062 -0.4431853724
| 28> H 0.2556894002 -1.5833888385 1.0420689112
| 29> H -0.8340584113 -1.2822124117 -1.789004744
| 30> H -1.5452548259 -2.2065898956 -0.4702986158
| 31> H -1.7052923595 1.7933995269 0.6356220619
| 32> H 0.7163553028 2.0305823716 0.280712952
| 33> H 0.5382668231 0.9316402106 1.6351251035
| 34> H -3.5701132522 -0.9726474639 -0.9311139393
| 35> *
| 36>
| 37>                          ****END OF INPUT****

CARTESIAN COORDINATES (ANGSTROEM)
---------------------------------
  C      3.486673    0.843166   -0.511347
  C      2.578080   -0.070935    0.254438
  C      3.017328   -0.809859    1.260807
  C      1.135814   -0.052378   -0.198068
  H      1.117576    0.200183   -1.263552
  C      0.402718   -1.383537   -0.019608
  C     -0.960553   -1.314321   -0.703055
  C     -1.714199   -0.091895   -0.259889
  C     -1.099893    0.954398    0.317243
  C      0.360724    1.036360    0.559481
  C     -3.151760   -0.061003   -0.464442
  O     -3.896490    0.858848   -0.173260
  H      3.094977    1.858901   -0.507140
  H      4.484976    0.851163   -0.083254
  H      3.554911    0.518827   -1.548977
  H      2.379719   -1.471280    1.819734
  H      4.049682   -0.784587    1.566473
  H      0.993391   -2.196272   -0.443185
  H      0.255689   -1.583389    1.042069
  H     -0.834058   -1.282212   -1.789005
  H     -1.545255   -2.206590   -0.470299
  H     -1.705292    1.793400    0.635622
  H      0.716355    2.030582    0.280713
  H      0.538267    0.931640    1.635125
  H     -3.570113   -0.972647   -0.931114

 Total Charge           Charge          ....    0
 Multiplicity           Mult            ....    1
 Number of Electrons    NEL             ....   82
 Basis Dimension        Dim             ....  284

ORBITAL ENERGIES
----------------

  NO   OCC          E(Eh)            E(eV)
   0   2.0000     -18.948889      -515.6255
   1   2.0000     -10.115847      -275.2662
   2   2.0000     -10.050299      -273.4825
   3   2.0000     -10.038731      -273.1678
   4   2.0000     -10.037458      -273.1331
   5   2.0000     -10.034503      -273.0527
   6   2.0000     -10.034260      -273.0461
   7   2.0000     -10.028826      -272.8982
   8   2.0000     -10.021920      -272.7103
   9   2.0000     -10.015281      -272.5296
  10   2.0000     -10.006520      -272.2912
  11   2.0000      -1.012166       -27.5424
  12   2.0000      -0.820868       -22.3370
  13   2.0000      -0.772692       -21.0260
  14   2.0000      -0.717112       -19.5136
  15   2.0000      -0.712025       -19.3752
  16   2.0000      -0.648035       -17.6339
  17   2.0000      -0.615693       -16.7539
  18   2.0000      -0.593437       -16.1483
  19   2.0000      -0.551576       -15.0091
  20   2.0000      -0.496556       -13.5120
  21   2.0000      -0.478499       -13.0206
  22   2.0000      -0.463599       -12.6152
  23   2.0000      -0.432727       -11.7751
  24   2.0000      -0.420995       -11.4559
  25   2.0000      -0.411761       -11.2046
  26   2.0000      -0.400813       -10.9067
  27   2.0000      -0.388522       -10.5722
  28   2.0000      -0.381017       -10.3680
  29   2.0000      -0.374212       -10.1828
  30   2.0000      -0.365127        -9.9356
  31   2.0000      -0.354070        -9.6347
  32   2.0000      -0.345017        -9.3884
  33   2.0000      -0.340942        -9.2775
  34   2.0000      -0.325207        -8.8493
  35   2.0000      -0.297108        -8.0847
  36   2.0000      -0.286687        -7.8012
  37   2.0000      -0.277273        -7.5450
  38   2.0000      -0.235287        -6.4025
  39   2.0000      -0.230145        -6.2626
  40   2.0000      -0.224018        -6.0958
  41   0.0000      -0.093439        -2.5426
  42   0.0000      -0.008062        -0.2194
  43   0.0000       0.037779         1.0280
  44   0.0000       0.079463         2.1623
  45   0.0000       0.102830         2.7981

MULLIKEN ATOMIC CHARGES
-----------------------
   0 C :   -0.568480
   1 C :    0.057587
   2 C :   -0.449224
   3 C :    0.015511
   4 H :    0.193723
   5 C :   -0.364491
   6 C :   -0.370632
   7 C :    0.091970
   8 C :   -0.108789
   9 C :   -0.407820
  10 C :    0.063935
  11 O :   -0.459973
  12 H :    0.171393
  13 H :    0.165019
  14 H :    0.181227
  15 H :    0.165225
  16 H :    0.166171
  17 H :    0.180238
  18 H :    0.180116
  19 H :    0.195899
  20 H :    0.175930
  21 H :    0.195158
  22 H :    0.185112
  23 H :    0.209199
  24 H :    0.135994
Sum of atomic charges:    0.0000000

LOEWDIN ATOMIC CHARGES
----------------------
   0 C :   -0.398448
   1 C :   -0.119254
   2 C :   -0.351809
   3 C :   -0.198301
   4 H :    0.178436
   5 C :   -0.275561
   6 C :   -0.275159
   7 C :   -0.139740
   8 C :   -0.072463
   9 C :   -0.260799
  10 C :    0.223143
  11 O :   -0.557144
  12 H :    0.168244
  13 H :    0.162088
  14 H :    0.168585
  15 H :    0.165288
  16 H :    0.163200
  17 H :    0.167710
  18 H :    0.168902
  19 H :    0.176067
  20 H :    0.174498
  21 H :    0.187216
  22 H :    0.182534
  23 H :    0.190273
  24 H :    0.172492

  Mayer bond orders larger than 0.100000
B(  0-C ,  1-C ) :   0.8985 B(  0-C , 12-H ) :   0.9596 B(  0-C , 13-H ) :   0.9843
B(  0-C , 14-H ) :   0.9712 B(  1-C ,  2-C ) :   1.8459 B(  1-C ,  3-C ) :   0.8289
B(  2-C , 15-H ) :   0.9819 B(  2-C , 16-H ) :   0.9683 B(  3-C ,  4-H ) :   1.0016
B(  3-C ,  5-C ) :   0.8336 B(  3-C ,  9-C ) :   0.9008 B(  5-C ,  6-C ) :   0.8841
B(  5-C , 17-H ) :   0.9748 B(  5-C , 18-H ) :   0.9786 B(  6-C ,  7-C ) :   0.8820
B(  6-C , 19-H ) :   0.9950 B(  6-C , 20-H ) :   0.9704 B(  7-C ,  8-C ) :   1.6740
B(  7-C , 10-C ) :   0.9597 B(  7-C , 11-O ) :  -0.1184 B(  8-C ,  9-C ) :   0.9323
B(  8-C , 11-O ) :   0.1366 B(  8-C , 21-H ) :   0.9539 B(  9-C , 22-H ) :   0.9527
B(  9-C , 23-H ) :   0.9691 B( 10-C , 11-O ) :   1.8614 B( 10-C , 24-H ) :   1.0030

Dispersion correction           -0.008852385
FINAL SINGLE POINT ENERGY      -464.557386097562

DIPOLE MOMENT
-------------

Method             : SCF
Type of density    : Electron Density
Multiplicity       :   1
Irrep              :   0
Energy             :  -464.5580195462795814 Eh
Relativity type    :
Basis              : AO
                                X                 Y                 Z
Electronic contribution:    -10.946994818       1.544459871      -0.275367597
Nuclear contribution   :     12.636420571      -2.156575125      -0.055845859
                        -----------------------------------------
Total Dipole Moment    :      1.689425752      -0.612115254      -0.331213456
                        -----------------------------------------
Magnitude (a.u.)       :      1.827169070
Magnitude (Debye)      :      4.644294688

Rotational constants in cm-1:             0.096465             0.018273             0.016880
Rotational constants in MHz :          2891.937905           547.813408           506.054231

                             ****ORCA TERMINATED NORMALLY****
TOTAL RUN TIME: 0 days 0 hours 1 minutes 11 seconds 97 msec
