                         Program Version 6.0.0  -   RELEASE  -
|  1> ! wb97x-v def2-tzvp def2/J RIJCOSX DEFGRID2 scfconv7 GCP(DFT/TZ) printgap
|  2> %output
|  3>     printlevel normal
|  4> end
|  5> * xyz 0 1
|  6> C -2.095570370307316 -0.6323248225227208 -0.5581286552280336
|  7> C -1.348716694804084 -0.2326186093131938 0.7126940432939078
|  8> C -0.5084873904084117 1.034996354074927 0.5574836776551461
|  9> C 0.5993555741162906 0.9344796562226332 -0.5099775484934611
| 10> C 1.5428399072177217 -0.1391314389935323 -0.24542783869089296
| 11> C 2.3083262744713458 -1.0387794040231928 0.006040266656992211
| 12> H -2.751132887645211 -1.4893323787516097 -0.3738918618291112
| 13> H -1.4062617143791636 -0.9144256173248915 -1.3614225270934814
| 14> H -2.717055076829684 0.19387397841502513 -0.9237490905002659
| 15> H -2.0700546096401617 -0.06720742520780387 1.5220161633504898
| 16> H -0.7035408431267569 -1.059749684333679 1.0365588786269408
| 17> H -1.1578517220858142 1.8730035785858896 0.27726190342893825
| 18> H -0.04668059857890164 1.2897915298413876 1.5177960036353257
| 19> H 1.145747447677332 1.8837810756104365 -0.5555579095962543
| 20> H 0.1565646686092993 0.7843524550762515 -1.501846322951413
| 21> H 2.99255685759303 -1.8300451510829823 0.21707701004627114
| 22> *
| 23>
| 24>                          ****END OF INPUT****

CARTESIAN COORDINATES (ANGSTROEM)
---------------------------------
  C     -2.095570   -0.632325   -0.558129
  C     -1.348717   -0.232619    0.712694
  C     -0.508487    1.034996    0.557484
  C      0.599356    0.934480   -0.509978
  C      1.542840   -0.139131   -0.245428
  C      2.308326   -1.038779    0.006040
  H     -2.751133   -1.489332   -0.373892
  H     -1.406262   -0.914426   -1.361423
  H     -2.717055    0.193874   -0.923749
  H     -2.070055   -0.067207    1.522016
  H     -0.703541   -1.059750    1.036559
  H     -1.157852    1.873004    0.277262
  H     -0.046681    1.289792    1.517796
  H      1.145747    1.883781   -0.555558
  H      0.156565    0.784352   -1.501846
  H      2.992557   -1.830045    0.217077

 Total Charge           Charge          ....    0
 Multiplicity           Mult            ....    1
 Number of Electrons    NEL             ....   46
 Basis Dimension        Dim             ....  246

ORBITAL ENERGIES
----------------

  NO   OCC          E(Eh)            E(eV)
   0   2.0000     -12.069112      -328.4172
   1   2.0000     -12.050111      -327.9002
   2   2.0000     -12.049676      -327.8884
   3   2.0000     -12.040530      -327.6395
   4   2.0000     -12.035881      -327.5130
   5   2.0000     -12.033825      -327.4570
   6   2.0000      -1.328936       -36.1622
   7   2.0000      -1.286103       -34.9966
   8   2.0000      -1.236270       -33.6406
   9   2.0000      -1.153195       -31.3800
  10   2.0000      -1.058562       -28.8049
  11   2.0000      -0.980380       -26.6775
  12   2.0000      -0.931599       -25.3501
  13   2.0000      -0.897509       -24.4225
  14   2.0000      -0.886870       -24.1330
  15   2.0000      -0.842688       -22.9307
  16   2.0000      -0.832991       -22.6668
  17   2.0000      -0.822521       -22.3819
  18   2.0000      -0.777282       -21.1509
  19   2.0000      -0.771477       -20.9930
  20   2.0000      -0.755494       -20.5580
  21   2.0000      -0.676214       -18.4007
  22   2.0000      -0.672311       -18.2945
  23   0.0000      -0.160110        -4.3568
  24   0.0000      -0.148236        -4.0337
  25   0.0000      -0.050718        -1.3801
  26   0.0000      -0.022793        -0.6202
  27   0.0000      -0.007173        -0.1952

MULLIKEN ATOMIC CHARGES
-----------------------
   0 C :   -0.372123
   1 C :   -0.156231
   2 C :   -0.161305
   3 C :   -0.251769
   4 C :   -0.083258
   5 C :   -0.165120
   6 H :    0.116190
   7 H :    0.116687
   8 H :    0.104580
   9 H :    0.094479
  10 H :    0.111157
  11 H :    0.098968
  12 H :    0.104565
  13 H :    0.128798
  14 H :    0.139731
  15 H :    0.174651
Sum of atomic charges:    0.0000000

LOEWDIN ATOMIC CHARGES
----------------------
   0 C :   -0.306944
   1 C :   -0.289197
   2 C :   -0.248868
   3 C :   -0.243766
   4 C :   -0.115367
   5 C :   -0.115730
   6 H :    0.117224
   7 H :    0.116656
   8 H :    0.115700
   9 H :    0.131738
  10 H :    0.137827
  11 H :    0.134334
  12 H :    0.137610
  13 H :    0.153237
  14 H :    0.152370
  15 H :    0.123175

  Mayer bond orders larger than 0.100000
B(  0-C ,  1-C ) :   0.9741 B(  0-C ,  6-H ) :   0.9818 B(  0-C ,  7-H ) :   0.9789
B(  0-C ,  8-H ) :   0.9797 B(  1-C ,  2-C ) :   0.9870 B(  1-C ,  9-H ) :   0.9761
B(  1-C , 10-H ) :   0.9714 B(  2-C ,  3-C ) :   0.9534 B(  2-C , 11-H ) :   0.9800
B(  2-C , 12-H ) :   0.9713 B(  3-C ,  4-C ) :   1.0395 B(  3-C , 13-H ) :   0.9655
B(  3-C , 14-H ) :   0.9920 B(  4-C ,  5-C ) :   2.8276 B(  5-C , 15-H ) :   0.9689

FINAL SINGLE POINT ENERGY      -234.599327167071

DIPOLE MOMENT
-------------

Method             : SCF
Type of density    : Electron Density
Multiplicity       :   1
Irrep              :   0
Energy             :  -234.6092818492712411 Eh
Relativity type    :
Basis              : AO
                                X                 Y                 Z
Electronic contribution:      5.842491422      -0.465969162       0.092170371
Nuclear contribution   :     -6.080138866       0.647200110      -0.068777983
                        -----------------------------------------
Total Dipole Moment    :     -0.237647444       0.181230948       0.023392388
                        -----------------------------------------
Magnitude (a.u.)       :      0.299780199
Magnitude (Debye)      :      0.761980711

Rotational constants in cm-1:             0.194670             0.071024             0.062896
Rotational constants in MHz :          5836.055750          2129.234041          1885.571016

                             ****ORCA TERMINATED NORMALLY****
TOTAL RUN TIME: 0 days 0 hours 1 minutes 42 seconds 729 msec
