                         Program Version 6.0.0  -   RELEASE  -
|  1> ! wb97x-v def2-tzvp def2/J RIJCOSX DEFGRID2 scfconv7 GCP(DFT/TZ) printgap
|  2> %output
|  3>     printlevel normal
|  4> end
|  5> %cpcm
|  6>     smd true
|  7>     smdsolvent "water"
|  8> end
|  9> * xyz 0 1
| 10> C -2.095570370307316 -0.6323248225227208 -0.5581286552280336
| 11> C -1.348716694804084 -0.2326186093131938 0.7126940432939078
| 12> C -0.5084873904084117 1.034996354074927 0.5574836776551461
| 13> C 0.5993555741162906 0.9344796562226332 -0.5099775484934611
| 14> C 1.5428399072177217 -0.1391314389935323 -0.24542783869089296
| 15> C 2.3083262744713458 -1.0387794040231928 0.006040266656992211
| 16> H -2.751132887645211 -1.4893323787516097 -0.3738918618291112
| 17> H -1.4062617143791636 -0.9144256173248915 -1.3614225270934814
| 18> H -2.717055076829684 0.19387397841502513 -0.9237490905002659
| 19> H -2.0700546096401617 -0.06720742520780387 1.5220161633504898
| 20> H -0.7035408431267569 -1.059749684333679 1.0365588786269408
| 21> H -1.1578517220858142 1.8730035785858896 0.27726190342893825
| 22> H -0.04668059857890164 1.2897915298413876 1.5177960036353257
| 23> H 1.145747447677332 1.8837810756104365 -0.5555579095962543
| 24> H 0.1565646686092993 0.7843524550762515 -1.501846322951413
| 25> H 2.99255685759303 -1.8300451510829823 0.21707701004627114
| 26> *
| 27>
| 28>                          ****END OF INPUT****

CARTESIAN COORDINATES (ANGSTROEM)
---------------------------------
  C     -2.095570   -0.632325   -0.558129
  C     -1.348717   -0.232619    0.712694
  C     -0.508487    1.034996    0.557484
  C      0.599356    0.934480   -0.509978
  C      1.542840   -0.139131   -0.245428
  C      2.308326   -1.038779    0.006040
  H     -2.751133   -1.489332   -0.373892
  H     -1.406262   -0.914426   -1.361423
  H     -2.717055    0.193874   -0.923749
  H     -2.070055   -0.067207    1.522016
  H     -0.703541   -1.059750    1.036559
  H     -1.157852    1.873004    0.277262
  H     -0.046681    1.289792    1.517796
  H      1.145747    1.883781   -0.555558
  H      0.156565    0.784352   -1.501846
  H      2.992557   -1.830045    0.217077

 Total Charge           Charge          ....    0
 Multiplicity           Mult            ....    1
 Number of Electrons    NEL             ....   46
 Basis Dimension        Dim             ....  246

ORBITAL ENERGIES
----------------

  NO   OCC          E(Eh)            E(eV)
   0   2.0000     -12.059954      -328.1680
   1   2.0000     -12.055366      -328.0432
   2   2.0000     -12.040044      -327.6263
   3   2.0000     -12.038273      -327.5781
   4   2.0000     -12.032866      -327.4309
   5   2.0000     -12.024639      -327.2071
   6   2.0000      -1.326254       -36.0892
   7   2.0000      -1.285296       -34.9747
   8   2.0000      -1.231178       -33.5021
   9   2.0000      -1.145610       -31.1736
  10   2.0000      -1.050909       -28.5967
  11   2.0000      -0.978303       -26.6210
  12   2.0000      -0.925791       -25.1920
  13   2.0000      -0.888602       -24.1801
  14   2.0000      -0.878956       -23.9176
  15   2.0000      -0.834261       -22.7014
  16   2.0000      -0.824522       -22.4364
  17   2.0000      -0.813568       -22.1383
  18   2.0000      -0.768254       -20.9053
  19   2.0000      -0.762843       -20.7580
  20   2.0000      -0.747383       -20.3373
  21   2.0000      -0.681961       -18.5571
  22   2.0000      -0.677749       -18.4425
  23   0.0000      -0.163174        -4.4402
  24   0.0000      -0.151665        -4.1270
  25   0.0000      -0.045979        -1.2512
  26   0.0000      -0.012740        -0.3467
  27   0.0000       0.001337         0.0364

MULLIKEN ATOMIC CHARGES
-----------------------
   0 C :   -0.413489
   1 C :   -0.174473
   2 C :   -0.185222
   3 C :   -0.244026
   4 C :   -0.124556
   5 C :   -0.240097
   6 H :    0.130301
   7 H :    0.128401
   8 H :    0.121296
   9 H :    0.110157
  10 H :    0.106204
  11 H :    0.118263
  12 H :    0.116997
  13 H :    0.154703
  14 H :    0.164501
  15 H :    0.231041
Sum of atomic charges:    0.0000000

LOEWDIN ATOMIC CHARGES
----------------------
   0 C :   -0.312643
   1 C :   -0.292633
   2 C :   -0.248174
   3 C :   -0.239790
   4 C :   -0.130536
   5 C :   -0.141574
   6 H :    0.118400
   7 H :    0.118516
   8 H :    0.119479
   9 H :    0.134927
  10 H :    0.134142
  11 H :    0.140315
  12 H :    0.139331
  13 H :    0.161248
  14 H :    0.160615
  15 H :    0.138376

  Mayer bond orders larger than 0.100000
B(  0-C ,  1-C ) :   0.9726 B(  0-C ,  6-H ) :   0.9790 B(  0-C ,  7-H ) :   0.9764
B(  0-C ,  8-H ) :   0.9773 B(  1-C ,  2-C ) :   0.9844 B(  1-C ,  9-H ) :   0.9754
B(  1-C , 10-H ) :   0.9734 B(  2-C ,  3-C ) :   0.9507 B(  2-C , 11-H ) :   0.9765
B(  2-C , 12-H ) :   0.9726 B(  3-C ,  4-C ) :   1.0607 B(  3-C , 13-H ) :   0.9547
B(  3-C , 14-H ) :   0.9810 B(  4-C ,  5-C ) :   2.7677 B(  5-C , 15-H ) :   0.9692

FINAL SINGLE POINT ENERGY      -234.599925324750

DIPOLE MOMENT
-------------

Method             : SCF
Type of density    : Electron Density
Multiplicity       :   1
Irrep              :   0
Energy             :  -234.6098800069497656 Eh
Relativity type    :
Basis              : AO
                                X                 Y                 Z
Electronic contribution:      5.737454644      -0.323005060       0.055098173
Nuclear contribution   :     -6.080138866       0.647200110      -0.068777983
                        -----------------------------------------
Total Dipole Moment    :     -0.342684221       0.324195051      -0.013679809
                        -----------------------------------------
Magnitude (a.u.)       :      0.471934364
Magnitude (Debye)      :      1.199561822

Rotational constants in cm-1:             0.194670             0.071024             0.062896
Rotational constants in MHz :          5836.055750          2129.234041          1885.571016

                             ****ORCA TERMINATED NORMALLY****
TOTAL RUN TIME: 0 days 0 hours 1 minutes 38 seconds 160 msec
