                         Program Version 6.0.0  -   RELEASE  -
|  1> ! pbe def2-sv(p) def2/J RI DEFGRID1 loosescf d4 GCP(DFT/SV(P)) printgap
|  2> %output
|  3>     printlevel normal
|  4> end
|  5> * xyz 0 1
|  6> C 4.3092026435 -1.2429674241 1.1900277695
|  7> C 3.0243431307 -0.9732978798 0.410833998
|  8> C 3.1887581768 0.2192443226 -0.5003439921
|  9> O 4.2737783276 0.5688321593 -0.9464359108
| 10> N 2.0903966417 0.9632166708 -0.8068740109
| 11> C 0.7442046895 0.8237802515 -0.4718314733
| 12> C -0.0088478346 1.9819141469 -0.2635210627
| 13> C -1.3483941214 1.9050013007 0.0571750808
| 14> C -1.9674577057 0.6686427835 0.1699144918
| 15> C -1.2326226986 -0.4863083266 -0.0650685512
| 16> C 0.111425546 -0.4147233118 -0.3909811442
| 17> Cl -1.9959797011 -2.0396136057 0.0313670344
| 18> Cl -3.648550825 0.5708250813 0.5830538796
| 19> H 4.2087420954 -2.1516853498 1.7759721103
| 20> H 4.5285452762 -0.4149135262 1.8593757804
| 21> H 5.1453533954 -1.3519041823 0.5039670177
| 22> H 2.1917443436 -0.8037250122 1.0930461803
| 23> H 2.8007593601 -1.8434677916 -0.2100941055
| 24> H 2.322333975 1.8241008244 -1.292507882
| 25> H 0.4616120415 2.9480994321 -0.3467623723
| 26> H -1.9237843266 2.7998202051 0.2257902022
| 27> H 0.6394576885 -1.3260241103 -0.6074727155
| 28> *
| 29>
| 30>                          ****END OF INPUT****

CARTESIAN COORDINATES (ANGSTROEM)
---------------------------------
  C      4.309203   -1.242967    1.190028
  C      3.024343   -0.973298    0.410834
  C      3.188758    0.219244   -0.500344
  O      4.273778    0.568832   -0.946436
  N      2.090397    0.963217   -0.806874
  C      0.744205    0.823780   -0.471831
  C     -0.008848    1.981914   -0.263521
  C     -1.348394    1.905001    0.057175
  C     -1.967458    0.668643    0.169914
  C     -1.232623   -0.486308   -0.065069
  C      0.111426   -0.414723   -0.390981
  Cl    -1.995980   -2.039614    0.031367
  Cl    -3.648551    0.570825    0.583054
  H      4.208742   -2.151685    1.775972
  H      4.528545   -0.414914    1.859376
  H      5.145353   -1.351904    0.503967
  H      2.191744   -0.803725    1.093046
  H      2.800759   -1.843468   -0.210094
  H      2.322334    1.824101   -1.292508
  H      0.461612    2.948099   -0.346762
  H     -1.923784    2.799820    0.225790
  H      0.639458   -1.326024   -0.607473

 Total Charge           Charge          ....    0
 Multiplicity           Mult            ....    1
 Number of Electrons    NEL             ....  112
 Basis Dimension        Dim             ....  208

ORBITAL ENERGIES
----------------

  NO   OCC          E(Eh)            E(eV)
   0   2.0000    -100.653494     -2738.9208
   1   2.0000    -100.651025     -2738.8536
   2   2.0000     -18.728636      -509.6321
   3   2.0000     -14.043366      -382.1394
   4   2.0000      -9.998326      -272.0683
   5   2.0000      -9.972840      -271.3748
   6   2.0000      -9.966791      -271.2102
   7   2.0000      -9.965781      -271.1827
   8   2.0000      -9.923358      -270.0283
   9   2.0000      -9.922955      -270.0173
  10   2.0000      -9.919698      -269.9287
  11   2.0000      -9.907434      -269.5950
  12   2.0000      -9.882378      -268.9132
  13   2.0000      -9.189192      -250.0506
  14   2.0000      -9.186640      -249.9812
  15   2.0000      -7.020776      -191.0450
  16   2.0000      -7.018259      -190.9765
  17   2.0000      -7.009208      -190.7302
  18   2.0000      -7.008361      -190.7072
  19   2.0000      -7.006622      -190.6599
  20   2.0000      -7.005837      -190.6385
  21   2.0000      -0.950448       -25.8630
  22   2.0000      -0.870844       -23.6969
  23   2.0000      -0.841842       -22.9077
  24   2.0000      -0.789563       -21.4851
  25   2.0000      -0.768175       -20.9031
  26   2.0000      -0.710757       -19.3407
  27   2.0000      -0.691314       -18.8116
  28   2.0000      -0.672385       -18.2965
  29   2.0000      -0.608487       -16.5578
  30   2.0000      -0.574454       -15.6317
  31   2.0000      -0.570101       -15.5132
  32   2.0000      -0.529106       -14.3977
  33   2.0000      -0.500152       -13.6098
  34   2.0000      -0.462381       -12.5820
  35   2.0000      -0.454546       -12.3688
  36   2.0000      -0.436511       -11.8781
  37   2.0000      -0.426188       -11.5972
  38   2.0000      -0.421702       -11.4751
  39   2.0000      -0.408511       -11.1161
  40   2.0000      -0.391971       -10.6661
  41   2.0000      -0.373489       -10.1632
  42   2.0000      -0.368830       -10.0364
  43   2.0000      -0.363870        -9.9014
  44   2.0000      -0.352582        -9.5942
  45   2.0000      -0.335091        -9.1183
  46   2.0000      -0.324682        -8.8351
  47   2.0000      -0.316491        -8.6122
  48   2.0000      -0.312781        -8.5112
  49   2.0000      -0.309673        -8.4266
  50   2.0000      -0.290582        -7.9071
  51   2.0000      -0.267678        -7.2839
  52   2.0000      -0.263811        -7.1787
  53   2.0000      -0.240607        -6.5473
  54   2.0000      -0.214687        -5.8419
  55   2.0000      -0.208309        -5.6684
  56   0.0000      -0.064932        -1.7669
  57   0.0000      -0.064394        -1.7522
  58   0.0000      -0.024896        -0.6775
  59   0.0000      -0.012482        -0.3396
  60   0.0000       0.026640         0.7249

MULLIKEN ATOMIC CHARGES
-----------------------
   0 C :   -0.249614
   1 C :   -0.265709
   2 C :    0.056184
   3 O :   -0.207885
   4 N :   -0.182375
   5 C :    0.212719
   6 C :   -0.112885
   7 C :   -0.110680
   8 C :    0.089087
   9 C :    0.073836
  10 C :   -0.172842
  11 Cl:   -0.049566
  12 Cl:   -0.055453
  13 H :    0.101468
  14 H :    0.106642
  15 H :    0.123013
  16 H :    0.129560
  17 H :    0.131422
  18 H :    0.234427
  19 H :    0.046161
  20 H :    0.059284
  21 H :    0.043207
Sum of atomic charges:    0.0000000

LOEWDIN ATOMIC CHARGES
----------------------
   0 C :   -0.331958
   1 C :   -0.266045
   2 C :    0.031853
   3 O :   -0.186207
   4 N :   -0.107910
   5 C :   -0.001651
   6 C :   -0.137837
   7 C :   -0.123937
   8 C :   -0.164405
   9 C :   -0.145933
  10 C :   -0.152968
  11 Cl:    0.146596
  12 Cl:    0.141131
  13 H :    0.120565
  14 H :    0.123671
  15 H :    0.129761
  16 H :    0.133362
  17 H :    0.142314
  18 H :    0.243120
  19 H :    0.131130
  20 H :    0.137610
  21 H :    0.137739

  Mayer bond orders larger than 0.100000
B(  0-C ,  1-C ) :   1.1533 B(  0-C , 13-H ) :   0.9486 B(  0-C , 14-H ) :   0.9584
B(  0-C , 15-H ) :   0.9437 B(  1-C ,  2-C ) :   1.0127 B(  1-C , 16-H ) :   0.9026
B(  1-C , 17-H ) :   0.8869 B(  2-C ,  3-O ) :   2.0845 B(  2-C ,  4-N ) :   1.1611
B(  4-N ,  5-C ) :   1.0450 B(  4-N , 18-H ) :   0.8370 B(  5-C ,  6-C ) :   1.3199
B(  5-C , 10-C ) :   1.3048 B(  6-C ,  7-C ) :   1.3554 B(  6-C , 19-H ) :   0.9654
B(  7-C ,  8-C ) :   1.3685 B(  7-C , 20-H ) :   0.9626 B(  8-C ,  9-C ) :   1.4161
B(  8-C , 12-Cl) :   1.0347 B(  9-C , 10-C ) :   1.3574 B(  9-C , 11-Cl) :   1.0419
B( 10-C , 21-H ) :   0.9608

Dispersion correction           -0.028300313
FINAL SINGLE POINT ENERGY     -1397.090330109222

DIPOLE MOMENT
-------------

Method             : SCF
Type of density    : Electron Density
Multiplicity       :   1
Irrep              :   0
Energy             : -1397.1500891908333415 Eh
Relativity type    :
Basis              : AO
                                X                 Y                 Z
Electronic contribution:    -27.118062491      -1.322894892      -1.805802774
Nuclear contribution   :     26.765945799       1.685200302       1.972630019
                        -----------------------------------------
Total Dipole Moment    :     -0.352116692       0.362305411       0.166827245
                        -----------------------------------------
Magnitude (a.u.)       :      0.532055171
Magnitude (Debye)      :      1.352376770

Rotational constants in cm-1:             0.040471             0.010103             0.008571
Rotational constants in MHz :          1213.301546           302.878620           256.942029

                             ****ORCA TERMINATED NORMALLY****
TOTAL RUN TIME: 0 days 0 hours 0 minutes 17 seconds 411 msec
