                         Program Version 6.0.0  -   RELEASE  -
|  1> ! pbe def2-sv(p) def2/J RI DEFGRID1 loosescf d4 GCP(DFT/SV(P)) printgap
|  2> %output
|  3>     printlevel normal
|  4> end
|  5> * xyz 0 1
|  6> C -3.0254438246 1.4031848506 0.0093167612
|  7> O -2.5848779297 0.0507660875 -0.0068967737
|  8> C -1.2727138676 -0.3198286293 -0.0029132367
|  9> C -1.0954183354 -1.7087439862 -0.0043489386
| 10> C 0.1561012897 -2.2765480956 -0.0028941842
| 11> C 1.2887091563 -1.4765887867 -0.0001321254
| 12> C 1.1360691317 -0.1034787944 0.001156834
| 13> C -0.1382998924 0.4934086313 -0.0001198571
| 14> O -0.2003494598 1.8672762933 0.0009532469
| 15> O 2.1694714123 0.8070548514 0.0030053044
| 16> C 3.495794379 0.3185190564 0.0010746341
| 17> H -3.6445991175 1.5354011722 0.8985452114
| 18> H -3.6338759706 1.5604834482 -0.8831900971
| 19> H -2.2071488407 2.1140013497 0.024089158
| 20> H -1.9868732889 -2.3141753424 -0.0072459496
| 21> H 0.2598568251 -3.3493083532 -0.004374326
| 22> H 2.2664769488 -1.9267278945 0.0009356948
| 23> H 0.7109565444 2.2056518199 0.0025358375
| 24> H 3.6953508604 -0.2729946518 -0.8956426271
| 25> H 3.6959273173 -0.2796325726 0.8932121964
| 26> H 4.126156086 1.2048873135 0.0041923593
| 27> *
| 28>
| 29>                          ****END OF INPUT****

CARTESIAN COORDINATES (ANGSTROEM)
---------------------------------
  C     -3.025444    1.403185    0.009317
  O     -2.584878    0.050766   -0.006897
  C     -1.272714   -0.319829   -0.002913
  C     -1.095418   -1.708744   -0.004349
  C      0.156101   -2.276548   -0.002894
  C      1.288709   -1.476589   -0.000132
  C      1.136069   -0.103479    0.001157
  C     -0.138300    0.493409   -0.000120
  O     -0.200349    1.867276    0.000953
  O      2.169471    0.807055    0.003005
  C      3.495794    0.318519    0.001075
  H     -3.644599    1.535401    0.898545
  H     -3.633876    1.560483   -0.883190
  H     -2.207149    2.114001    0.024089
  H     -1.986873   -2.314175   -0.007246
  H      0.259857   -3.349308   -0.004374
  H      2.266477   -1.926728    0.000936
  H      0.710957    2.205652    0.002536
  H      3.695351   -0.272995   -0.895643
  H      3.695927   -0.279633    0.893212
  H      4.126156    1.204887    0.004192

 Total Charge           Charge          ....    0
 Multiplicity           Mult            ....    1
 Number of Electrons    NEL             ....   82
 Basis Dimension        Dim             ....  174

ORBITAL ENERGIES
----------------

  NO   OCC          E(Eh)            E(eV)
   0   2.0000     -18.798743      -511.5398
   1   2.0000     -18.776197      -510.9263
   2   2.0000     -18.773648      -510.8569
   3   2.0000      -9.948723      -270.7185
   4   2.0000      -9.947079      -270.6738
   5   2.0000      -9.945300      -270.6254
   6   2.0000      -9.944606      -270.6065
   7   2.0000      -9.920459      -269.9494
   8   2.0000      -9.881069      -268.8776
   9   2.0000      -9.880815      -268.8706
  10   2.0000      -9.873148      -268.6620
  11   2.0000      -0.982303       -26.7298
  12   2.0000      -0.955798       -26.0086
  13   2.0000      -0.941002       -25.6060
  14   2.0000      -0.764197       -20.7949
  15   2.0000      -0.685162       -18.6442
  16   2.0000      -0.670739       -18.2517
  17   2.0000      -0.632479       -17.2106
  18   2.0000      -0.612131       -16.6569
  19   2.0000      -0.547430       -14.8963
  20   2.0000      -0.529883       -14.4189
  21   2.0000      -0.503131       -13.6909
  22   2.0000      -0.471739       -12.8367
  23   2.0000      -0.451109       -12.2753
  24   2.0000      -0.430970       -11.7273
  25   2.0000      -0.428281       -11.6541
  26   2.0000      -0.405901       -11.0451
  27   2.0000      -0.404413       -11.0046
  28   2.0000      -0.397949       -10.8288
  29   2.0000      -0.368003       -10.0139
  30   2.0000      -0.361261        -9.8304
  31   2.0000      -0.352000        -9.5784
  32   2.0000      -0.324959        -8.8426
  33   2.0000      -0.314952        -8.5703
  34   2.0000      -0.300164        -8.1679
  35   2.0000      -0.296770        -8.0755
  36   2.0000      -0.294776        -8.0213
  37   2.0000      -0.262245        -7.1361
  38   2.0000      -0.257228        -6.9995
  39   2.0000      -0.183061        -4.9813
  40   2.0000      -0.169537        -4.6133
  41   0.0000      -0.011225        -0.3054
  42   0.0000      -0.005848        -0.1591
  43   0.0000       0.025504         0.6940
  44   0.0000       0.042476         1.1558
  45   0.0000       0.068905         1.8750

MULLIKEN ATOMIC CHARGES
-----------------------
   0 C :   -0.127077
   1 O :   -0.273639
   2 C :    0.143387
   3 C :   -0.126301
   4 C :   -0.050385
   5 C :   -0.220050
   6 C :    0.221388
   7 C :    0.085538
   8 O :   -0.365559
   9 O :   -0.322513
  10 C :   -0.108147
  11 H :    0.105256
  12 H :    0.105445
  13 H :    0.143040
  14 H :    0.037598
  15 H :    0.046098
  16 H :    0.027392
  17 H :    0.321488
  18 H :    0.116455
  19 H :    0.116554
  20 H :    0.124031
Sum of atomic charges:   -0.0000000

LOEWDIN ATOMIC CHARGES
----------------------
   0 C :   -0.210812
   1 O :   -0.095617
   2 C :    0.015810
   3 C :   -0.155931
   4 C :   -0.134058
   5 C :   -0.196596
   6 C :    0.003645
   7 C :   -0.024500
   8 O :   -0.251294
   9 O :   -0.114174
  10 C :   -0.198437
  11 H :    0.110728
  12 H :    0.110879
  13 H :    0.122988
  14 H :    0.129179
  15 H :    0.123157
  16 H :    0.124692
  17 H :    0.293379
  18 H :    0.112573
  19 H :    0.112550
  20 H :    0.121838

  Mayer bond orders larger than 0.100000
B(  0-C ,  1-O ) :   0.9599 B(  0-C , 11-H ) :   0.9574 B(  0-C , 12-H ) :   0.9576
B(  0-C , 13-H ) :   0.9203 B(  1-O ,  2-C ) :   1.1541 B(  2-C ,  3-C ) :   1.3450
B(  2-C ,  7-C ) :   1.3338 B(  3-C ,  4-C ) :   1.3697 B(  3-C , 14-H ) :   0.9682
B(  4-C ,  5-C ) :   1.2731 B(  4-C , 15-H ) :   0.9706 B(  5-C ,  6-C ) :   1.3155
B(  5-C , 16-H ) :   0.9779 B(  6-C ,  7-C ) :   1.2935 B(  6-C ,  9-O ) :   1.0662
B(  7-C ,  8-O ) :   1.1734 B(  8-O , 17-H ) :   0.8069 B(  9-O , 10-C ) :   0.9783
B( 10-C , 18-H ) :   0.9431 B( 10-C , 19-H ) :   0.9429 B( 10-C , 20-H ) :   0.9586

Dispersion correction           -0.021484435
FINAL SINGLE POINT ENERGY      -535.368736180044

DIPOLE MOMENT
-------------

Method             : SCF
Type of density    : Electron Density
Multiplicity       :   1
Irrep              :   0
Energy             :  -535.4477206036425514 Eh
Relativity type    :
Basis              : AO
                                X                 Y                 Z
Electronic contribution:     -2.081586255      -0.071405216      -0.024188566
Nuclear contribution   :      3.070166580       0.488426196       0.030969999
                        -----------------------------------------
Total Dipole Moment    :      0.988580324       0.417020980       0.006781433
                        -----------------------------------------
Magnitude (a.u.)       :      1.072960178
Magnitude (Debye)      :      2.727248034

Rotational constants in cm-1:             0.065987             0.028021             0.019817
Rotational constants in MHz :          1978.255073           840.039271           594.108804

                             ****ORCA TERMINATED NORMALLY****
TOTAL RUN TIME: 0 days 0 hours 0 minutes 11 seconds 474 msec
