                         Program Version 6.0.0  -   RELEASE  -
|  1> ! pbe def2-sv(p) def2/J RI DEFGRID1 loosescf d4 GCP(DFT/SV(P)) printgap
|  2> %output
|  3>     printlevel normal
|  4> end
|  5> * xyz 0 1
|  6> C -2.141582601 1.3332990852 0.1608952372
|  7> C -1.9119870663 -0.1655308691 0.3452146761
|  8> C -0.5601208455 -0.6056576685 -0.1558459899
|  9> O -0.3729094926 -1.5699669743 -0.8722528323
| 10> O 0.4198242092 0.1679092702 0.2831942533
| 11> C 1.7604501708 -0.1559423126 -0.1198726975
| 12> C 2.6819631126 0.9425076172 0.373695726
| 13> H -1.3834919381 1.8989902467 0.6941954012
| 14> H -2.0981293898 1.5978451254 -0.8925876287
| 15> H -3.1203722604 1.6028346541 0.546149938
| 16> H -2.6673268246 -0.7489600338 -0.1813530026
| 17> H -1.9580641869 -0.4134948708 1.4076328755
| 18> H 2.0230454003 -1.1287367949 0.3089102826
| 19> H 1.7819698293 -0.2487915049 -1.2107352576
| 20> H 3.70305732 0.7072528541 0.0925753469
| 21> H 2.3989814735 1.8935832529 -0.0674522904
| 22> H 2.6166928025 1.0237576271 1.4545598109
| 23> *
| 24>
| 25>                          ****END OF INPUT****

CARTESIAN COORDINATES (ANGSTROEM)
---------------------------------
  C     -2.141583    1.333299    0.160895
  C     -1.911987   -0.165531    0.345215
  C     -0.560121   -0.605658   -0.155846
  O     -0.372909   -1.569967   -0.872253
  O      0.419824    0.167909    0.283194
  C      1.760450   -0.155942   -0.119873
  C      2.681963    0.942508    0.373696
  H     -1.383492    1.898990    0.694195
  H     -2.098129    1.597845   -0.892588
  H     -3.120372    1.602835    0.546150
  H     -2.667327   -0.748960   -0.181353
  H     -1.958064   -0.413495    1.407633
  H      2.023045   -1.128737    0.308910
  H      1.781970   -0.248792   -1.210735
  H      3.703057    0.707253    0.092575
  H      2.398981    1.893583   -0.067452
  H      2.616693    1.023758    1.454560

 Total Charge           Charge          ....    0
 Multiplicity           Mult            ....    1
 Number of Electrons    NEL             ....   56
 Basis Dimension        Dim             ....  118

ORBITAL ENERGIES
----------------

  NO   OCC          E(Eh)            E(eV)
   0   2.0000     -18.797916      -511.5173
   1   2.0000     -18.727957      -509.6136
   2   2.0000     -10.003051      -272.1969
   3   2.0000      -9.947569      -270.6871
   4   2.0000      -9.898932      -269.3636
   5   2.0000      -9.889983      -269.1201
   6   2.0000      -9.884591      -268.9734
   7   2.0000      -1.005121       -27.3507
   8   2.0000      -0.904788       -24.6205
   9   2.0000      -0.723050       -19.6752
  10   2.0000      -0.688449       -18.7337
  11   2.0000      -0.599513       -16.3136
  12   2.0000      -0.562971       -15.3192
  13   2.0000      -0.508326       -13.8323
  14   2.0000      -0.449315       -12.2265
  15   2.0000      -0.436248       -11.8709
  16   2.0000      -0.416230       -11.3262
  17   2.0000      -0.394884       -10.7454
  18   2.0000      -0.375416       -10.2156
  19   2.0000      -0.361705        -9.8425
  20   2.0000      -0.358349        -9.7512
  21   2.0000      -0.339386        -9.2352
  22   2.0000      -0.329359        -8.9623
  23   2.0000      -0.317450        -8.6383
  24   2.0000      -0.304693        -8.2911
  25   2.0000      -0.295807        -8.0493
  26   2.0000      -0.255941        -6.9645
  27   2.0000      -0.211299        -5.7497
  28   0.0000      -0.017913        -0.4874
  29   0.0000       0.038082         1.0363
  30   0.0000       0.054739         1.4895
  31   0.0000       0.080291         2.1848
  32   0.0000       0.084891         2.3100

MULLIKEN ATOMIC CHARGES
-----------------------
   0 C :   -0.296457
   1 C :   -0.149656
   2 C :    0.097741
   3 O :   -0.211078
   4 O :   -0.243087
   5 C :   -0.028609
   6 C :   -0.272974
   7 H :    0.117925
   8 H :    0.109351
   9 H :    0.108643
  10 H :    0.104619
  11 H :    0.113604
  12 H :    0.104013
  13 H :    0.106284
  14 H :    0.111150
  15 H :    0.114566
  16 H :    0.113964
Sum of atomic charges:   -0.0000000

LOEWDIN ATOMIC CHARGES
----------------------
   0 C :   -0.338564
   1 C :   -0.251007
   2 C :    0.031982
   3 O :   -0.170851
   4 O :   -0.069740
   5 C :   -0.107770
   6 C :   -0.351014
   7 H :    0.123149
   8 H :    0.122180
   9 H :    0.122155
  10 H :    0.134292
  11 H :    0.140163
  12 H :    0.115678
  13 H :    0.116709
  14 H :    0.130335
  15 H :    0.126164
  16 H :    0.126136

  Mayer bond orders larger than 0.100000
B(  0-C ,  1-C ) :   1.1360 B(  0-C ,  7-H ) :   0.9491 B(  0-C ,  8-H ) :   0.9585
B(  0-C ,  9-H ) :   0.9506 B(  1-C ,  2-C ) :   1.0425 B(  1-C , 10-H ) :   0.9162
B(  1-C , 11-H ) :   0.8993 B(  2-C ,  3-O ) :   2.0619 B(  2-C ,  4-O ) :   1.1952
B(  4-O ,  5-C ) :   0.9141 B(  5-C ,  6-C ) :   1.1489 B(  5-C , 12-H ) :   0.9343
B(  5-C , 13-H ) :   0.9293 B(  6-C , 14-H ) :   0.9445 B(  6-C , 15-H ) :   0.9507
B(  6-C , 16-H ) :   0.9493

Dispersion correction           -0.011715294
FINAL SINGLE POINT ENERGY      -346.244121754423

DIPOLE MOMENT
-------------

Method             : SCF
Type of density    : Electron Density
Multiplicity       :   1
Irrep              :   0
Energy             :  -346.3088186088027101 Eh
Relativity type    :
Basis              : AO
                                X                 Y                 Z
Electronic contribution:     -0.951375042      -5.128070698      -1.578591419
Nuclear contribution   :      1.216900086       5.781102055       2.010104282
                        -----------------------------------------
Total Dipole Moment    :      0.265525044       0.653031357       0.431512862
                        -----------------------------------------
Magnitude (a.u.)       :      0.826533031
Magnitude (Debye)      :      2.100880006

Rotational constants in cm-1:             0.144083             0.055219             0.042351
Rotational constants in MHz :          4319.495062          1655.416132          1269.652649

                             ****ORCA TERMINATED NORMALLY****
TOTAL RUN TIME: 0 days 0 hours 0 minutes 9 seconds 138 msec
