                         Program Version 6.0.0  -   RELEASE  -
|  1> ! r2scan-3c def2/J RI DEFGRID2 scfconv6 printgap
|  2> %output
|  3>     printlevel normal
|  4> end
|  5> * xyz 0 1
|  6> C 1.7607652488 -0.8747613549 1.1958676484
|  7> C 1.4876762091 -0.2572796502 -0.1698778313
|  8> C 0.3056847282 0.7213095631 -0.2095618271
|  9> H 0.4689439201 1.4931644778 0.5629258666
| 10> C -1.1049704753 0.13290476 0.0080074361
| 11> C -1.3100496475 -1.1980209905 -0.7109460539
| 12> C -1.4886479328 0.0263349354 1.481903734
| 13> O 0.2534759344 1.3587818851 -1.4818836885
| 14> H 1.0039791878 -1.6071983201 1.4590105134
| 15> H 1.7836509925 -0.1060761271 1.9647790877
| 16> H 2.724495767 -1.378313622 1.1834919569
| 17> H 2.3757675417 0.3057482873 -0.4731762938
| 18> H 1.3308049408 -1.039545062 -0.9128973957
| 19> H -1.7736274177 0.8669787385 -0.4586630768
| 20> H -1.0123978198 -1.1085576178 -1.7527952919
| 21> H -0.7343415396 -1.9911159122 -0.2414762686
| 22> H -2.3611695747 -1.4741736669 -0.6770295622
| 23> H -0.9023974407 -0.7311165642 1.9917662097
| 24> H -2.5385866693 -0.2442235053 1.5638530013
| 25> H -1.3405996982 0.9774379106 1.9878244108
| 26> H 1.1172424002 1.7413293043 -1.6862694854
| 27> *
| 28>
| 29>                          ****END OF INPUT****

CARTESIAN COORDINATES (ANGSTROEM)
---------------------------------
  C      1.760765   -0.874761    1.195868
  C      1.487676   -0.257280   -0.169878
  C      0.305685    0.721310   -0.209562
  H      0.468944    1.493164    0.562926
  C     -1.104970    0.132905    0.008007
  C     -1.310050   -1.198021   -0.710946
  C     -1.488648    0.026335    1.481904
  O      0.253476    1.358782   -1.481884
  H      1.003979   -1.607198    1.459011
  H      1.783651   -0.106076    1.964779
  H      2.724496   -1.378314    1.183492
  H      2.375768    0.305748   -0.473176
  H      1.330805   -1.039545   -0.912897
  H     -1.773627    0.866979   -0.458663
  H     -1.012398   -1.108558   -1.752795
  H     -0.734342   -1.991116   -0.241476
  H     -2.361170   -1.474174   -0.677030
  H     -0.902397   -0.731117    1.991766
  H     -2.538587   -0.244224    1.563853
  H     -1.340600    0.977438    1.987824
  H      1.117242    1.741329   -1.686269

 Total Charge           Charge          ....    0
 Multiplicity           Mult            ....    1
 Number of Electrons    NEL             ....   58
 Basis Dimension        Dim             ....  208

ORBITAL ENERGIES
----------------

  NO   OCC          E(Eh)            E(eV)
   0   2.0000     -18.942082      -515.4403
   1   2.0000     -10.076448      -274.1941
   2   2.0000     -10.029707      -272.9222
   3   2.0000     -10.027939      -272.8741
   4   2.0000     -10.021969      -272.7116
   5   2.0000     -10.014585      -272.5107
   6   2.0000     -10.011275      -272.4206
   7   2.0000      -0.979786       -26.6613
   8   2.0000      -0.771764       -21.0008
   9   2.0000      -0.729678       -19.8555
  10   2.0000      -0.649051       -17.6616
  11   2.0000      -0.639043       -17.3893
  12   2.0000      -0.579636       -15.7727
  13   2.0000      -0.509440       -13.8626
  14   2.0000      -0.475333       -12.9345
  15   2.0000      -0.449426       -12.2295
  16   2.0000      -0.408982       -11.1290
  17   2.0000      -0.393325       -10.7029
  18   2.0000      -0.388440       -10.5700
  19   2.0000      -0.373986       -10.1767
  20   2.0000      -0.355910        -9.6848
  21   2.0000      -0.351454        -9.5636
  22   2.0000      -0.336276        -9.1505
  23   2.0000      -0.318372        -8.6633
  24   2.0000      -0.308599        -8.3974
  25   2.0000      -0.301831        -8.2132
  26   2.0000      -0.290726        -7.9111
  27   2.0000      -0.270347        -7.3565
  28   2.0000      -0.230648        -6.2762
  29   0.0000       0.064751         1.7620
  30   0.0000       0.077172         2.1000
  31   0.0000       0.110608         3.0098
  32   0.0000       0.116120         3.1598
  33   0.0000       0.127918         3.4808

MULLIKEN ATOMIC CHARGES
-----------------------
   0 C :   -0.505663
   1 C :   -0.232897
   2 C :   -0.002462
   3 H :    0.135771
   4 C :   -0.009751
   5 C :   -0.546075
   6 C :   -0.499634
   7 O :   -0.430700
   8 H :    0.148542
   9 H :    0.153719
  10 H :    0.147435
  11 H :    0.119647
  12 H :    0.166420
  13 H :    0.159608
  14 H :    0.173134
  15 H :    0.149340
  16 H :    0.148242
  17 H :    0.148403
  18 H :    0.146658
  19 H :    0.150398
  20 H :    0.279865
Sum of atomic charges:   -0.0000000

LOEWDIN ATOMIC CHARGES
----------------------
   0 C :   -0.421087
   1 C :   -0.287952
   2 C :    0.062590
   3 H :    0.162445
   4 C :   -0.208991
   5 C :   -0.411130
   6 C :   -0.412429
   7 O :   -0.627976
   8 H :    0.148651
   9 H :    0.152637
  10 H :    0.152324
  11 H :    0.153135
  12 H :    0.163904
  13 H :    0.178069
  14 H :    0.163050
  15 H :    0.150811
  16 H :    0.154363
  17 H :    0.152788
  18 H :    0.154316
  19 H :    0.154266
  20 H :    0.266216

  Mayer bond orders larger than 0.100000
B(  0-C ,  1-C ) :   0.8622 B(  0-C ,  8-H ) :   0.9806 B(  0-C ,  9-H ) :   0.9832
B(  0-C , 10-H ) :   0.9647 B(  1-C ,  2-C ) :   0.8975 B(  1-C , 11-H ) :   0.9571
B(  1-C , 12-H ) :   0.9760 B(  2-C ,  3-H ) :   0.9844 B(  2-C ,  4-C ) :   0.8983
B(  2-C ,  7-O ) :   0.8791 B(  4-C ,  5-C ) :   0.8801 B(  4-C ,  6-C ) :   0.8959
B(  4-C , 13-H ) :   0.9684 B(  5-C , 14-H ) :   0.9753 B(  5-C , 15-H ) :   0.9791
B(  5-C , 16-H ) :   0.9687 B(  6-C , 17-H ) :   0.9711 B(  6-C , 18-H ) :   0.9716
B(  6-C , 19-H ) :   0.9820 B(  7-O , 20-H ) :   0.9021

Dispersion correction           -0.005854400
FINAL SINGLE POINT ENERGY      -312.199303753068

DIPOLE MOMENT
-------------

Method             : SCF
Type of density    : Electron Density
Multiplicity       :   1
Irrep              :   0
Energy             :  -312.2048454200324841 Eh
Relativity type    :
Basis              : AO
                                X                 Y                 Z
Electronic contribution:      0.326278914       3.968727726      -3.905060562
Nuclear contribution   :      0.136760150      -4.009867823       4.210385881
                        -----------------------------------------
Total Dipole Moment    :      0.463039064      -0.041140098       0.305325319
                        -----------------------------------------
Magnitude (a.u.)       :      0.556166552
Magnitude (Debye)      :      1.413663029

Rotational constants in cm-1:             0.086227             0.074687             0.055083
Rotational constants in MHz :          2585.033512          2239.066808          1651.335504

                             ****ORCA TERMINATED NORMALLY****
TOTAL RUN TIME: 0 days 0 hours 0 minutes 28 seconds 71 msec
