                         Program Version 6.0.0  -   RELEASE  -
|  1> ! r2scan-3c def2/J RI DEFGRID2 scfconv6 printgap
|  2> %output
|  3>     printlevel normal
|  4> end
|  5> %cpcm
|  6>     smd true
|  7>     smdsolvent "water"
|  8> end
|  9> * xyz 0 1
| 10> C 1.7607652488 -0.8747613549 1.1958676484
| 11> C 1.4876762091 -0.2572796502 -0.1698778313
| 12> C 0.3056847282 0.7213095631 -0.2095618271
| 13> H 0.4689439201 1.4931644778 0.5629258666
| 14> C -1.1049704753 0.13290476 0.0080074361
| 15> C -1.3100496475 -1.1980209905 -0.7109460539
| 16> C -1.4886479328 0.0263349354 1.481903734
| 17> O 0.2534759344 1.3587818851 -1.4818836885
| 18> H 1.0039791878 -1.6071983201 1.4590105134
| 19> H 1.7836509925 -0.1060761271 1.9647790877
| 20> H 2.724495767 -1.378313622 1.1834919569
| 21> H 2.3757675417 0.3057482873 -0.4731762938
| 22> H 1.3308049408 -1.039545062 -0.9128973957
| 23> H -1.7736274177 0.8669787385 -0.4586630768
| 24> H -1.0123978198 -1.1085576178 -1.7527952919
| 25> H -0.7343415396 -1.9911159122 -0.2414762686
| 26> H -2.3611695747 -1.4741736669 -0.6770295622
| 27> H -0.9023974407 -0.7311165642 1.9917662097
| 28> H -2.5385866693 -0.2442235053 1.5638530013
| 29> H -1.3405996982 0.9774379106 1.9878244108
| 30> H 1.1172424002 1.7413293043 -1.6862694854
| 31> *
| 32>
| 33>                          ****END OF INPUT****

CARTESIAN COORDINATES (ANGSTROEM)
---------------------------------
  C      1.760765   -0.874761    1.195868
  C      1.487676   -0.257280   -0.169878
  C      0.305685    0.721310   -0.209562
  H      0.468944    1.493164    0.562926
  C     -1.104970    0.132905    0.008007
  C     -1.310050   -1.198021   -0.710946
  C     -1.488648    0.026335    1.481904
  O      0.253476    1.358782   -1.481884
  H      1.003979   -1.607198    1.459011
  H      1.783651   -0.106076    1.964779
  H      2.724496   -1.378314    1.183492
  H      2.375768    0.305748   -0.473176
  H      1.330805   -1.039545   -0.912897
  H     -1.773627    0.866979   -0.458663
  H     -1.012398   -1.108558   -1.752795
  H     -0.734342   -1.991116   -0.241476
  H     -2.361170   -1.474174   -0.677030
  H     -0.902397   -0.731117    1.991766
  H     -2.538587   -0.244224    1.563853
  H     -1.340600    0.977438    1.987824
  H      1.117242    1.741329   -1.686269

 Total Charge           Charge          ....    0
 Multiplicity           Mult            ....    1
 Number of Electrons    NEL             ....   58
 Basis Dimension        Dim             ....  208

ORBITAL ENERGIES
----------------

  NO   OCC          E(Eh)            E(eV)
   0   2.0000     -18.946193      -515.5521
   1   2.0000     -10.071457      -274.0583
   2   2.0000     -10.026028      -272.8221
   3   2.0000     -10.017512      -272.5904
   4   2.0000     -10.009943      -272.3844
   5   2.0000     -10.007118      -272.3075
   6   2.0000     -10.006809      -272.2991
   7   2.0000      -0.982683       -26.7402
   8   2.0000      -0.766240       -20.8504
   9   2.0000      -0.720651       -19.6099
  10   2.0000      -0.643820       -17.5192
  11   2.0000      -0.633009       -17.2250
  12   2.0000      -0.571853       -15.5609
  13   2.0000      -0.504566       -13.7300
  14   2.0000      -0.472167       -12.8483
  15   2.0000      -0.441999       -12.0274
  16   2.0000      -0.403974       -10.9927
  17   2.0000      -0.387797       -10.5525
  18   2.0000      -0.380151       -10.3444
  19   2.0000      -0.368970       -10.0402
  20   2.0000      -0.349838        -9.5196
  21   2.0000      -0.343849        -9.3566
  22   2.0000      -0.329507        -8.9663
  23   2.0000      -0.312221        -8.4960
  24   2.0000      -0.302717        -8.2373
  25   2.0000      -0.297890        -8.1060
  26   2.0000      -0.287803        -7.8315
  27   2.0000      -0.265084        -7.2133
  28   2.0000      -0.234456        -6.3799
  29   0.0000       0.080151         2.1810
  30   0.0000       0.086866         2.3638
  31   0.0000       0.117652         3.2015
  32   0.0000       0.126152         3.4328
  33   0.0000       0.134729         3.6662

MULLIKEN ATOMIC CHARGES
-----------------------
   0 C :   -0.547758
   1 C :   -0.242951
   2 C :    0.003144
   3 H :    0.148806
   4 C :    0.003432
   5 C :   -0.570888
   6 C :   -0.545589
   7 O :   -0.520602
   8 H :    0.164772
   9 H :    0.164332
  10 H :    0.158055
  11 H :    0.147933
  12 H :    0.165017
  13 H :    0.153900
  14 H :    0.165097
  15 H :    0.168948
  16 H :    0.162068
  17 H :    0.165314
  18 H :    0.158509
  19 H :    0.162220
  20 H :    0.336242
Sum of atomic charges:    0.0000000

LOEWDIN ATOMIC CHARGES
----------------------
   0 C :   -0.426961
   1 C :   -0.287362
   2 C :    0.063471
   3 H :    0.169719
   4 C :   -0.210324
   5 C :   -0.418557
   6 C :   -0.418795
   7 O :   -0.665101
   8 H :    0.152913
   9 H :    0.155472
  10 H :    0.155022
  11 H :    0.162226
  12 H :    0.163165
  13 H :    0.174160
  14 H :    0.159137
  15 H :    0.157644
  16 H :    0.157448
  17 H :    0.157714
  18 H :    0.157033
  19 H :    0.157489
  20 H :    0.284487

  Mayer bond orders larger than 0.100000
B(  0-C ,  1-C ) :   0.8516 B(  0-C ,  8-H ) :   0.9768 B(  0-C ,  9-H ) :   0.9807
B(  0-C , 10-H ) :   0.9625 B(  1-C ,  2-C ) :   0.9096 B(  1-C , 11-H ) :   0.9582
B(  1-C , 12-H ) :   0.9713 B(  2-C ,  3-H ) :   0.9792 B(  2-C ,  4-C ) :   0.8886
B(  2-C ,  7-O ) :   0.8647 B(  4-C ,  5-C ) :   0.8784 B(  4-C ,  6-C ) :   0.8931
B(  4-C , 13-H ) :   0.9710 B(  5-C , 14-H ) :   0.9728 B(  5-C , 15-H ) :   0.9755
B(  5-C , 16-H ) :   0.9679 B(  6-C , 17-H ) :   0.9716 B(  6-C , 18-H ) :   0.9691
B(  6-C , 19-H ) :   0.9776 B(  7-O , 20-H ) :   0.8775

Dispersion correction           -0.005854400
FINAL SINGLE POINT ENERGY      -312.204986617544

DIPOLE MOMENT
-------------

Method             : SCF
Type of density    : Electron Density
Multiplicity       :   1
Irrep              :   0
Energy             :  -312.2105282845088823 Eh
Relativity type    :
Basis              : AO
                                X                 Y                 Z
Electronic contribution:      0.551528865       3.942011247      -3.705801020
Nuclear contribution   :      0.136760150      -4.009867823       4.210385881
                        -----------------------------------------
Total Dipole Moment    :      0.688289015      -0.067856577       0.504584861
                        -----------------------------------------
Magnitude (a.u.)       :      0.856126255
Magnitude (Debye)      :      2.176100003

Rotational constants in cm-1:             0.086227             0.074687             0.055083
Rotational constants in MHz :          2585.033512          2239.066808          1651.335504

                             ****ORCA TERMINATED NORMALLY****
TOTAL RUN TIME: 0 days 0 hours 0 minutes 33 seconds 413 msec
