                         Program Version 6.0.0  -   RELEASE  -
|  1> ! r2scan-3c def2/J RI DEFGRID2 scfconv6 printgap
|  2> %output
|  3>     printlevel normal
|  4> end
|  5> * xyz 0 1
|  6> C -2.9274801876 1.4359774837 -0.0039514534
|  7> O -2.585433985 0.0611393161 0.0012587363
|  8> C -1.2776369947 -0.3377331525 0.0006644167
|  9> C -1.1017516111 -1.7239816375 -0.0005671237
| 10> C 0.1546596918 -2.2840038757 -0.0009301399
| 11> C 1.2826486789 -1.477762265 -0.000480832
| 12> C 1.1268432419 -0.1041736552 0.0006670287
| 13> C -0.1506070372 0.48404493 0.0016329146
| 14> O -0.2397338002 1.8531338869 0.0036163274
| 15> O 2.1563625663 0.8104844209 0.0010951198
| 16> C 3.484560981 0.3269045199 -0.0027033112
| 17> H -2.5498859025 1.9436779374 0.8849363933
| 18> H -4.0156696564 1.4502850486 -0.0047567319
| 19> H -2.54866321 1.9369999326 -0.8961304144
| 20> H -1.990325438 -2.3333970806 -0.0011924062
| 21> H 0.2654423298 -3.3560656848 -0.0018080322
| 22> H 2.2622316384 -1.9242846938 -0.0009514122
| 23> H 0.6631006785 2.2114855238 0.0037037727
| 24> H 4.1115245131 1.2156849597 -0.0034281174
| 25> H 3.6842991798 -0.2663691211 -0.8982208041
| 26> H 3.6888730012 -0.268102443 0.8906277914
| 27> *
| 28>
| 29>                          ****END OF INPUT****

CARTESIAN COORDINATES (ANGSTROEM)
---------------------------------
  C     -2.927480    1.435977   -0.003951
  O     -2.585434    0.061139    0.001259
  C     -1.277637   -0.337733    0.000664
  C     -1.101752   -1.723982   -0.000567
  C      0.154660   -2.284004   -0.000930
  C      1.282649   -1.477762   -0.000481
  C      1.126843   -0.104174    0.000667
  C     -0.150607    0.484045    0.001633
  O     -0.239734    1.853134    0.003616
  O      2.156363    0.810484    0.001095
  C      3.484561    0.326905   -0.002703
  H     -2.549886    1.943678    0.884936
  H     -4.015670    1.450285   -0.004757
  H     -2.548663    1.937000   -0.896130
  H     -1.990325   -2.333397   -0.001192
  H      0.265442   -3.356066   -0.001808
  H      2.262232   -1.924285   -0.000951
  H      0.663101    2.211486    0.003704
  H      4.111525    1.215685   -0.003428
  H      3.684299   -0.266369   -0.898221
  H      3.688873   -0.268102    0.890628

 Total Charge           Charge          ....    0
 Multiplicity           Mult            ....    1
 Number of Electrons    NEL             ....   82
 Basis Dimension        Dim             ....  274

ORBITAL ENERGIES
----------------

  NO   OCC          E(Eh)            E(eV)
   0   2.0000     -18.997587      -516.9506
   1   2.0000     -18.976954      -516.3892
   2   2.0000     -18.975027      -516.3367
   3   2.0000     -10.095345      -274.7083
   4   2.0000     -10.094156      -274.6759
   5   2.0000     -10.091277      -274.5976
   6   2.0000     -10.090216      -274.5687
   7   2.0000     -10.069841      -274.0143
   8   2.0000     -10.027044      -272.8497
   9   2.0000     -10.026576      -272.8370
  10   2.0000     -10.019890      -272.6551
  11   2.0000      -1.048477       -28.5305
  12   2.0000      -1.024905       -27.8891
  13   2.0000      -1.008258       -27.4361
  14   2.0000      -0.816574       -22.2201
  15   2.0000      -0.729048       -19.8384
  16   2.0000      -0.716340       -19.4926
  17   2.0000      -0.672933       -18.3114
  18   2.0000      -0.653125       -17.7724
  19   2.0000      -0.579878       -15.7793
  20   2.0000      -0.563227       -15.3262
  21   2.0000      -0.524520       -14.2729
  22   2.0000      -0.495090       -13.4721
  23   2.0000      -0.471217       -12.8225
  24   2.0000      -0.452462       -12.3121
  25   2.0000      -0.447595       -12.1797
  26   2.0000      -0.426401       -11.6030
  27   2.0000      -0.425733       -11.5848
  28   2.0000      -0.416573       -11.3355
  29   2.0000      -0.388146       -10.5620
  30   2.0000      -0.376129       -10.2350
  31   2.0000      -0.366834        -9.9820
  32   2.0000      -0.343228        -9.3397
  33   2.0000      -0.333944        -9.0871
  34   2.0000      -0.318890        -8.6774
  35   2.0000      -0.313282        -8.5248
  36   2.0000      -0.311395        -8.4735
  37   2.0000      -0.287218        -7.8156
  38   2.0000      -0.273452        -7.4410
  39   2.0000      -0.195684        -5.3248
  40   2.0000      -0.182828        -4.9750
  41   0.0000      -0.011067        -0.3011
  42   0.0000      -0.007462        -0.2030
  43   0.0000       0.028856         0.7852
  44   0.0000       0.079836         2.1724
  45   0.0000       0.083381         2.2689

MULLIKEN ATOMIC CHARGES
-----------------------
   0 C :   -0.305999
   1 O :   -0.193008
   2 C :    0.198336
   3 C :   -0.330429
   4 C :   -0.149177
   5 C :   -0.283147
   6 C :    0.218665
   7 C :    0.084530
   8 O :   -0.388867
   9 O :   -0.218260
  10 C :   -0.323775
  11 H :    0.154824
  12 H :    0.143297
  13 H :    0.154534
  14 H :    0.160213
  15 H :    0.146302
  16 H :    0.145430
  17 H :    0.320115
  18 H :    0.153100
  19 H :    0.156695
  20 H :    0.156621
Sum of atomic charges:    0.0000000

LOEWDIN ATOMIC CHARGES
----------------------
   0 C :   -0.039330
   1 O :   -0.671474
   2 C :    0.207102
   3 C :   -0.140312
   4 C :   -0.167558
   5 C :   -0.189451
   6 C :    0.197232
   7 C :    0.207598
   8 O :   -0.497436
   9 O :   -0.715474
  10 C :   -0.046700
  11 H :    0.172854
  12 H :    0.172123
  13 H :    0.172708
  14 H :    0.182127
  15 H :    0.168128
  16 H :    0.174077
  17 H :    0.298789
  18 H :    0.180073
  19 H :    0.167492
  20 H :    0.167432

  Mayer bond orders larger than 0.100000
B(  0-C ,  1-O ) :   0.8711 B(  0-C , 11-H ) :   0.9632 B(  0-C , 12-H ) :   0.9681
B(  0-C , 13-H ) :   0.9632 B(  1-O ,  2-C ) :   1.0017 B(  2-C ,  3-C ) :   1.3369
B(  2-C ,  7-C ) :   1.3960 B(  3-C ,  4-C ) :   1.4050 B(  3-C , 14-H ) :   0.9435
B(  4-C ,  5-C ) :   1.3554 B(  4-C ,  7-C ) :   0.1007 B(  4-C , 15-H ) :   0.9495
B(  5-C ,  6-C ) :   1.3092 B(  5-C , 16-H ) :   0.9256 B(  6-C ,  7-C ) :   1.3375
B(  6-C ,  9-O ) :   1.0871 B(  7-C ,  8-O ) :   0.9206 B(  8-O , 17-H ) :   0.8427
B(  9-O , 10-C ) :   0.8549 B( 10-C , 18-H ) :   0.9678 B( 10-C , 19-H ) :   0.9603
B( 10-C , 20-H ) :   0.9603

Dispersion correction           -0.007066094
FINAL SINGLE POINT ENERGY      -536.396352360757

DIPOLE MOMENT
-------------

Method             : SCF
Type of density    : Electron Density
Multiplicity       :   1
Irrep              :   0
Energy             :  -536.4027308604232758 Eh
Relativity type    :
Basis              : AO
                                X                 Y                 Z
Electronic contribution:     -2.337221861      -0.310826947       0.021480174
Nuclear contribution   :      3.340230271       0.612567449      -0.025448518
                        -----------------------------------------
Total Dipole Moment    :      1.003008410       0.301740502      -0.003968344
                        -----------------------------------------
Magnitude (a.u.)       :      1.047420140
Magnitude (Debye)      :      2.662330416

Rotational constants in cm-1:             0.065473             0.028548             0.020031
Rotational constants in MHz :          1962.817814           855.836131           600.525847

                             ****ORCA TERMINATED NORMALLY****
TOTAL RUN TIME: 0 days 0 hours 0 minutes 38 seconds 507 msec
