                         Program Version 6.0.0  -   RELEASE  -
|  1> ! r2scan-3c def2/J RI DEFGRID2 scfconv6 printgap
|  2> %output
|  3>     printlevel normal
|  4> end
|  5> %cpcm
|  6>     smd true
|  7>     smdsolvent "water"
|  8> end
|  9> * xyz 0 1
| 10> C -2.9274801876 1.4359774837 -0.0039514534
| 11> O -2.585433985 0.0611393161 0.0012587363
| 12> C -1.2776369947 -0.3377331525 0.0006644167
| 13> C -1.1017516111 -1.7239816375 -0.0005671237
| 14> C 0.1546596918 -2.2840038757 -0.0009301399
| 15> C 1.2826486789 -1.477762265 -0.000480832
| 16> C 1.1268432419 -0.1041736552 0.0006670287
| 17> C -0.1506070372 0.48404493 0.0016329146
| 18> O -0.2397338002 1.8531338869 0.0036163274
| 19> O 2.1563625663 0.8104844209 0.0010951198
| 20> C 3.484560981 0.3269045199 -0.0027033112
| 21> H -2.5498859025 1.9436779374 0.8849363933
| 22> H -4.0156696564 1.4502850486 -0.0047567319
| 23> H -2.54866321 1.9369999326 -0.8961304144
| 24> H -1.990325438 -2.3333970806 -0.0011924062
| 25> H 0.2654423298 -3.3560656848 -0.0018080322
| 26> H 2.2622316384 -1.9242846938 -0.0009514122
| 27> H 0.6631006785 2.2114855238 0.0037037727
| 28> H 4.1115245131 1.2156849597 -0.0034281174
| 29> H 3.6842991798 -0.2663691211 -0.8982208041
| 30> H 3.6888730012 -0.268102443 0.8906277914
| 31> *
| 32>
| 33>                          ****END OF INPUT****

CARTESIAN COORDINATES (ANGSTROEM)
---------------------------------
  C     -2.927480    1.435977   -0.003951
  O     -2.585434    0.061139    0.001259
  C     -1.277637   -0.337733    0.000664
  C     -1.101752   -1.723982   -0.000567
  C      0.154660   -2.284004   -0.000930
  C      1.282649   -1.477762   -0.000481
  C      1.126843   -0.104174    0.000667
  C     -0.150607    0.484045    0.001633
  O     -0.239734    1.853134    0.003616
  O      2.156363    0.810484    0.001095
  C      3.484561    0.326905   -0.002703
  H     -2.549886    1.943678    0.884936
  H     -4.015670    1.450285   -0.004757
  H     -2.548663    1.937000   -0.896130
  H     -1.990325   -2.333397   -0.001192
  H      0.265442   -3.356066   -0.001808
  H      2.262232   -1.924285   -0.000951
  H      0.663101    2.211486    0.003704
  H      4.111525    1.215685   -0.003428
  H      3.684299   -0.266369   -0.898221
  H      3.688873   -0.268102    0.890628

 Total Charge           Charge          ....    0
 Multiplicity           Mult            ....    1
 Number of Electrons    NEL             ....   82
 Basis Dimension        Dim             ....  274

ORBITAL ENERGIES
----------------

  NO   OCC          E(Eh)            E(eV)
   0   2.0000     -18.994124      -516.8564
   1   2.0000     -18.985529      -516.6225
   2   2.0000     -18.980432      -516.4838
   3   2.0000     -10.098314      -274.7891
   4   2.0000     -10.097611      -274.7700
   5   2.0000     -10.097185      -274.7584
   6   2.0000     -10.075215      -274.1605
   7   2.0000     -10.068979      -273.9908
   8   2.0000     -10.031155      -272.9616
   9   2.0000     -10.028557      -272.8909
  10   2.0000     -10.025418      -272.8055
  11   2.0000      -1.047339       -28.4995
  12   2.0000      -1.031987       -28.0818
  13   2.0000      -1.011868       -27.5343
  14   2.0000      -0.822450       -22.3800
  15   2.0000      -0.730428       -19.8760
  16   2.0000      -0.718928       -19.5630
  17   2.0000      -0.668149       -18.1813
  18   2.0000      -0.655022       -17.8241
  19   2.0000      -0.580597       -15.7988
  20   2.0000      -0.564090       -15.3497
  21   2.0000      -0.523544       -14.2464
  22   2.0000      -0.495178       -13.4745
  23   2.0000      -0.472218       -12.8497
  24   2.0000      -0.454682       -12.3725
  25   2.0000      -0.440675       -11.9914
  26   2.0000      -0.427984       -11.6460
  27   2.0000      -0.427910       -11.6440
  28   2.0000      -0.411106       -11.1868
  29   2.0000      -0.384110       -10.4522
  30   2.0000      -0.377519       -10.2728
  31   2.0000      -0.370749       -10.0886
  32   2.0000      -0.342779        -9.3275
  33   2.0000      -0.336866        -9.1666
  34   2.0000      -0.326693        -8.8898
  35   2.0000      -0.311139        -8.4665
  36   2.0000      -0.306549        -8.3416
  37   2.0000      -0.294403        -8.0111
  38   2.0000      -0.277862        -7.5610
  39   2.0000      -0.201468        -5.4822
  40   2.0000      -0.190900        -5.1947
  41   0.0000      -0.018297        -0.4979
  42   0.0000      -0.014493        -0.3944
  43   0.0000       0.031354         0.8532
  44   0.0000       0.082437         2.2432
  45   0.0000       0.095186         2.5902

MULLIKEN ATOMIC CHARGES
-----------------------
   0 C :   -0.324763
   1 O :   -0.233422
   2 C :    0.204193
   3 C :   -0.374907
   4 C :   -0.201071
   5 C :   -0.289936
   6 C :    0.213679
   7 C :    0.067773
   8 O :   -0.423139
   9 O :   -0.238318
  10 C :   -0.331395
  11 H :    0.167606
  12 H :    0.166219
  13 H :    0.167495
  14 H :    0.184688
  15 H :    0.179562
  16 H :    0.184380
  17 H :    0.360513
  18 H :    0.175186
  19 H :    0.172839
  20 H :    0.172819
Sum of atomic charges:    0.0000000

LOEWDIN ATOMIC CHARGES
----------------------
   0 C :   -0.038567
   1 O :   -0.698688
   2 C :    0.193795
   3 C :   -0.161011
   4 C :   -0.178745
   5 C :   -0.189999
   6 C :    0.193720
   7 C :    0.201960
   8 O :   -0.507499
   9 O :   -0.718889
  10 C :   -0.041971
  11 H :    0.177473
  12 H :    0.181504
  13 H :    0.177391
  14 H :    0.189271
  15 H :    0.179604
  16 H :    0.189699
  17 H :    0.310753
  18 H :    0.188790
  19 H :    0.175724
  20 H :    0.175682

  Mayer bond orders larger than 0.100000
B(  0-C ,  1-O ) :   0.8608 B(  0-C , 11-H ) :   0.9578 B(  0-C , 12-H ) :   0.9599
B(  0-C , 13-H ) :   0.9577 B(  1-O ,  2-C ) :   0.9888 B(  2-C ,  3-C ) :   1.2735
B(  2-C ,  7-C ) :   1.3788 B(  3-C ,  4-C ) :   1.3735 B(  3-C , 14-H ) :   0.9620
B(  4-C ,  5-C ) :   1.3194 B(  4-C , 15-H ) :   0.9667 B(  5-C ,  6-C ) :   1.2989
B(  5-C , 16-H ) :   0.9383 B(  6-C ,  7-C ) :   1.3072 B(  6-C ,  9-O ) :   1.0694
B(  7-C ,  8-O ) :   0.9268 B(  8-O , 17-H ) :   0.8231 B(  9-O , 10-C ) :   0.8469
B( 10-C , 18-H ) :   0.9595 B( 10-C , 19-H ) :   0.9531 B( 10-C , 20-H ) :   0.9531

Dispersion correction           -0.007066094
FINAL SINGLE POINT ENERGY      -536.402662846525

DIPOLE MOMENT
-------------

Method             : SCF
Type of density    : Electron Density
Multiplicity       :   1
Irrep              :   0
Energy             :  -536.4090413461906337 Eh
Relativity type    :
Basis              : AO
                                X                 Y                 Z
Electronic contribution:     -1.879662820      -0.242872219       0.019830220
Nuclear contribution   :      3.340230271       0.612567449      -0.025448518
                        -----------------------------------------
Total Dipole Moment    :      1.460567451       0.369695230      -0.005618298
                        -----------------------------------------
Magnitude (a.u.)       :      1.506639774
Magnitude (Debye)      :      3.829573964

Rotational constants in cm-1:             0.065473             0.028548             0.020031
Rotational constants in MHz :          1962.817814           855.836131           600.525847

                             ****ORCA TERMINATED NORMALLY****
TOTAL RUN TIME: 0 days 0 hours 0 minutes 50 seconds 79 msec
