                         Program Version 6.0.0  -   RELEASE  -
|  1> ! pbe def2-sv(p) def2/J RI DEFGRID1 loosescf d4 GCP(DFT/SV(P)) printgap
|  2> %output
|  3>     printlevel normal
|  4> end
|  5> * xyz 0 1
|  6> C 2.4633240037 -0.0798835378 -0.905016393
|  7> C 1.2602949346 -0.2710152752 0.0196613456
|  8> H 1.1266987726 -1.3393082396 0.2197941483
|  9> C -0.0117057936 0.3047458437 -0.6169321541
| 10> C -1.2744750163 0.0580969564 0.2179076608
| 11> C -2.3891599483 1.0075446123 -0.2182784411
| 12> C -1.7479988864 -1.3886854303 0.0961329148
| 13> O 1.5014664149 0.2909491714 1.2983016872
| 14> H 2.5876546897 0.9723846902 -1.1526528123
| 15> H 3.3665826333 -0.434100863 -0.4144030495
| 16> H 2.3200973987 -0.6402505094 -1.8238143457
| 17> H 0.128658889 1.3818036296 -0.7415335138
| 18> H -0.1370527261 -0.1330041583 -1.6082078444
| 19> H -1.0300761487 0.2572804614 1.2674759355
| 20> H -2.0894462312 2.0447363437 -0.0874052401
| 21> H -3.2867128724 0.83461412 0.3705230332
| 22> H -2.6302671913 0.8476909874 -1.2671278598
| 23> H -2.6370763362 -1.5462650699 0.7020702238
| 24> H -1.9910817659 -1.6214534384 -0.9386397871
| 25> H -0.9812646497 -2.0800140955 0.4356139281
| 26> H 1.6743428299 1.2370260996 1.1904299806
| 27> *
| 28>
| 29>                          ****END OF INPUT****

CARTESIAN COORDINATES (ANGSTROEM)
---------------------------------
  C      2.463324   -0.079884   -0.905016
  C      1.260295   -0.271015    0.019661
  H      1.126699   -1.339308    0.219794
  C     -0.011706    0.304746   -0.616932
  C     -1.274475    0.058097    0.217908
  C     -2.389160    1.007545   -0.218278
  C     -1.747999   -1.388685    0.096133
  O      1.501466    0.290949    1.298302
  H      2.587655    0.972385   -1.152653
  H      3.366583   -0.434101   -0.414403
  H      2.320097   -0.640251   -1.823814
  H      0.128659    1.381804   -0.741534
  H     -0.137053   -0.133004   -1.608208
  H     -1.030076    0.257280    1.267476
  H     -2.089446    2.044736   -0.087405
  H     -3.286713    0.834614    0.370523
  H     -2.630267    0.847691   -1.267128
  H     -2.637076   -1.546265    0.702070
  H     -1.991082   -1.621453   -0.938640
  H     -0.981265   -2.080014    0.435614
  H      1.674343    1.237026    1.190430

 Total Charge           Charge          ....    0
 Multiplicity           Mult            ....    1
 Number of Electrons    NEL             ....   58
 Basis Dimension        Dim             ....  126

ORBITAL ENERGIES
----------------

  NO   OCC          E(Eh)            E(eV)
   0   2.0000     -18.738937      -509.9124
   1   2.0000      -9.934707      -270.3371
   2   2.0000      -9.888501      -269.0798
   3   2.0000      -9.880274      -268.8559
   4   2.0000      -9.874675      -268.7036
   5   2.0000      -9.869525      -268.5634
   6   2.0000      -9.869401      -268.5600
   7   2.0000      -0.917438       -24.9648
   8   2.0000      -0.728502       -19.8236
   9   2.0000      -0.676969       -18.4213
  10   2.0000      -0.608399       -16.5554
  11   2.0000      -0.607496       -16.5308
  12   2.0000      -0.542333       -14.7576
  13   2.0000      -0.498499       -13.5648
  14   2.0000      -0.430401       -11.7118
  15   2.0000      -0.427587       -11.6352
  16   2.0000      -0.399155       -10.8616
  17   2.0000      -0.379798       -10.3348
  18   2.0000      -0.376181       -10.2364
  19   2.0000      -0.356756        -9.7078
  20   2.0000      -0.344510        -9.3746
  21   2.0000      -0.337678        -9.1887
  22   2.0000      -0.325211        -8.8495
  23   2.0000      -0.313553        -8.5322
  24   2.0000      -0.289486        -7.8773
  25   2.0000      -0.281427        -7.6580
  26   2.0000      -0.277456        -7.5500
  27   2.0000      -0.261178        -7.1070
  28   2.0000      -0.212179        -5.7737
  29   0.0000       0.024601         0.6694
  30   0.0000       0.047565         1.2943
  31   0.0000       0.059950         1.6313
  32   0.0000       0.073835         2.0091
  33   0.0000       0.081017         2.2046

MULLIKEN ATOMIC CHARGES
-----------------------
   0 C :   -0.234090
   1 C :    0.012808
   2 H :    0.073165
   3 C :   -0.136308
   4 C :   -0.155394
   5 C :   -0.232591
   6 C :   -0.257364
   7 O :   -0.427353
   8 H :    0.083117
   9 H :    0.109250
  10 H :    0.096855
  11 H :    0.057504
  12 H :    0.071982
  13 H :    0.074981
  14 H :    0.094063
  15 H :    0.096700
  16 H :    0.088950
  17 H :    0.098827
  18 H :    0.089042
  19 H :    0.106450
  20 H :    0.289408
Sum of atomic charges:   -0.0000000

LOEWDIN ATOMIC CHARGES
----------------------
   0 C :   -0.350948
   1 C :   -0.059699
   2 H :    0.112130
   3 C :   -0.229717
   4 C :   -0.161287
   5 C :   -0.328558
   6 C :   -0.329697
   7 O :   -0.325134
   8 H :    0.113157
   9 H :    0.122385
  10 H :    0.123304
  11 H :    0.108318
  12 H :    0.117366
  13 H :    0.116093
  14 H :    0.113972
  15 H :    0.116438
  16 H :    0.114434
  17 H :    0.118345
  18 H :    0.114023
  19 H :    0.116442
  20 H :    0.278631

  Mayer bond orders larger than 0.100000
B(  0-C ,  1-C ) :   1.1169 B(  0-C ,  8-H ) :   0.9414 B(  0-C ,  9-H ) :   0.9458
B(  0-C , 10-H ) :   0.9391 B(  1-C ,  2-H ) :   0.8950 B(  1-C ,  3-C ) :   1.0685
B(  1-C ,  7-O ) :   1.0249 B(  3-C ,  4-C ) :   1.0785 B(  3-C , 11-H ) :   0.9057
B(  3-C , 12-H ) :   0.9055 B(  4-C ,  5-C ) :   1.1106 B(  4-C ,  6-C ) :   1.1110
B(  4-C , 13-H ) :   0.8925 B(  5-C , 14-H ) :   0.9495 B(  5-C , 15-H ) :   0.9522
B(  5-C , 16-H ) :   0.9491 B(  6-C , 17-H ) :   0.9500 B(  6-C , 18-H ) :   0.9483
B(  6-C , 19-H ) :   0.9464 B(  7-O , 20-H ) :   0.8537

Dispersion correction           -0.016076910
FINAL SINGLE POINT ENERGY      -311.519617807163

DIPOLE MOMENT
-------------

Method             : SCF
Type of density    : Electron Density
Multiplicity       :   1
Irrep              :   0
Energy             :  -311.5995013171813639 Eh
Relativity type    :
Basis              : AO
                                X                 Y                 Z
Electronic contribution:      3.387006574       0.519676839       3.169735980
Nuclear contribution   :     -3.335350662      -0.201008603      -3.590670324
                        -----------------------------------------
Total Dipole Moment    :      0.051655911       0.318668236      -0.420934344
                        -----------------------------------------
Magnitude (a.u.)       :      0.530474787
Magnitude (Debye)      :      1.348359754

Rotational constants in cm-1:             0.142980             0.045201             0.044757
Rotational constants in MHz :          4286.446112          1355.094681          1341.768674

                             ****ORCA TERMINATED NORMALLY****
TOTAL RUN TIME: 0 days 0 hours 0 minutes 10 seconds 106 msec
