                         Program Version 6.0.0  -   RELEASE  -
|  1> ! r2scan-3c def2/J RI DEFGRID2 scfconv6 printgap
|  2> %output
|  3>     printlevel normal
|  4> end
|  5> * xyz 0 1
|  6> C -2.1784793178 1.0412625493 0.4259229954
|  7> C -1.8391158436 -0.3723854938 -0.0296504287
|  8> C -0.5465056373 -0.4895593963 -0.8435514837
|  9> C 0.7691632233 -0.1384783767 -0.0982212205
| 10> C 1.1379869598 1.3376776662 -0.2745212288
| 11> C 1.9070360265 -0.9993704535 -0.6662397516
| 12> O 0.6559404827 -0.3591031019 1.303566444
| 13> H -2.1624260008 1.7319520004 -0.4143062282
| 14> H -1.4693148301 1.376997307 1.177655723
| 15> H -3.1727209951 1.0603452824 0.8672640813
| 16> H -1.7774258463 -1.0163821482 0.8492036168
| 17> H -2.6523669531 -0.7476721757 -0.6561036106
| 18> H -0.478801688 -1.5226600722 -1.1940519845
| 19> H -0.6189291959 0.1505470464 -1.7237019711
| 20> H 2.0411462749 1.5510861325 0.2921036671
| 21> H 0.3462212562 1.9800388491 0.0936321805
| 22> H 1.3160434605 1.5550550346 -1.3232182835
| 23> H 2.8429806145 -0.7497486145 -0.1716549317
| 24> H 2.0143485231 -0.8206165983 -1.7321593677
| 25> H 1.7034442732 -2.0573726138 -0.5109847484
| 26> H 0.5920296738 -1.3094029308 1.4650750309
| 27> *
| 28>
| 29>                          ****END OF INPUT****

CARTESIAN COORDINATES (ANGSTROEM)
---------------------------------
  C     -2.178479    1.041263    0.425923
  C     -1.839116   -0.372385   -0.029650
  C     -0.546506   -0.489559   -0.843551
  C      0.769163   -0.138478   -0.098221
  C      1.137987    1.337678   -0.274521
  C      1.907036   -0.999370   -0.666240
  O      0.655940   -0.359103    1.303566
  H     -2.162426    1.731952   -0.414306
  H     -1.469315    1.376997    1.177656
  H     -3.172721    1.060345    0.867264
  H     -1.777426   -1.016382    0.849204
  H     -2.652367   -0.747672   -0.656104
  H     -0.478802   -1.522660   -1.194052
  H     -0.618929    0.150547   -1.723702
  H      2.041146    1.551086    0.292104
  H      0.346221    1.980039    0.093632
  H      1.316043    1.555055   -1.323218
  H      2.842981   -0.749749   -0.171655
  H      2.014349   -0.820617   -1.732159
  H      1.703444   -2.057373   -0.510985
  H      0.592030   -1.309403    1.465075

 Total Charge           Charge          ....    0
 Multiplicity           Mult            ....    1
 Number of Electrons    NEL             ....   58
 Basis Dimension        Dim             ....  208

ORBITAL ENERGIES
----------------

  NO   OCC          E(Eh)            E(eV)
   0   2.0000     -18.943965      -515.4915
   1   2.0000     -10.087696      -274.5002
   2   2.0000     -10.021849      -272.7084
   3   2.0000     -10.021299      -272.6934
   4   2.0000     -10.018670      -272.6219
   5   2.0000     -10.012677      -272.4588
   6   2.0000     -10.008621      -272.3484
   7   2.0000      -0.983886       -26.7729
   8   2.0000      -0.765113       -20.8198
   9   2.0000      -0.724984       -19.7278
  10   2.0000      -0.657545       -17.8927
  11   2.0000      -0.644985       -17.5509
  12   2.0000      -0.560272       -15.2458
  13   2.0000      -0.531275       -14.4567
  14   2.0000      -0.451748       -12.2927
  15   2.0000      -0.433947       -11.8083
  16   2.0000      -0.423441       -11.5224
  17   2.0000      -0.397124       -10.8063
  18   2.0000      -0.390246       -10.6191
  19   2.0000      -0.363727        -9.8975
  20   2.0000      -0.352665        -9.5965
  21   2.0000      -0.349401        -9.5077
  22   2.0000      -0.340675        -9.2702
  23   2.0000      -0.325162        -8.8481
  24   2.0000      -0.307181        -8.3588
  25   2.0000      -0.295882        -8.0513
  26   2.0000      -0.288479        -7.8499
  27   2.0000      -0.275994        -7.5102
  28   2.0000      -0.232121        -6.3163
  29   0.0000       0.054771         1.4904
  30   0.0000       0.105185         2.8622
  31   0.0000       0.109393         2.9767
  32   0.0000       0.119463         3.2507
  33   0.0000       0.121741         3.3127

MULLIKEN ATOMIC CHARGES
-----------------------
   0 C :   -0.557531
   1 C :   -0.132751
   2 C :   -0.339446
   3 C :    0.184556
   4 C :   -0.500793
   5 C :   -0.482938
   6 O :   -0.411828
   7 H :    0.147741
   8 H :    0.176593
   9 H :    0.143214
  10 H :    0.128756
  11 H :    0.139881
  12 H :    0.149392
  13 H :    0.150797
  14 H :    0.156817
  15 H :    0.158882
  16 H :    0.152576
  17 H :    0.161382
  18 H :    0.152130
  19 H :    0.138829
  20 H :    0.283741
Sum of atomic charges:    0.0000000

LOEWDIN ATOMIC CHARGES
----------------------
   0 C :   -0.427856
   1 C :   -0.303377
   2 C :   -0.282324
   3 C :    0.061580
   4 C :   -0.373894
   5 C :   -0.390671
   6 O :   -0.606224
   7 H :    0.148012
   8 H :    0.158228
   9 H :    0.149608
  10 H :    0.155658
  11 H :    0.150607
  12 H :    0.161085
  13 H :    0.164334
  14 H :    0.164488
  15 H :    0.165224
  16 H :    0.158187
  17 H :    0.162322
  18 H :    0.161370
  19 H :    0.153236
  20 H :    0.270407

  Mayer bond orders larger than 0.100000
B(  0-C ,  1-C ) :   0.8464 B(  0-C ,  7-H ) :   0.9834 B(  0-C ,  8-H ) :   0.9827
B(  0-C ,  9-H ) :   0.9664 B(  1-C ,  2-C ) :   0.9258 B(  1-C , 10-H ) :   0.9888
B(  1-C , 11-H ) :   0.9697 B(  2-C ,  3-C ) :   0.8719 B(  2-C , 12-H ) :   0.9733
B(  2-C , 13-H ) :   0.9681 B(  3-C ,  4-C ) :   0.9436 B(  3-C ,  5-C ) :   0.9541
B(  3-C ,  6-O ) :   0.8634 B(  4-C , 14-H ) :   0.9744 B(  4-C , 15-H ) :   0.9563
B(  4-C , 16-H ) :   0.9820 B(  5-C , 17-H ) :   0.9787 B(  5-C , 18-H ) :   0.9746
B(  5-C , 19-H ) :   0.9687 B(  6-O , 20-H ) :   0.9029

Dispersion correction           -0.005802366
FINAL SINGLE POINT ENERGY      -312.203079050969

DIPOLE MOMENT
-------------

Method             : SCF
Type of density    : Electron Density
Multiplicity       :   1
Irrep              :   0
Energy             :  -312.2083459828210721 Eh
Relativity type    :
Basis              : AO
                                X                 Y                 Z
Electronic contribution:      1.388598798      -1.513020104       2.391063078
Nuclear contribution   :     -1.374780298       1.103736148      -2.777551162
                        -----------------------------------------
Total Dipole Moment    :      0.013818500      -0.409283956      -0.386488084
                        -----------------------------------------
Magnitude (a.u.)       :      0.563096215
Magnitude (Debye)      :      1.431276832

Rotational constants in cm-1:             0.129827             0.058344             0.054899
Rotational constants in MHz :          3892.125059          1749.098247          1645.828724

                             ****ORCA TERMINATED NORMALLY****
TOTAL RUN TIME: 0 days 0 hours 0 minutes 25 seconds 299 msec
