                         Program Version 6.0.0  -   RELEASE  -
|  1> ! r2scan-3c def2/J RI DEFGRID2 scfconv6 printgap
|  2> %output
|  3>     printlevel normal
|  4> end
|  5> %cpcm
|  6>     smd true
|  7>     smdsolvent "water"
|  8> end
|  9> * xyz 0 1
| 10> C -2.1784793178 1.0412625493 0.4259229954
| 11> C -1.8391158436 -0.3723854938 -0.0296504287
| 12> C -0.5465056373 -0.4895593963 -0.8435514837
| 13> C 0.7691632233 -0.1384783767 -0.0982212205
| 14> C 1.1379869598 1.3376776662 -0.2745212288
| 15> C 1.9070360265 -0.9993704535 -0.6662397516
| 16> O 0.6559404827 -0.3591031019 1.303566444
| 17> H -2.1624260008 1.7319520004 -0.4143062282
| 18> H -1.4693148301 1.376997307 1.177655723
| 19> H -3.1727209951 1.0603452824 0.8672640813
| 20> H -1.7774258463 -1.0163821482 0.8492036168
| 21> H -2.6523669531 -0.7476721757 -0.6561036106
| 22> H -0.478801688 -1.5226600722 -1.1940519845
| 23> H -0.6189291959 0.1505470464 -1.7237019711
| 24> H 2.0411462749 1.5510861325 0.2921036671
| 25> H 0.3462212562 1.9800388491 0.0936321805
| 26> H 1.3160434605 1.5550550346 -1.3232182835
| 27> H 2.8429806145 -0.7497486145 -0.1716549317
| 28> H 2.0143485231 -0.8206165983 -1.7321593677
| 29> H 1.7034442732 -2.0573726138 -0.5109847484
| 30> H 0.5920296738 -1.3094029308 1.4650750309
| 31> *
| 32>
| 33>                          ****END OF INPUT****

CARTESIAN COORDINATES (ANGSTROEM)
---------------------------------
  C     -2.178479    1.041263    0.425923
  C     -1.839116   -0.372385   -0.029650
  C     -0.546506   -0.489559   -0.843551
  C      0.769163   -0.138478   -0.098221
  C      1.137987    1.337678   -0.274521
  C      1.907036   -0.999370   -0.666240
  O      0.655940   -0.359103    1.303566
  H     -2.162426    1.731952   -0.414306
  H     -1.469315    1.376997    1.177656
  H     -3.172721    1.060345    0.867264
  H     -1.777426   -1.016382    0.849204
  H     -2.652367   -0.747672   -0.656104
  H     -0.478802   -1.522660   -1.194052
  H     -0.618929    0.150547   -1.723702
  H      2.041146    1.551086    0.292104
  H      0.346221    1.980039    0.093632
  H      1.316043    1.555055   -1.323218
  H      2.842981   -0.749749   -0.171655
  H      2.014349   -0.820617   -1.732159
  H      1.703444   -2.057373   -0.510985
  H      0.592030   -1.309403    1.465075

 Total Charge           Charge          ....    0
 Multiplicity           Mult            ....    1
 Number of Electrons    NEL             ....   58
 Basis Dimension        Dim             ....  208

ORBITAL ENERGIES
----------------

  NO   OCC          E(Eh)            E(eV)
   0   2.0000     -18.945903      -515.5442
   1   2.0000     -10.082789      -274.3666
   2   2.0000     -10.015832      -272.5447
   3   2.0000     -10.012578      -272.4561
   4   2.0000     -10.007821      -272.3266
   5   2.0000     -10.007099      -272.3070
   6   2.0000     -10.005501      -272.2635
   7   2.0000      -0.984648       -26.7936
   8   2.0000      -0.758930       -20.6515
   9   2.0000      -0.719587       -19.5810
  10   2.0000      -0.650900       -17.7119
  11   2.0000      -0.638418       -17.3722
  12   2.0000      -0.555243       -15.1089
  13   2.0000      -0.527042       -14.3415
  14   2.0000      -0.446719       -12.1558
  15   2.0000      -0.428701       -11.6656
  16   2.0000      -0.416890       -11.3442
  17   2.0000      -0.392842       -10.6898
  18   2.0000      -0.384433       -10.4610
  19   2.0000      -0.356301        -9.6955
  20   2.0000      -0.347472        -9.4552
  21   2.0000      -0.343186        -9.3386
  22   2.0000      -0.336850        -9.1662
  23   2.0000      -0.321000        -8.7349
  24   2.0000      -0.302702        -8.2369
  25   2.0000      -0.289813        -7.8862
  26   2.0000      -0.285024        -7.7559
  27   2.0000      -0.271993        -7.4013
  28   2.0000      -0.233589        -6.3563
  29   0.0000       0.069500         1.8912
  30   0.0000       0.115766         3.1501
  31   0.0000       0.118668         3.2291
  32   0.0000       0.125783         3.4227
  33   0.0000       0.130859         3.5609

MULLIKEN ATOMIC CHARGES
-----------------------
   0 C :   -0.571399
   1 C :   -0.187609
   2 C :   -0.334610
   3 C :    0.228207
   4 C :   -0.549872
   5 C :   -0.530307
   6 O :   -0.497222
   7 H :    0.160515
   8 H :    0.166766
   9 H :    0.154509
  10 H :    0.145505
  11 H :    0.150396
  12 H :    0.159811
  13 H :    0.164314
  14 H :    0.163340
  15 H :    0.167052
  16 H :    0.175038
  17 H :    0.163742
  18 H :    0.168523
  19 H :    0.164062
  20 H :    0.339238
Sum of atomic charges:    0.0000000

LOEWDIN ATOMIC CHARGES
----------------------
   0 C :   -0.435488
   1 C :   -0.307715
   2 C :   -0.279890
   3 C :    0.064612
   4 C :   -0.383917
   5 C :   -0.394852
   6 O :   -0.640790
   7 H :    0.152537
   8 H :    0.153701
   9 H :    0.151632
  10 H :    0.157474
  11 H :    0.154083
  12 H :    0.165877
  13 H :    0.168328
  14 H :    0.163710
  15 H :    0.165282
  16 H :    0.166623
  17 H :    0.161902
  18 H :    0.166609
  19 H :    0.161884
  20 H :    0.288398

  Mayer bond orders larger than 0.100000
B(  0-C ,  1-C ) :   0.8531 B(  0-C ,  7-H ) :   0.9791 B(  0-C ,  8-H ) :   0.9811
B(  0-C ,  9-H ) :   0.9657 B(  1-C ,  2-C ) :   0.9026 B(  1-C , 10-H ) :   0.9957
B(  1-C , 11-H ) :   0.9668 B(  2-C ,  3-C ) :   0.8739 B(  2-C , 12-H ) :   0.9711
B(  2-C , 13-H ) :   0.9683 B(  3-C ,  4-C ) :   0.9371 B(  3-C ,  5-C ) :   0.9420
B(  3-C ,  6-O ) :   0.8423 B(  4-C , 14-H ) :   0.9751 B(  4-C , 15-H ) :   0.9558
B(  4-C , 16-H ) :   0.9746 B(  5-C , 17-H ) :   0.9749 B(  5-C , 18-H ) :   0.9712
B(  5-C , 19-H ) :   0.9668 B(  6-O , 20-H ) :   0.8775

Dispersion correction           -0.005802366
FINAL SINGLE POINT ENERGY      -312.208333753431

DIPOLE MOMENT
-------------

Method             : SCF
Type of density    : Electron Density
Multiplicity       :   1
Irrep              :   0
Energy             :  -312.2136006852832679 Eh
Relativity type    :
Basis              : AO
                                X                 Y                 Z
Electronic contribution:      1.360394950      -1.742274621       2.138743872
Nuclear contribution   :     -1.374780298       1.103736148      -2.777551162
                        -----------------------------------------
Total Dipole Moment    :     -0.014385348      -0.638538473      -0.638807291
                        -----------------------------------------
Magnitude (a.u.)       :      0.903334420
Magnitude (Debye)      :      2.296093621

Rotational constants in cm-1:             0.129827             0.058344             0.054899
Rotational constants in MHz :          3892.125059          1749.098247          1645.828724

                             ****ORCA TERMINATED NORMALLY****
TOTAL RUN TIME: 0 days 0 hours 0 minutes 30 seconds 337 msec
