                         Program Version 6.0.0  -   RELEASE  -
|  1> ! r2scan-3c def2/J RI DEFGRID2 scfconv6 printgap
|  2> %output
|  3>     printlevel normal
|  4> end
|  5> %cpcm
|  6>     smd true
|  7>     smdsolvent "water"
|  8> end
|  9> * xyz 0 1
| 10> C -2.6857481265 0.408542023 0.9431616278
| 11> C -2.1530649797 0.3988752213 -0.4849306449
| 12> C -0.871613813 -0.4132737313 -0.6049339256
| 13> O 0.1685717124 0.2663115074 0.1138534487
| 14> C 1.4120427933 -0.1679751103 -0.0355988096
| 15> O 1.7047918414 -1.1092786974 -0.7464019446
| 16> C 2.3861489784 0.634900976 0.772831354
| 17> H -2.9302948866 -0.6008716739 1.2648009239
| 18> H -1.9379691528 0.8154342616 1.6185669334
| 19> H -3.5818600455 1.0191638948 1.0064313406
| 20> H -1.9476484957 1.4195629994 -0.8093556226
| 21> H -2.8919328715 -0.0358249567 -1.1580655902
| 22> H -0.9909538366 -1.4142976508 -0.1771469039
| 23> H -0.5563662561 -0.5227009925 -1.6480151784
| 24> H 1.897860153 1.5166049268 1.1729773316
| 25> H 3.2317560879 0.9078485745 0.147790707
| 26> H 2.7574772801 0.0150974373 1.5858312771
| 27> *
| 28>
| 29>                          ****END OF INPUT****

CARTESIAN COORDINATES (ANGSTROEM)
---------------------------------
  C     -2.685748    0.408542    0.943162
  C     -2.153065    0.398875   -0.484931
  C     -0.871614   -0.413274   -0.604934
  O      0.168572    0.266312    0.113853
  C      1.412043   -0.167975   -0.035599
  O      1.704792   -1.109279   -0.746402
  C      2.386149    0.634901    0.772831
  H     -2.930295   -0.600872    1.264801
  H     -1.937969    0.815434    1.618567
  H     -3.581860    1.019164    1.006431
  H     -1.947648    1.419563   -0.809356
  H     -2.891933   -0.035825   -1.158066
  H     -0.990954   -1.414298   -0.177147
  H     -0.556366   -0.522701   -1.648015
  H      1.897860    1.516605    1.172977
  H      3.231756    0.907849    0.147791
  H      2.757477    0.015097    1.585831

 Total Charge           Charge          ....    0
 Multiplicity           Mult            ....    1
 Number of Electrons    NEL             ....   56
 Basis Dimension        Dim             ....  193

ORBITAL ENERGIES
----------------

  NO   OCC          E(Eh)            E(eV)
   0   2.0000     -19.003362      -517.1078
   1   2.0000     -18.942685      -515.4567
   2   2.0000     -10.165186      -276.6088
   3   2.0000     -10.081184      -274.3230
   4   2.0000     -10.030326      -272.9390
   5   2.0000     -10.026654      -272.8391
   6   2.0000     -10.011057      -272.4147
   7   2.0000      -1.080168       -29.3929
   8   2.0000      -0.988062       -26.8865
   9   2.0000      -0.763035       -20.7632
  10   2.0000      -0.714817       -19.4511
  11   2.0000      -0.652612       -17.7585
  12   2.0000      -0.573436       -15.6040
  13   2.0000      -0.529303       -14.4031
  14   2.0000      -0.464948       -12.6519
  15   2.0000      -0.462245       -12.5783
  16   2.0000      -0.445327       -12.1180
  17   2.0000      -0.411284       -11.1916
  18   2.0000      -0.398101       -10.8329
  19   2.0000      -0.383275       -10.4294
  20   2.0000      -0.369864       -10.0645
  21   2.0000      -0.349382        -9.5072
  22   2.0000      -0.338265        -9.2047
  23   2.0000      -0.317058        -8.6276
  24   2.0000      -0.308296        -8.3892
  25   2.0000      -0.300558        -8.1786
  26   2.0000      -0.277222        -7.5436
  27   2.0000      -0.252743        -6.8775
  28   0.0000      -0.021535        -0.5860
  29   0.0000       0.076239         2.0746
  30   0.0000       0.107262         2.9188
  31   0.0000       0.120735         3.2854
  32   0.0000       0.132242         3.5985

MULLIKEN ATOMIC CHARGES
-----------------------
   0 C :   -0.507037
   1 C :   -0.244901
   2 C :   -0.177083
   3 O :   -0.186602
   4 C :    0.460951
   5 O :   -0.512208
   6 C :   -0.555331
   7 H :    0.157112
   8 H :    0.159054
   9 H :    0.161201
  10 H :    0.156959
  11 H :    0.159348
  12 H :    0.173291
  13 H :    0.171808
  14 H :    0.187875
  15 H :    0.193652
  16 H :    0.201910
Sum of atomic charges:   -0.0000000

LOEWDIN ATOMIC CHARGES
----------------------
   0 C :   -0.425414
   1 C :   -0.283497
   2 C :    0.041141
   3 O :   -0.605299
   4 C :    0.363471
   5 O :   -0.495307
   6 C :   -0.334786
   7 H :    0.155788
   8 H :    0.157309
   9 H :    0.155431
  10 H :    0.165897
  11 H :    0.168095
  12 H :    0.186933
  13 H :    0.189700
  14 H :    0.182012
  15 H :    0.186740
  16 H :    0.191786

  Mayer bond orders larger than 0.100000
B(  0-C ,  1-C ) :   0.9038 B(  0-C ,  7-H ) :   0.9737 B(  0-C ,  8-H ) :   0.9786
B(  0-C ,  9-H ) :   0.9697 B(  1-C ,  2-C ) :   0.9549 B(  1-C , 10-H ) :   0.9748
B(  1-C , 11-H ) :   0.9575 B(  2-C ,  3-O ) :   0.7898 B(  2-C , 12-H ) :   0.9431
B(  2-C , 13-H ) :   0.9451 B(  3-O ,  4-C ) :   1.1067 B(  4-C ,  5-O ) :   1.7428
B(  4-C ,  6-C ) :   0.9417 B(  6-C , 14-H ) :   0.9766 B(  6-C , 15-H ) :   0.9520
B(  6-C , 16-H ) :   0.9316

Dispersion correction           -0.003898177
FINAL SINGLE POINT ENERGY      -346.942451332101

DIPOLE MOMENT
-------------

Method             : SCF
Type of density    : Electron Density
Multiplicity       :   1
Irrep              :   0
Energy             :  -346.9489541516658164 Eh
Relativity type    :
Basis              : AO
                                X                 Y                 Z
Electronic contribution:      5.766930959      -2.096926285      -2.281344194
Nuclear contribution   :     -6.492423495       2.914599485       2.808702654
                        -----------------------------------------
Total Dipole Moment    :     -0.725492537       0.817673200       0.527358460
                        -----------------------------------------
Magnitude (a.u.)       :      1.213686874
Magnitude (Debye)      :      3.084946870

Rotational constants in cm-1:             0.195707             0.045550             0.039552
Rotational constants in MHz :          5867.136552          1365.559098          1185.742575

                             ****ORCA TERMINATED NORMALLY****
TOTAL RUN TIME: 0 days 0 hours 0 minutes 26 seconds 758 msec
