                         Program Version 6.0.0  -   RELEASE  -
|  1> ! r2scan-3c def2/J RI DEFGRID2 scfconv6 printgap
|  2> %output
|  3>     printlevel normal
|  4> end
|  5> * xyz 0 1
|  6> C 1.7356996007 0.6325968879 -0.9522847889
|  7> C 1.4137499394 0.0957508094 0.4407151163
|  8> C 1.5920900259 -1.4198788585 0.4949309042
|  9> C 0.0032396752 0.5129827411 0.8785061269
| 10> C -1.1183722681 0.1069937956 -0.0397549852
| 11> O -1.1076646012 -0.7826779682 -0.8623095598
| 12> O -2.1969778102 0.854549169 0.1679139593
| 13> H 1.6017888992 1.7113410826 -0.9895573915
| 14> H 1.0831386883 0.1744340549 -1.6919432671
| 15> H 2.7649107167 0.4034120746 -1.215923663
| 16> H 2.111508108 0.5493421487 1.153691512
| 17> H 0.8970736969 -1.9041133709 -0.1858097008
| 18> H 2.604402429 -1.6896267409 0.2049736338
| 19> H 1.4109804061 -1.7924592953 1.5005066407
| 20> H -0.057519617 1.5962362649 0.995928951
| 21> H -0.2242127283 0.0688135128 1.8514195812
| 22> H -2.9495647503 0.5944433703 -0.397449154
| 23> *
| 24>
| 25>                          ****END OF INPUT****

CARTESIAN COORDINATES (ANGSTROEM)
---------------------------------
  C      1.735700    0.632597   -0.952285
  C      1.413750    0.095751    0.440715
  C      1.592090   -1.419879    0.494931
  C      0.003240    0.512983    0.878506
  C     -1.118372    0.106994   -0.039755
  O     -1.107665   -0.782678   -0.862310
  O     -2.196978    0.854549    0.167914
  H      1.601789    1.711341   -0.989557
  H      1.083139    0.174434   -1.691943
  H      2.764911    0.403412   -1.215924
  H      2.111508    0.549342    1.153692
  H      0.897074   -1.904113   -0.185810
  H      2.604402   -1.689627    0.204974
  H      1.410980   -1.792459    1.500507
  H     -0.057520    1.596236    0.995929
  H     -0.224213    0.068814    1.851420
  H     -2.949565    0.594443   -0.397449

 Total Charge           Charge          ....    0
 Multiplicity           Mult            ....    1
 Number of Electrons    NEL             ....   56
 Basis Dimension        Dim             ....  193

ORBITAL ENERGIES
----------------

  NO   OCC          E(Eh)            E(eV)
   0   2.0000     -19.003672      -517.1162
   1   2.0000     -18.936008      -515.2750
   2   2.0000     -10.164375      -276.5867
   3   2.0000     -10.047510      -273.4067
   4   2.0000     -10.042807      -273.2787
   5   2.0000     -10.013721      -272.4872
   6   2.0000     -10.009554      -272.3738
   7   2.0000      -1.078678       -29.3523
   8   2.0000      -0.980809       -26.6892
   9   2.0000      -0.784240       -21.3402
  10   2.0000      -0.700237       -19.0544
  11   2.0000      -0.648538       -17.6476
  12   2.0000      -0.599206       -16.3052
  13   2.0000      -0.529685       -14.4135
  14   2.0000      -0.466282       -12.6882
  15   2.0000      -0.451000       -12.2723
  16   2.0000      -0.440321       -11.9818
  17   2.0000      -0.415771       -11.3137
  18   2.0000      -0.397013       -10.8033
  19   2.0000      -0.390652       -10.6302
  20   2.0000      -0.354330        -9.6418
  21   2.0000      -0.347882        -9.4663
  22   2.0000      -0.337079        -9.1724
  23   2.0000      -0.306396        -8.3375
  24   2.0000      -0.303195        -8.2503
  25   2.0000      -0.300982        -8.1901
  26   2.0000      -0.293068        -7.9748
  27   2.0000      -0.238837        -6.4991
  28   0.0000      -0.022550        -0.6136
  29   0.0000       0.058237         1.5847
  30   0.0000       0.076975         2.0946
  31   0.0000       0.126659         3.4466
  32   0.0000       0.135605         3.6900

MULLIKEN ATOMIC CHARGES
-----------------------
   0 C :   -0.536005
   1 C :    0.062779
   2 C :   -0.537085
   3 C :   -0.342870
   4 C :    0.344007
   5 O :   -0.411347
   6 O :   -0.345231
   7 H :    0.144594
   8 H :    0.183753
   9 H :    0.145187
  10 H :    0.147315
  11 H :    0.195652
  12 H :    0.141106
  13 H :    0.138456
  14 H :    0.171731
  15 H :    0.171830
  16 H :    0.326127
Sum of atomic charges:   -0.0000000

LOEWDIN ATOMIC CHARGES
----------------------
   0 C :   -0.410151
   1 C :   -0.231053
   2 C :   -0.412043
   3 C :   -0.234321
   4 C :    0.345075
   5 O :   -0.438214
   6 O :   -0.407244
   7 H :    0.152686
   8 H :    0.170215
   9 H :    0.154321
  10 H :    0.157152
  11 H :    0.176383
  12 H :    0.152444
  13 H :    0.151220
  14 H :    0.186106
  15 H :    0.189007
  16 H :    0.298416

  Mayer bond orders larger than 0.100000
B(  0-C ,  1-C ) :   0.8948 B(  0-C ,  7-H ) :   0.9748 B(  0-C ,  8-H ) :   0.9733
B(  0-C ,  9-H ) :   0.9693 B(  1-C ,  2-C ) :   0.8990 B(  1-C ,  3-C ) :   0.9091
B(  1-C , 10-H ) :   0.9637 B(  2-C , 11-H ) :   0.9739 B(  2-C , 12-H ) :   0.9710
B(  2-C , 13-H ) :   0.9720 B(  3-C ,  4-C ) :   0.9752 B(  3-C , 14-H ) :   0.9566
B(  3-C , 15-H ) :   0.9292 B(  4-C ,  5-O ) :   1.9289 B(  4-C ,  6-O ) :   1.0432
B(  6-O , 16-H ) :   0.8606

Dispersion correction           -0.004455665
FINAL SINGLE POINT ENERGY      -346.948244878985

DIPOLE MOMENT
-------------

Method             : SCF
Type of density    : Electron Density
Multiplicity       :   1
Irrep              :   0
Energy             :  -346.9532369292618910 Eh
Relativity type    :
Basis              : AO
                                X                 Y                 Z
Electronic contribution:     -8.727602607       0.766945573      -0.710510222
Nuclear contribution   :      8.622020700      -0.269292540       1.139744983
                        -----------------------------------------
Total Dipole Moment    :     -0.105581907       0.497653033       0.429234761
                        -----------------------------------------
Magnitude (a.u.)       :      0.665618930
Magnitude (Debye)      :      1.691868864

Rotational constants in cm-1:             0.147586             0.057065             0.054848
Rotational constants in MHz :          4424.527914          1710.776467          1644.291533

                             ****ORCA TERMINATED NORMALLY****
TOTAL RUN TIME: 0 days 0 hours 0 minutes 24 seconds 801 msec
