                         Program Version 6.0.0  -   RELEASE  -
|  1> ! r2scan-3c def2/J RI DEFGRID2 scfconv6 printgap
|  2> %output
|  3>     printlevel normal
|  4> end
|  5> %cpcm
|  6>     smd true
|  7>     smdsolvent "water"
|  8> end
|  9> * xyz 0 1
| 10> C 1.7356996007 0.6325968879 -0.9522847889
| 11> C 1.4137499394 0.0957508094 0.4407151163
| 12> C 1.5920900259 -1.4198788585 0.4949309042
| 13> C 0.0032396752 0.5129827411 0.8785061269
| 14> C -1.1183722681 0.1069937956 -0.0397549852
| 15> O -1.1076646012 -0.7826779682 -0.8623095598
| 16> O -2.1969778102 0.854549169 0.1679139593
| 17> H 1.6017888992 1.7113410826 -0.9895573915
| 18> H 1.0831386883 0.1744340549 -1.6919432671
| 19> H 2.7649107167 0.4034120746 -1.215923663
| 20> H 2.111508108 0.5493421487 1.153691512
| 21> H 0.8970736969 -1.9041133709 -0.1858097008
| 22> H 2.604402429 -1.6896267409 0.2049736338
| 23> H 1.4109804061 -1.7924592953 1.5005066407
| 24> H -0.057519617 1.5962362649 0.995928951
| 25> H -0.2242127283 0.0688135128 1.8514195812
| 26> H -2.9495647503 0.5944433703 -0.397449154
| 27> *
| 28>
| 29>                          ****END OF INPUT****

CARTESIAN COORDINATES (ANGSTROEM)
---------------------------------
  C      1.735700    0.632597   -0.952285
  C      1.413750    0.095751    0.440715
  C      1.592090   -1.419879    0.494931
  C      0.003240    0.512983    0.878506
  C     -1.118372    0.106994   -0.039755
  O     -1.107665   -0.782678   -0.862310
  O     -2.196978    0.854549    0.167914
  H      1.601789    1.711341   -0.989557
  H      1.083139    0.174434   -1.691943
  H      2.764911    0.403412   -1.215924
  H      2.111508    0.549342    1.153692
  H      0.897074   -1.904113   -0.185810
  H      2.604402   -1.689627    0.204974
  H      1.410980   -1.792459    1.500507
  H     -0.057520    1.596236    0.995929
  H     -0.224213    0.068814    1.851420
  H     -2.949565    0.594443   -0.397449

 Total Charge           Charge          ....    0
 Multiplicity           Mult            ....    1
 Number of Electrons    NEL             ....   56
 Basis Dimension        Dim             ....  193

ORBITAL ENERGIES
----------------

  NO   OCC          E(Eh)            E(eV)
   0   2.0000     -18.998287      -516.9697
   1   2.0000     -18.943437      -515.4771
   2   2.0000     -10.167430      -276.6698
   3   2.0000     -10.036448      -273.1056
   4   2.0000     -10.034551      -273.0540
   5   2.0000     -10.007577      -272.3200
   6   2.0000     -10.005607      -272.2664
   7   2.0000      -1.076858       -29.3028
   8   2.0000      -0.984999       -26.8032
   9   2.0000      -0.776646       -21.1336
  10   2.0000      -0.692995       -18.8574
  11   2.0000      -0.643610       -17.5135
  12   2.0000      -0.590588       -16.0707
  13   2.0000      -0.523064       -14.2333
  14   2.0000      -0.468249       -12.7417
  15   2.0000      -0.449646       -12.2355
  16   2.0000      -0.438744       -11.9388
  17   2.0000      -0.411470       -11.1967
  18   2.0000      -0.390851       -10.6356
  19   2.0000      -0.386039       -10.5046
  20   2.0000      -0.354537        -9.6475
  21   2.0000      -0.345167        -9.3925
  22   2.0000      -0.329049        -8.9539
  23   2.0000      -0.301830        -8.2132
  24   2.0000      -0.297238        -8.0883
  25   2.0000      -0.296646        -8.0722
  26   2.0000      -0.293640        -7.9903
  27   2.0000      -0.245129        -6.6703
  28   0.0000      -0.023456        -0.6383
  29   0.0000       0.075571         2.0564
  30   0.0000       0.094197         2.5632
  31   0.0000       0.136270         3.7081
  32   0.0000       0.140031         3.8104

MULLIKEN ATOMIC CHARGES
-----------------------
   0 C :   -0.565306
   1 C :    0.066778
   2 C :   -0.574946
   3 C :   -0.344799
   4 C :    0.362096
   5 O :   -0.485909
   6 O :   -0.371722
   7 H :    0.162279
   8 H :    0.169531
   9 H :    0.159371
  10 H :    0.163712
  11 H :    0.176129
  12 H :    0.156170
  13 H :    0.158627
  14 H :    0.190666
  15 H :    0.202565
  16 H :    0.374756
Sum of atomic charges:    0.0000000

LOEWDIN ATOMIC CHARGES
----------------------
   0 C :   -0.416702
   1 C :   -0.227843
   2 C :   -0.419784
   3 C :   -0.231777
   4 C :    0.355487
   5 O :   -0.494911
   6 O :   -0.401900
   7 H :    0.158628
   8 H :    0.163706
   9 H :    0.157338
  10 H :    0.164185
  11 H :    0.167120
  12 H :    0.155838
  13 H :    0.157199
  14 H :    0.194621
  15 H :    0.200611
  16 H :    0.318185

  Mayer bond orders larger than 0.100000
B(  0-C ,  1-C ) :   0.8946 B(  0-C ,  7-H ) :   0.9708 B(  0-C ,  8-H ) :   0.9747
B(  0-C ,  9-H ) :   0.9688 B(  1-C ,  2-C ) :   0.8922 B(  1-C ,  3-C ) :   0.9014
B(  1-C , 10-H ) :   0.9587 B(  2-C , 11-H ) :   0.9782 B(  2-C , 12-H ) :   0.9701
B(  2-C , 13-H ) :   0.9694 B(  3-C ,  4-C ) :   0.9781 B(  3-C , 14-H ) :   0.9484
B(  3-C , 15-H ) :   0.9201 B(  4-C ,  5-O ) :   1.8700 B(  4-C ,  6-O ) :   1.0701
B(  6-O , 16-H ) :   0.8371

Dispersion correction           -0.004455665
FINAL SINGLE POINT ENERGY      -346.956250133107

DIPOLE MOMENT
-------------

Method             : SCF
Type of density    : Electron Density
Multiplicity       :   1
Irrep              :   0
Energy             :  -346.9612421833834901 Eh
Relativity type    :
Basis              : AO
                                X                 Y                 Z
Electronic contribution:     -8.751616879       1.038225082      -0.443343893
Nuclear contribution   :      8.622020700      -0.269292540       1.139744983
                        -----------------------------------------
Total Dipole Moment    :     -0.129596179       0.768932541       0.696401090
                        -----------------------------------------
Magnitude (a.u.)       :      1.045479269
Magnitude (Debye)      :      2.657397114

Rotational constants in cm-1:             0.147586             0.057065             0.054848
Rotational constants in MHz :          4424.527914          1710.776467          1644.291533

                             ****ORCA TERMINATED NORMALLY****
TOTAL RUN TIME: 0 days 0 hours 0 minutes 29 seconds 254 msec
