                         Program Version 6.0.0  -   RELEASE  -
|  1> ! r2scan-3c def2/J RI DEFGRID2 scfconv6 printgap
|  2> %output
|  3>     printlevel normal
|  4> end
|  5> * xyz 0 1
|  6> C -1.7612816406 -0.5932348596 0.8224124745
|  7> C -1.1698008644 -0.5029251803 -0.5820550596
|  8> C 0.0290687454 0.4494136869 -0.7601612227
|  9> C -0.1045248026 1.7249023342 0.0696763307
| 10> C 1.3902474385 -0.232854096 -0.5423181147
| 11> C 1.6328545256 -0.8348202599 0.8369300681
| 12> H -2.544107165 -1.3491786768 0.8348118072
| 13> H -1.0139233164 -0.8672624694 1.5596538467
| 14> H -2.2055209411 0.3535381684 1.1170057939
| 15> H -1.9675513645 -0.1755906385 -1.2539951091
| 16> H -0.8663611949 -1.5006569932 -0.9074874003
| 17> H 0.0261274335 0.7532803735 -1.8154340831
| 18> H -1.0478204121 2.2195049294 -0.15017379
| 19> H 0.7045198804 2.4109127312 -0.1721110114
| 20> H -0.0658633999 1.5133140569 1.1337280431
| 21> H 1.4997091278 -1.0236815912 -1.2892197952
| 22> H 2.1683146923 0.5091007767 -0.7408731135
| 23> H 0.9685156044 -1.675103527 1.017696785
| 24> H 1.4899579151 -0.0948960121 1.6196522497
| 25> H 2.6566194515 -1.1981891553 0.9000020095
| 26> *
| 27>
| 28>                          ****END OF INPUT****

CARTESIAN COORDINATES (ANGSTROEM)
---------------------------------
  C     -1.761282   -0.593235    0.822412
  C     -1.169801   -0.502925   -0.582055
  C      0.029069    0.449414   -0.760161
  C     -0.104525    1.724902    0.069676
  C      1.390247   -0.232854   -0.542318
  C      1.632855   -0.834820    0.836930
  H     -2.544107   -1.349179    0.834812
  H     -1.013923   -0.867262    1.559654
  H     -2.205521    0.353538    1.117006
  H     -1.967551   -0.175591   -1.253995
  H     -0.866361   -1.500657   -0.907487
  H      0.026127    0.753280   -1.815434
  H     -1.047820    2.219505   -0.150174
  H      0.704520    2.410913   -0.172111
  H     -0.065863    1.513314    1.133728
  H      1.499709   -1.023682   -1.289220
  H      2.168315    0.509101   -0.740873
  H      0.968516   -1.675104    1.017697
  H      1.489958   -0.094896    1.619652
  H      2.656619   -1.198189    0.900002

 Total Charge           Charge          ....    0
 Multiplicity           Mult            ....    1
 Number of Electrons    NEL             ....   50
 Basis Dimension        Dim             ....  184

ORBITAL ENERGIES
----------------

  NO   OCC          E(Eh)            E(eV)
   0   2.0000     -10.027762      -272.8693
   1   2.0000     -10.020415      -272.6693
   2   2.0000     -10.019970      -272.6572
   3   2.0000     -10.013282      -272.4752
   4   2.0000     -10.011851      -272.4363
   5   2.0000     -10.011646      -272.4307
   6   2.0000      -0.778607       -21.1870
   7   2.0000      -0.711368       -19.3573
   8   2.0000      -0.679060       -18.4782
   9   2.0000      -0.618004       -16.8167
  10   2.0000      -0.573088       -15.5945
  11   2.0000      -0.498480       -13.5643
  12   2.0000      -0.439398       -11.9566
  13   2.0000      -0.420402       -11.4397
  14   2.0000      -0.417846       -11.3702
  15   2.0000      -0.372580       -10.1384
  16   2.0000      -0.362210        -9.8562
  17   2.0000      -0.352170        -9.5830
  18   2.0000      -0.347705        -9.4615
  19   2.0000      -0.331204        -9.0125
  20   2.0000      -0.324670        -8.8347
  21   2.0000      -0.306486        -8.3399
  22   2.0000      -0.281069        -7.6483
  23   2.0000      -0.275673        -7.5014
  24   2.0000      -0.268399        -7.3035
  25   0.0000       0.079185         2.1547
  26   0.0000       0.106956         2.9104
  27   0.0000       0.117489         3.1970
  28   0.0000       0.125441         3.4134
  29   0.0000       0.133003         3.6192

MULLIKEN ATOMIC CHARGES
-----------------------
   0 C :   -0.480314
   1 C :   -0.303872
   2 C :    0.006884
   3 C :   -0.531733
   4 C :   -0.260845
   5 C :   -0.513095
   6 H :    0.144496
   7 H :    0.159500
   8 H :    0.151167
   9 H :    0.146059
  10 H :    0.142281
  11 H :    0.149022
  12 H :    0.153631
  13 H :    0.145734
  14 H :    0.159071
  15 H :    0.145634
  16 H :    0.136525
  17 H :    0.150259
  18 H :    0.154863
  19 H :    0.144734
Sum of atomic charges:    0.0000000

LOEWDIN ATOMIC CHARGES
----------------------
   0 C :   -0.426093
   1 C :   -0.312421
   2 C :   -0.244342
   3 C :   -0.417472
   4 C :   -0.310918
   5 C :   -0.427134
   6 H :    0.151109
   7 H :    0.151427
   8 H :    0.150516
   9 H :    0.154940
  10 H :    0.155218
  11 H :    0.157427
  12 H :    0.154728
  13 H :    0.153792
  14 H :    0.153001
  15 H :    0.153144
  16 H :    0.153041
  17 H :    0.149700
  18 H :    0.149620
  19 H :    0.150716

  Mayer bond orders larger than 0.100000
B(  0-C ,  1-C ) :   0.8829 B(  0-C ,  6-H ) :   0.9709 B(  0-C ,  7-H ) :   0.9838
B(  0-C ,  8-H ) :   0.9721 B(  1-C ,  2-C ) :   0.8730 B(  1-C ,  9-H ) :   0.9648
B(  1-C , 10-H ) :   0.9870 B(  2-C ,  3-C ) :   0.8898 B(  2-C ,  4-C ) :   0.9068
B(  2-C , 11-H ) :   0.9816 B(  3-C , 12-H ) :   0.9787 B(  3-C , 13-H ) :   0.9715
B(  3-C , 14-H ) :   0.9745 B(  4-C ,  5-C ) :   0.8667 B(  4-C , 15-H ) :   0.9763
B(  4-C , 16-H ) :   0.9793 B(  5-C , 17-H ) :   0.9770 B(  5-C , 18-H ) :   0.9891
B(  5-C , 19-H ) :   0.9645

Dispersion correction           -0.005320560
FINAL SINGLE POINT ENERGY      -236.982528862409

DIPOLE MOMENT
-------------

Method             : SCF
Type of density    : Electron Density
Multiplicity       :   1
Irrep              :   0
Energy             :  -236.9869293242742287 Eh
Relativity type    :
Basis              : AO
                                X                 Y                 Z
Electronic contribution:      0.190088966       0.117086295      -1.804800403
Nuclear contribution   :     -0.185177714      -0.117183862       1.738653045
                        -----------------------------------------
Total Dipole Moment    :      0.004911252      -0.000097567      -0.066147358
                        -----------------------------------------
Magnitude (a.u.)       :      0.066329503
Magnitude (Debye)      :      0.168596197

Rotational constants in cm-1:             0.131801             0.089477             0.073226
Rotational constants in MHz :          3951.286707          2682.459092          2195.259681

                             ****ORCA TERMINATED NORMALLY****
TOTAL RUN TIME: 0 days 0 hours 0 minutes 16 seconds 948 msec
