                         Program Version 6.0.0  -   RELEASE  -
|  1> ! pbe def2-sv(p) def2/J RI DEFGRID1 loosescf d4 GCP(DFT/SV(P)) printgap
|  2> %output
|  3>     printlevel normal
|  4> end
|  5> * xyz 0 1
|  6> C -1.343036857 -0.4291086324 -0.3602358086
|  7> C 0.0191066885 -0.0281487736 0.244010677
|  8> C 1.1590155583 -0.6875895889 -0.5438404761
|  9> O 2.3937829847 -0.6591938265 0.1266986043
| 10> O 0.1923811254 1.3769168082 0.1850377356
| 11> O -2.4110392185 0.2757050259 0.2277969609
| 12> H -1.5325450082 -1.4857542117 -0.1663722146
| 13> H -1.319288188 -0.261515656 -1.4432049667
| 14> H 0.0557059414 -0.3652507338 1.2880365906
| 15> H 1.3123968436 -0.1219413765 -1.4649438918
| 16> H 0.8761030267 -1.716925819 -0.7969137036
| 17> H 2.3302217221 -1.1686079499 0.9474075973
| 18> H -0.1923961453 1.7870910794 0.9707082955
| 19> H -2.3448772526 1.2059918986 -0.0335068528
| 20> *
| 21>
| 22>                          ****END OF INPUT****

CARTESIAN COORDINATES (ANGSTROEM)
---------------------------------
  C     -1.343037   -0.429109   -0.360236
  C      0.019107   -0.028149    0.244011
  C      1.159016   -0.687590   -0.543840
  O      2.393783   -0.659194    0.126699
  O      0.192381    1.376917    0.185038
  O     -2.411039    0.275705    0.227797
  H     -1.532545   -1.485754   -0.166372
  H     -1.319288   -0.261516   -1.443205
  H      0.055706   -0.365251    1.288037
  H      1.312397   -0.121941   -1.464944
  H      0.876103   -1.716926   -0.796914
  H      2.330222   -1.168608    0.947408
  H     -0.192396    1.787091    0.970708
  H     -2.344877    1.205992   -0.033507

 Total Charge           Charge          ....    0
 Multiplicity           Mult            ....    1
 Number of Electrons    NEL             ....   50
 Basis Dimension        Dim             ....  100

ORBITAL ENERGIES
----------------

  NO   OCC          E(Eh)            E(eV)
   0   2.0000     -18.756166      -510.3812
   1   2.0000     -18.749068      -510.1881
   2   2.0000     -18.742768      -510.0166
   3   2.0000      -9.940305      -270.4894
   4   2.0000      -9.931375      -270.2465
   5   2.0000      -9.931266      -270.2435
   6   2.0000      -0.941588       -25.6219
   7   2.0000      -0.921021       -25.0623
   8   2.0000      -0.911354       -24.7992
   9   2.0000      -0.686871       -18.6907
  10   2.0000      -0.600822       -16.3492
  11   2.0000      -0.544115       -14.8061
  12   2.0000      -0.486798       -13.2464
  13   2.0000      -0.473167       -12.8755
  14   2.0000      -0.438715       -11.9380
  15   2.0000      -0.408874       -11.1260
  16   2.0000      -0.380821       -10.3627
  17   2.0000      -0.372255       -10.1296
  18   2.0000      -0.354377        -9.6431
  19   2.0000      -0.298360        -8.1188
  20   2.0000      -0.289687        -7.8828
  21   2.0000      -0.271637        -7.3916
  22   2.0000      -0.245253        -6.6737
  23   2.0000      -0.224099        -6.0980
  24   2.0000      -0.201690        -5.4883
  25   0.0000       0.010744         0.2924
  26   0.0000       0.028589         0.7780
  27   0.0000       0.055901         1.5211
  28   0.0000       0.059772         1.6265
  29   0.0000       0.088478         2.4076

MULLIKEN ATOMIC CHARGES
-----------------------
   0 C :    0.025357
   1 C :   -0.036454
   2 C :    0.043347
   3 O :   -0.428881
   4 O :   -0.422825
   5 O :   -0.437672
   6 H :    0.083703
   7 H :    0.076095
   8 H :    0.052450
   9 H :    0.094184
  10 H :    0.074349
  11 H :    0.291658
  12 H :    0.298780
  13 H :    0.285908
Sum of atomic charges:   -0.0000000

LOEWDIN ATOMIC CHARGES
----------------------
   0 C :   -0.140345
   1 C :   -0.098542
   2 C :   -0.130337
   3 O :   -0.333059
   4 O :   -0.327265
   5 O :   -0.340188
   6 H :    0.113559
   7 H :    0.100851
   8 H :    0.096964
   9 H :    0.122149
  10 H :    0.096734
  11 H :    0.279751
  12 H :    0.284540
  13 H :    0.275188

  Mayer bond orders larger than 0.100000
B(  0-C ,  1-C ) :   1.0071 B(  0-C ,  5-O ) :   1.0759 B(  0-C ,  6-H ) :   0.9160
B(  0-C ,  7-H ) :   0.9188 B(  1-C ,  2-C ) :   1.0197 B(  1-C ,  4-O ) :   1.0689
B(  1-C ,  8-H ) :   0.9016 B(  2-C ,  3-O ) :   1.0808 B(  2-C ,  9-H ) :   0.9047
B(  2-C , 10-H ) :   0.9269 B(  3-O , 11-H ) :   0.8552 B(  4-O , 12-H ) :   0.8450
B(  5-O , 13-H ) :   0.8441

Dispersion correction           -0.008954148
FINAL SINGLE POINT ENERGY      -344.004118927328

DIPOLE MOMENT
-------------

Method             : SCF
Type of density    : Electron Density
Multiplicity       :   1
Irrep              :   0
Energy             :  -344.0769583691377989 Eh
Relativity type    :
Basis              : AO
                                X                 Y                 Z
Electronic contribution:      0.468420068       1.833939836       1.078717178
Nuclear contribution   :     -0.761709366      -1.980659202      -0.647572583
                        -----------------------------------------
Total Dipole Moment    :     -0.293289299      -0.146719366       0.431144594
                        -----------------------------------------
Magnitude (a.u.)       :      0.541692576
Magnitude (Debye)      :      1.376873105

Rotational constants in cm-1:             0.257100             0.064512             0.055775
Rotational constants in MHz :          7707.659496          1934.009786          1672.087008

                             ****ORCA TERMINATED NORMALLY****
TOTAL RUN TIME: 0 days 0 hours 0 minutes 6 seconds 693 msec
