                         Program Version 6.0.0  -   RELEASE  -
|  1> ! r2scan-3c def2/J RI DEFGRID2 scfconv6 printgap
|  2> %output
|  3>     printlevel normal
|  4> end
|  5> * xyz 0 1
|  6> C 1.7145859646 -1.2343822426 -0.9805062234
|  7> O 1.4796681046 -0.2545654487 0.0467191507
|  8> S 0.0625207873 0.3809100845 0.0571432063
|  9> O -0.3381812205 0.7853723767 -1.2602840631
| 10> O 0.0468228342 1.3877144324 1.0723362772
| 11> O -0.7917262342 -0.866819816 0.5055334738
| 12> C -2.2145112278 -0.661310774 0.5178965243
| 13> H 1.2842230563 -2.1841490211 -0.666515356
| 14> H 2.7944046127 -1.3047843449 -1.0869890024
| 15> H 1.2465751541 -0.887740349 -1.9010264823
| 16> H -2.5745104252 -0.9291688893 1.5093920252
| 17> H -2.6535396223 -1.3013289946 -0.2460993787
| 18> H -2.4240208908 0.3848499259 0.3031566599
| 19> *
| 20>
| 21>                          ****END OF INPUT****

CARTESIAN COORDINATES (ANGSTROEM)
---------------------------------
  C      1.714586   -1.234382   -0.980506
  O      1.479668   -0.254565    0.046719
  S      0.062521    0.380910    0.057143
  O     -0.338181    0.785372   -1.260284
  O      0.046823    1.387714    1.072336
  O     -0.791726   -0.866820    0.505533
  C     -2.214511   -0.661311    0.517897
  H      1.284223   -2.184149   -0.666515
  H      2.794405   -1.304784   -1.086989
  H      1.246575   -0.887740   -1.901026
  H     -2.574510   -0.929169    1.509392
  H     -2.653540   -1.301329   -0.246099
  H     -2.424021    0.384850    0.303157

 Total Charge           Charge          ....    0
 Multiplicity           Mult            ....    1
 Number of Electrons    NEL             ....   66
 Basis Dimension        Dim             ....  191

ORBITAL ENERGIES
----------------

  NO   OCC          E(Eh)            E(eV)
   0   2.0000     -88.821309     -2416.9507
   1   2.0000     -19.030440      -517.8446
   2   2.0000     -19.020043      -517.5617
   3   2.0000     -18.955422      -515.8032
   4   2.0000     -18.953500      -515.7510
   5   2.0000     -10.110099      -275.1098
   6   2.0000     -10.110033      -275.1080
   7   2.0000      -8.085367      -220.0140
   8   2.0000      -6.032201      -164.1445
   9   2.0000      -6.031274      -164.1193
  10   2.0000      -6.028210      -164.0359
  11   2.0000      -1.164093       -31.6766
  12   2.0000      -1.053016       -28.6540
  13   2.0000      -1.023833       -27.8599
  14   2.0000      -0.990147       -26.9433
  15   2.0000      -0.740390       -20.1470
  16   2.0000      -0.702061       -19.1041
  17   2.0000      -0.589947       -16.0533
  18   2.0000      -0.549055       -14.9405
  19   2.0000      -0.497698       -13.5431
  20   2.0000      -0.485300       -13.2057
  21   2.0000      -0.457010       -12.4359
  22   2.0000      -0.453359       -12.3365
  23   2.0000      -0.441882       -12.0242
  24   2.0000      -0.416088       -11.3223
  25   2.0000      -0.380907       -10.3650
  26   2.0000      -0.365276        -9.9397
  27   2.0000      -0.338227        -9.2036
  28   2.0000      -0.330132        -8.9834
  29   2.0000      -0.327105        -8.9010
  30   2.0000      -0.305227        -8.3057
  31   2.0000      -0.287982        -7.8364
  32   2.0000      -0.263809        -7.1786
  33   0.0000       0.010729         0.2920
  34   0.0000       0.046020         1.2523
  35   0.0000       0.065278         1.7763
  36   0.0000       0.085200         2.3184
  37   0.0000       0.093672         2.5489

MULLIKEN ATOMIC CHARGES
-----------------------
   0 C :   -0.281619
   1 O :   -0.228384
   2 S :    1.075274
   3 O :   -0.565599
   4 O :   -0.508695
   5 O :   -0.251865
   6 C :   -0.249091
   7 H :    0.166005
   8 H :    0.162402
   9 H :    0.186736
  10 H :    0.161600
  11 H :    0.158412
  12 H :    0.174823
Sum of atomic charges:   -0.0000000

LOEWDIN ATOMIC CHARGES
----------------------
   0 C :   -0.038727
   1 O :   -0.538033
   2 S :    0.883879
   3 O :   -0.412305
   4 O :   -0.371564
   5 O :   -0.574780
   6 C :   -0.034999
   7 H :    0.174925
   8 H :    0.183371
   9 H :    0.189405
  10 H :    0.178289
  11 H :    0.175336
  12 H :    0.185202

  Mayer bond orders larger than 0.100000
B(  0-C ,  1-O ) :   0.7923 B(  0-C ,  7-H ) :   0.9604 B(  0-C ,  8-H ) :   0.9614
B(  0-C ,  9-H ) :   0.9606 B(  1-O ,  2-S ) :   1.0814 B(  2-S ,  3-O ) :   1.6011
B(  2-S ,  4-O ) :   1.7846 B(  2-S ,  5-O ) :   0.9321 B(  5-O ,  6-C ) :   0.8030
B(  6-C , 10-H ) :   0.9647 B(  6-C , 11-H ) :   0.9642 B(  6-C , 12-H ) :   0.9670

Dispersion correction           -0.003533980
FINAL SINGLE POINT ENERGY      -778.748998174045

DIPOLE MOMENT
-------------

Method             : SCF
Type of density    : Electron Density
Multiplicity       :   1
Irrep              :   0
Energy             :  -778.7695116637296451 Eh
Relativity type    :
Basis              : AO
                                X                 Y                 Z
Electronic contribution:      1.918151196       4.344369707       1.631967486
Nuclear contribution   :     -2.178924783      -5.832968649      -1.955225365
                        -----------------------------------------
Total Dipole Moment    :     -0.260773588      -1.488598943      -0.323257878
                        -----------------------------------------
Magnitude (a.u.)       :      1.545453115
Magnitude (Debye)      :      3.928229638

Rotational constants in cm-1:             0.115620             0.070048             0.059628
Rotational constants in MHz :          3466.195590          2099.986122          1787.603028

                             ****ORCA TERMINATED NORMALLY****
TOTAL RUN TIME: 0 days 0 hours 0 minutes 21 seconds 856 msec
