                         Program Version 6.0.0  -   RELEASE  -
|  1> ! r2scan-3c def2/J RI DEFGRID2 scfconv6 printgap
|  2> %output
|  3>     printlevel normal
|  4> end
|  5> %cpcm
|  6>     smd true
|  7>     smdsolvent "water"
|  8> end
|  9> * xyz 0 1
| 10> C 1.7145859646 -1.2343822426 -0.9805062234
| 11> O 1.4796681046 -0.2545654487 0.0467191507
| 12> S 0.0625207873 0.3809100845 0.0571432063
| 13> O -0.3381812205 0.7853723767 -1.2602840631
| 14> O 0.0468228342 1.3877144324 1.0723362772
| 15> O -0.7917262342 -0.866819816 0.5055334738
| 16> C -2.2145112278 -0.661310774 0.5178965243
| 17> H 1.2842230563 -2.1841490211 -0.666515356
| 18> H 2.7944046127 -1.3047843449 -1.0869890024
| 19> H 1.2465751541 -0.887740349 -1.9010264823
| 20> H -2.5745104252 -0.9291688893 1.5093920252
| 21> H -2.6535396223 -1.3013289946 -0.2460993787
| 22> H -2.4240208908 0.3848499259 0.3031566599
| 23> *
| 24>
| 25>                          ****END OF INPUT****

CARTESIAN COORDINATES (ANGSTROEM)
---------------------------------
  C      1.714586   -1.234382   -0.980506
  O      1.479668   -0.254565    0.046719
  S      0.062521    0.380910    0.057143
  O     -0.338181    0.785372   -1.260284
  O      0.046823    1.387714    1.072336
  O     -0.791726   -0.866820    0.505533
  C     -2.214511   -0.661311    0.517897
  H      1.284223   -2.184149   -0.666515
  H      2.794405   -1.304784   -1.086989
  H      1.246575   -0.887740   -1.901026
  H     -2.574510   -0.929169    1.509392
  H     -2.653540   -1.301329   -0.246099
  H     -2.424021    0.384850    0.303157

 Total Charge           Charge          ....    0
 Multiplicity           Mult            ....    1
 Number of Electrons    NEL             ....   66
 Basis Dimension        Dim             ....  191

ORBITAL ENERGIES
----------------

  NO   OCC          E(Eh)            E(eV)
   0   2.0000     -88.835113     -2417.3263
   1   2.0000     -19.032768      -517.9080
   2   2.0000     -19.021273      -517.5951
   3   2.0000     -18.972822      -516.2767
   4   2.0000     -18.970937      -516.2254
   5   2.0000     -10.091720      -274.6097
   6   2.0000     -10.091639      -274.6075
   7   2.0000      -8.098842      -220.3807
   8   2.0000      -6.045433      -164.5046
   9   2.0000      -6.044652      -164.4833
  10   2.0000      -6.042181      -164.4161
  11   2.0000      -1.173166       -31.9235
  12   2.0000      -1.053738       -28.6737
  13   2.0000      -1.033192       -28.1146
  14   2.0000      -1.008325       -27.4379
  15   2.0000      -0.734085       -19.9755
  16   2.0000      -0.690448       -18.7881
  17   2.0000      -0.584844       -15.9144
  18   2.0000      -0.546133       -14.8610
  19   2.0000      -0.507862       -13.8196
  20   2.0000      -0.490297       -13.3417
  21   2.0000      -0.451768       -12.2932
  22   2.0000      -0.445289       -12.1169
  23   2.0000      -0.429476       -11.6866
  24   2.0000      -0.421711       -11.4753
  25   2.0000      -0.381788       -10.3890
  26   2.0000      -0.363220        -9.8837
  27   2.0000      -0.345654        -9.4057
  28   2.0000      -0.334535        -9.1031
  29   2.0000      -0.328000        -8.9253
  30   2.0000      -0.311637        -8.4801
  31   2.0000      -0.300062        -8.1651
  32   2.0000      -0.275912        -7.5080
  33   0.0000       0.012145         0.3305
  34   0.0000       0.043958         1.1962
  35   0.0000       0.064935         1.7670
  36   0.0000       0.086914         2.3650
  37   0.0000       0.100299         2.7293

MULLIKEN ATOMIC CHARGES
-----------------------
   0 C :   -0.289632
   1 O :   -0.246765
   2 S :    1.091336
   3 O :   -0.599982
   4 O :   -0.560870
   5 O :   -0.262730
   6 C :   -0.268164
   7 H :    0.190669
   8 H :    0.193160
   9 H :    0.192561
  10 H :    0.189785
  11 H :    0.188922
  12 H :    0.181709
Sum of atomic charges:    0.0000000

LOEWDIN ATOMIC CHARGES
----------------------
   0 C :   -0.027086
   1 O :   -0.546401
   2 S :    0.886275
   3 O :   -0.439603
   4 O :   -0.414932
   5 O :   -0.572545
   6 C :   -0.027666
   7 H :    0.186091
   8 H :    0.197158
   9 H :    0.193045
  10 H :    0.190368
  11 H :    0.188103
  12 H :    0.187192

  Mayer bond orders larger than 0.100000
B(  0-C ,  1-O ) :   0.7802 B(  0-C ,  7-H ) :   0.9493 B(  0-C ,  8-H ) :   0.9491
B(  0-C ,  9-H ) :   0.9515 B(  1-O ,  2-S ) :   1.1074 B(  2-S ,  3-O ) :   1.5736
B(  2-S ,  4-O ) :   1.7314 B(  2-S ,  5-O ) :   0.9679 B(  5-O ,  6-C ) :   0.7831
B(  6-C , 10-H ) :   0.9533 B(  6-C , 11-H ) :   0.9540 B(  6-C , 12-H ) :   0.9566

Dispersion correction           -0.003533980
FINAL SINGLE POINT ENERGY      -778.761039729785

DIPOLE MOMENT
-------------

Method             : SCF
Type of density    : Electron Density
Multiplicity       :   1
Irrep              :   0
Energy             :  -778.7815532194697425 Eh
Relativity type    :
Basis              : AO
                                X                 Y                 Z
Electronic contribution:      1.843612558       3.855913940       1.523493440
Nuclear contribution   :     -2.178924783      -5.832968649      -1.955225365
                        -----------------------------------------
Total Dipole Moment    :     -0.335312225      -1.977054710      -0.431731924
                        -----------------------------------------
Magnitude (a.u.)       :      2.051236717
Magnitude (Debye)      :      5.213829384

Rotational constants in cm-1:             0.115620             0.070048             0.059628
Rotational constants in MHz :          3466.195590          2099.986122          1787.603028

                             ****ORCA TERMINATED NORMALLY****
TOTAL RUN TIME: 0 days 0 hours 0 minutes 24 seconds 945 msec
