                         Program Version 6.0.0  -   RELEASE  -
|  1> ! pbe def2-sv(p) def2/J RI DEFGRID1 loosescf d4 GCP(DFT/SV(P)) printgap
|  2> %output
|  3>     printlevel normal
|  4> end
|  5> * xyz 0 1
|  6> C 2.7188585273 -0.3551241227 0.2579469061
|  7> C 1.3359416307 -0.7235367904 -0.2736112874
|  8> C 0.2357084687 0.2279318943 0.2186051023
|  9> H 0.2048207066 0.192826295 1.3209131222
| 10> C -1.1596298796 -0.1421264692 -0.3191666612
| 11> C -1.5513124029 -1.5823135485 0.0013383545
| 12> C -2.2000433136 0.8178683652 0.2592533536
| 13> O 0.485437729 1.5622599475 -0.1977477874
| 14> H 3.4383402863 -1.1188238336 -0.0259301012
| 15> H 2.7042012239 -0.2862568924 1.3440179384
| 16> H 3.0607670707 0.5921288535 -0.1522810582
| 17> H 1.3456929807 -0.7081564445 -1.3652003052
| 18> H 1.0923433859 -1.7321330772 0.0563978465
| 19> H -1.1301132143 -0.0053192896 -1.405321745
| 20> H -2.5942171403 -1.740361783 -0.2614264884
| 21> H -0.9524212268 -2.2948522099 -0.5579051955
| 22> H -1.4325315953 -1.7792573713 1.0646144678
| 23> H -1.9070433317 1.8460385588 0.0653960818
| 24> H -2.2855759351 0.6759874609 1.3346400871
| 25> H -3.1717852905 0.63965257 -0.1937586519
| 26> H 1.3158209967 1.8607203964 0.1945052882
| 27> *
| 28>
| 29>                          ****END OF INPUT****

CARTESIAN COORDINATES (ANGSTROEM)
---------------------------------
  C      2.718859   -0.355124    0.257947
  C      1.335942   -0.723537   -0.273611
  C      0.235708    0.227932    0.218605
  H      0.204821    0.192826    1.320913
  C     -1.159630   -0.142126   -0.319167
  C     -1.551312   -1.582314    0.001338
  C     -2.200043    0.817868    0.259253
  O      0.485438    1.562260   -0.197748
  H      3.438340   -1.118824   -0.025930
  H      2.704201   -0.286257    1.344018
  H      3.060767    0.592129   -0.152281
  H      1.345693   -0.708156   -1.365200
  H      1.092343   -1.732133    0.056398
  H     -1.130113   -0.005319   -1.405322
  H     -2.594217   -1.740362   -0.261426
  H     -0.952421   -2.294852   -0.557905
  H     -1.432532   -1.779257    1.064614
  H     -1.907043    1.846039    0.065396
  H     -2.285576    0.675987    1.334640
  H     -3.171785    0.639653   -0.193759
  H      1.315821    1.860720    0.194505

 Total Charge           Charge          ....    0
 Multiplicity           Mult            ....    1
 Number of Electrons    NEL             ....   58
 Basis Dimension        Dim             ....  126

ORBITAL ENERGIES
----------------

  NO   OCC          E(Eh)            E(eV)
   0   2.0000     -18.739167      -509.9187
   1   2.0000      -9.932055      -270.2650
   2   2.0000      -9.888203      -269.0717
   3   2.0000      -9.882161      -268.9073
   4   2.0000      -9.881384      -268.8861
   5   2.0000      -9.871746      -268.6239
   6   2.0000      -9.860952      -268.3302
   7   2.0000      -0.917083       -24.9551
   8   2.0000      -0.723191       -19.6790
   9   2.0000      -0.687593       -18.7104
  10   2.0000      -0.604939       -16.4612
  11   2.0000      -0.602774       -16.4023
  12   2.0000      -0.531910       -14.4740
  13   2.0000      -0.493721       -13.4348
  14   2.0000      -0.460205       -12.5228
  15   2.0000      -0.418252       -11.3812
  16   2.0000      -0.398942       -10.8558
  17   2.0000      -0.390538       -10.6271
  18   2.0000      -0.365357        -9.9419
  19   2.0000      -0.353644        -9.6231
  20   2.0000      -0.336835        -9.1658
  21   2.0000      -0.329234        -8.9589
  22   2.0000      -0.318940        -8.6788
  23   2.0000      -0.307468        -8.3666
  24   2.0000      -0.296711        -8.0739
  25   2.0000      -0.287270        -7.8170
  26   2.0000      -0.281258        -7.6534
  27   2.0000      -0.258392        -7.0312
  28   2.0000      -0.211498        -5.7552
  29   0.0000       0.024427         0.6647
  30   0.0000       0.047832         1.3016
  31   0.0000       0.061220         1.6659
  32   0.0000       0.072356         1.9689
  33   0.0000       0.092115         2.5066

MULLIKEN ATOMIC CHARGES
-----------------------
   0 C :   -0.290927
   1 C :   -0.150132
   2 C :    0.029391
   3 H :    0.043407
   4 C :   -0.152233
   5 C :   -0.257525
   6 C :   -0.233450
   7 O :   -0.423586
   8 H :    0.109935
   9 H :    0.098942
  10 H :    0.094013
  11 H :    0.084995
  12 H :    0.086815
  13 H :    0.071313
  14 H :    0.099880
  15 H :    0.110119
  16 H :    0.093112
  17 H :    0.113378
  18 H :    0.081575
  19 H :    0.093879
  20 H :    0.297099
Sum of atomic charges:    0.0000000

LOEWDIN ATOMIC CHARGES
----------------------
   0 C :   -0.348668
   1 C :   -0.247915
   2 C :   -0.043706
   3 H :    0.091561
   4 C :   -0.159018
   5 C :   -0.330852
   6 C :   -0.332194
   7 O :   -0.327081
   8 H :    0.124923
   9 H :    0.116905
  10 H :    0.111388
  11 H :    0.120116
  12 H :    0.120521
  13 H :    0.118556
  14 H :    0.120666
  15 H :    0.117154
  16 H :    0.116366
  17 H :    0.123002
  18 H :    0.112732
  19 H :    0.114633
  20 H :    0.280911

  Mayer bond orders larger than 0.100000
B(  0-C ,  1-C ) :   1.1491 B(  0-C ,  8-H ) :   0.9506 B(  0-C ,  9-H ) :   0.9519
B(  0-C , 10-H ) :   0.9428 B(  1-C ,  2-C ) :   1.0771 B(  1-C , 11-H ) :   0.9114
B(  1-C , 12-H ) :   0.9001 B(  2-C ,  3-H ) :   0.8926 B(  2-C ,  4-C ) :   1.0437
B(  2-C ,  7-O ) :   1.0505 B(  4-C ,  5-C ) :   1.1020 B(  4-C ,  6-C ) :   1.1211
B(  4-C , 13-H ) :   0.8884 B(  5-C , 14-H ) :   0.9484 B(  5-C , 15-H ) :   0.9422
B(  5-C , 16-H ) :   0.9477 B(  6-C , 17-H ) :   0.9411 B(  6-C , 18-H ) :   0.9486
B(  6-C , 19-H ) :   0.9507 B(  7-O , 20-H ) :   0.8438

Dispersion correction           -0.016404579
FINAL SINGLE POINT ENERGY      -311.518319195977

DIPOLE MOMENT
-------------

Method             : SCF
Type of density    : Electron Density
Multiplicity       :   1
Irrep              :   0
Energy             :  -311.5985159577609238 Eh
Relativity type    :
Basis              : AO
                                X                 Y                 Z
Electronic contribution:      0.718293636       3.334418705      -1.056236700
Nuclear contribution   :     -0.285222322      -3.596068534       1.328001575
                        -----------------------------------------
Total Dipole Moment    :      0.433071314      -0.261649829       0.271764875
                        -----------------------------------------
Magnitude (a.u.)       :      0.574340964
Magnitude (Debye)      :      1.459858714

Rotational constants in cm-1:             0.133552             0.056700             0.043003
Rotational constants in MHz :          4003.792866          1699.820548          1289.209768

                             ****ORCA TERMINATED NORMALLY****
TOTAL RUN TIME: 0 days 0 hours 0 minutes 9 seconds 115 msec
