                         Program Version 6.0.0  -   RELEASE  -
|  1> ! pbe def2-sv(p) def2/J RI DEFGRID1 loosescf d4 GCP(DFT/SV(P)) printgap
|  2> %output
|  3>     printlevel normal
|  4> end
|  5> * xyz 0 1
|  6> C 2.7020407374 -1.4311973052 9.05245e-05
|  7> O 1.2898840116 -1.3572966529 -0.0002375993
|  8> C 0.7060708523 -0.1206655569 -3.89966e-05
|  9> C 1.3867141229 1.08390247 0.0004814169
| 10> C 0.6887270219 2.2849834722 0.000174065
| 11> C -0.6886610294 2.2849832479 -0.0003504894
| 12> C -1.3866798164 1.08390959 -0.0002020993
| 13> C -0.7060958672 -0.1206961584 -0.0001816568
| 14> O -1.2899488045 -1.3572760024 -0.0006934831
| 15> C -2.702022652 -1.4311227641 0.0008279612
| 16> H 3.1228881002 -0.962988009 -0.8938433634
| 17> H 2.9303409006 -2.4945684463 -0.001492642
| 18> H 3.1223239586 -0.9657477138 0.8957382999
| 19> H 2.4641019965 1.1009308225 0.0013482696
| 20> H 1.2361302186 3.2142330436 0.000756224
| 21> H -1.2360911635 3.2142246364 -0.0003873876
| 22> H -2.4640742456 1.1010805272 -0.0004680693
| 23> H -2.9304113645 -2.4944763561 -0.0006935243
| 24> H -3.1237719756 -0.9627845197 -0.8926214769
| 25> H -3.1215205749 -0.9658036488 0.8969015365
| 26> *
| 27>
| 28>                          ****END OF INPUT****

CARTESIAN COORDINATES (ANGSTROEM)
---------------------------------
  C      2.702041   -1.431197    0.000091
  O      1.289884   -1.357297   -0.000238
  C      0.706071   -0.120666   -0.000039
  C      1.386714    1.083902    0.000481
  C      0.688727    2.284983    0.000174
  C     -0.688661    2.284983   -0.000350
  C     -1.386680    1.083910   -0.000202
  C     -0.706096   -0.120696   -0.000182
  O     -1.289949   -1.357276   -0.000693
  C     -2.702023   -1.431123    0.000828
  H      3.122888   -0.962988   -0.893843
  H      2.930341   -2.494568   -0.001493
  H      3.122324   -0.965748    0.895738
  H      2.464102    1.100931    0.001348
  H      1.236130    3.214233    0.000756
  H     -1.236091    3.214225   -0.000387
  H     -2.464074    1.101081   -0.000468
  H     -2.930411   -2.494476   -0.000694
  H     -3.123772   -0.962785   -0.892621
  H     -3.121521   -0.965804    0.896902

 Total Charge           Charge          ....    0
 Multiplicity           Mult            ....    1
 Number of Electrons    NEL             ....   74
 Basis Dimension        Dim             ....  160

ORBITAL ENERGIES
----------------

  NO   OCC          E(Eh)            E(eV)
   0   2.0000     -18.780635      -511.0471
   1   2.0000     -18.780516      -511.0438
   2   2.0000      -9.943143      -270.5667
   3   2.0000      -9.943024      -270.5634
   4   2.0000      -9.936441      -270.3843
   5   2.0000      -9.936424      -270.3839
   6   2.0000      -9.884608      -268.9739
   7   2.0000      -9.884545      -268.9721
   8   2.0000      -9.880792      -268.8700
   9   2.0000      -9.880514      -268.8624
  10   2.0000      -0.970025       -26.3957
  11   2.0000      -0.951064       -25.8798
  12   2.0000      -0.765612       -20.8334
  13   2.0000      -0.686046       -18.6683
  14   2.0000      -0.667424       -18.1615
  15   2.0000      -0.631829       -17.1929
  16   2.0000      -0.612774       -16.6744
  17   2.0000      -0.534337       -14.5401
  18   2.0000      -0.526042       -14.3143
  19   2.0000      -0.489020       -13.3069
  20   2.0000      -0.454801       -12.3758
  21   2.0000      -0.438841       -11.9415
  22   2.0000      -0.420949       -11.4546
  23   2.0000      -0.409988       -11.1563
  24   2.0000      -0.405922       -11.0457
  25   2.0000      -0.399447       -10.8695
  26   2.0000      -0.379383       -10.3235
  27   2.0000      -0.362236        -9.8569
  28   2.0000      -0.341959        -9.3052
  29   2.0000      -0.329928        -8.9778
  30   2.0000      -0.316867        -8.6224
  31   2.0000      -0.282000        -7.6736
  32   2.0000      -0.275694        -7.5020
  33   2.0000      -0.275624        -7.5001
  34   2.0000      -0.270826        -7.3695
  35   2.0000      -0.208408        -5.6711
  36   2.0000      -0.173337        -4.7167
  37   0.0000      -0.017503        -0.4763
  38   0.0000      -0.012743        -0.3468
  39   0.0000       0.040219         1.0944
  40   0.0000       0.052640         1.4324
  41   0.0000       0.058787         1.5997

MULLIKEN ATOMIC CHARGES
-----------------------
   0 C :   -0.111672
   1 O :   -0.263010
   2 C :    0.221349
   3 C :   -0.224233
   4 C :   -0.044139
   5 C :   -0.044136
   6 C :   -0.224289
   7 C :    0.221376
   8 O :   -0.262937
   9 C :   -0.111674
  10 H :    0.108824
  11 H :    0.124663
  12 H :    0.108797
  13 H :    0.035338
  14 H :    0.044077
  15 H :    0.044076
  16 H :    0.035347
  17 H :    0.124654
  18 H :    0.108823
  19 H :    0.108766
Sum of atomic charges:    0.0000000

LOEWDIN ATOMIC CHARGES
----------------------
   0 C :   -0.201250
   1 O :   -0.086703
   2 C :    0.017307
   3 C :   -0.175668
   4 C :   -0.139793
   5 C :   -0.139797
   6 C :   -0.175664
   7 C :    0.017295
   8 O :   -0.086649
   9 C :   -0.201270
  10 H :    0.108236
  11 H :    0.122002
  12 H :    0.108234
  13 H :    0.126337
  14 H :    0.121299
  15 H :    0.121298
  16 H :    0.126336
  17 H :    0.121997
  18 H :    0.108215
  19 H :    0.108238

  Mayer bond orders larger than 0.100000
B(  0-C ,  1-O ) :   0.9924 B(  0-C , 10-H ) :   0.9412 B(  0-C , 11-H ) :   0.9590
B(  0-C , 12-H ) :   0.9413 B(  1-O ,  2-C ) :   1.1699 B(  2-C ,  3-C ) :   1.3455
B(  2-C ,  7-C ) :   1.3167 B(  3-C ,  4-C ) :   1.3036 B(  3-C , 13-H ) :   0.9696
B(  4-C ,  5-C ) :   1.4022 B(  4-C , 14-H ) :   0.9673 B(  5-C ,  6-C ) :   1.3037
B(  5-C , 15-H ) :   0.9672 B(  6-C ,  7-C ) :   1.3454 B(  6-C , 16-H ) :   0.9696
B(  7-C ,  8-O ) :   1.1700 B(  8-O ,  9-C ) :   0.9924 B(  9-C , 17-H ) :   0.9590
B(  9-C , 18-H ) :   0.9412 B(  9-C , 19-H ) :   0.9413

Dispersion correction           -0.019858266
FINAL SINGLE POINT ENERGY      -460.295685675813

DIPOLE MOMENT
-------------

Method             : SCF
Type of density    : Electron Density
Multiplicity       :   1
Irrep              :   0
Energy             :  -460.3628849884574947 Eh
Relativity type    :
Basis              : AO
                                X                 Y                 Z
Electronic contribution:      0.000162006       0.161197628      -0.004021291
Nuclear contribution   :     -0.000079907      -0.242771089       0.004900212
                        -----------------------------------------
Total Dipole Moment    :      0.000082099      -0.081573461       0.000878921
                        -----------------------------------------
Magnitude (a.u.)       :      0.081578237
Magnitude (Debye)      :      0.207355400

Rotational constants in cm-1:             0.055282             0.045151             0.025092
Rotational constants in MHz :          1657.315380          1353.585934           752.225473

                             ****ORCA TERMINATED NORMALLY****
TOTAL RUN TIME: 0 days 0 hours 0 minutes 11 seconds 269 msec
