                         Program Version 6.0.0  -   RELEASE  -
|  1> ! r2scan-3c def2/J RI DEFGRID2 scfconv6 printgap
|  2> %output
|  3>     printlevel normal
|  4> end
|  5> * xyz 0 1
|  6> C -2.2472640643 0.9267859813 1.3270143535
|  7> C -2.3507355639 -0.0325372579 0.1441191169
|  8> C -2.426817381 0.7320176121 -1.1749212466
|  9> C -1.2060336323 -1.054083273 0.1431832999
| 10> C 0.1929147448 -0.5250769792 0.0254257276
| 11> C 1.2710102396 -1.4192547241 0.0749083232
| 12> N 2.5273388644 -1.0261800353 -0.0267121824
| 13> C 2.7415957936 0.2772204313 -0.1794889109
| 14> C 1.6867160513 1.1723974899 -0.2286383832
| 15> N 0.4262657917 0.7726444848 -0.1279418101
| 16> H -3.112576144 1.5843312258 1.3526073351
| 17> H -1.3521961099 1.5348357493 1.2378879048
| 18> H -2.2057451727 0.3767744412 2.264799224
| 19> H -3.2768927218 -0.6103470933 0.2554871099
| 20> H -1.5332627867 1.3333476951 -1.3099451106
| 21> H -2.5166392665 0.0438095748 -2.0126578014
| 22> H -3.2924795522 1.389562064 -1.1767867015
| 23> H -1.3578364338 -1.7541002913 -0.6839375044
| 24> H -1.254158173 -1.6407333016 1.065304891
| 25> H 1.1144487008 -2.4821328995 0.1989289737
| 26> H 3.7721242943 0.5891174183 -0.2604285308
| 27> H 1.838148342 2.2357069322 -0.3503320319
| 28> *
| 29>
| 30>                          ****END OF INPUT****

CARTESIAN COORDINATES (ANGSTROEM)
---------------------------------
  C     -2.247264    0.926786    1.327014
  C     -2.350736   -0.032537    0.144119
  C     -2.426817    0.732018   -1.174921
  C     -1.206034   -1.054083    0.143183
  C      0.192915   -0.525077    0.025426
  C      1.271010   -1.419255    0.074908
  N      2.527339   -1.026180   -0.026712
  C      2.741596    0.277220   -0.179489
  C      1.686716    1.172397   -0.228638
  N      0.426266    0.772644   -0.127942
  H     -3.112576    1.584331    1.352607
  H     -1.352196    1.534836    1.237888
  H     -2.205745    0.376774    2.264799
  H     -3.276893   -0.610347    0.255487
  H     -1.533263    1.333348   -1.309945
  H     -2.516639    0.043810   -2.012658
  H     -3.292480    1.389562   -1.176787
  H     -1.357836   -1.754100   -0.683938
  H     -1.254158   -1.640733    1.065305
  H      1.114449   -2.482133    0.198929
  H      3.772124    0.589117   -0.260429
  H      1.838148    2.235707   -0.350332

 Total Charge           Charge          ....    0
 Multiplicity           Mult            ....    1
 Number of Electrons    NEL             ....   74
 Basis Dimension        Dim             ....  260

ORBITAL ENERGIES
----------------

  NO   OCC          E(Eh)            E(eV)
   0   2.0000     -14.174057      -385.6957
   1   2.0000     -14.171651      -385.6302
   2   2.0000     -10.087400      -274.4921
   3   2.0000     -10.078039      -274.2374
   4   2.0000     -10.075295      -274.1627
   5   2.0000     -10.074680      -274.1460
   6   2.0000     -10.040747      -273.2226
   7   2.0000     -10.036935      -273.1189
   8   2.0000     -10.007593      -272.3205
   9   2.0000     -10.006865      -272.3006
  10   2.0000      -0.955770       -26.0078
  11   2.0000      -0.881506       -23.9870
  12   2.0000      -0.787899       -21.4398
  13   2.0000      -0.746048       -20.3010
  14   2.0000      -0.677332       -18.4311
  15   2.0000      -0.644694       -17.5430
  16   2.0000      -0.630923       -17.1683
  17   2.0000      -0.602689       -16.4000
  18   2.0000      -0.528584       -14.3835
  19   2.0000      -0.497717       -13.5436
  20   2.0000      -0.483413       -13.1543
  21   2.0000      -0.446843       -12.1592
  22   2.0000      -0.431358       -11.7378
  23   2.0000      -0.420319       -11.4375
  24   2.0000      -0.401185       -10.9168
  25   2.0000      -0.393936       -10.7195
  26   2.0000      -0.384840       -10.4720
  27   2.0000      -0.354798        -9.6545
  28   2.0000      -0.349294        -9.5048
  29   2.0000      -0.338170        -9.2021
  30   2.0000      -0.308428        -8.3927
  31   2.0000      -0.303331        -8.2541
  32   2.0000      -0.299035        -8.1371
  33   2.0000      -0.297533        -8.0963
  34   2.0000      -0.270479        -7.3601
  35   2.0000      -0.249202        -6.7811
  36   2.0000      -0.211588        -5.7576
  37   0.0000      -0.076779        -2.0893
  38   0.0000      -0.052764        -1.4358
  39   0.0000       0.063127         1.7178
  40   0.0000       0.084663         2.3038
  41   0.0000       0.097160         2.6439

MULLIKEN ATOMIC CHARGES
-----------------------
   0 C :   -0.560092
   1 C :    0.130097
   2 C :   -0.559844
   3 C :   -0.430556
   4 C :    0.314359
   5 C :   -0.239631
   6 N :   -0.146304
   7 C :   -0.068482
   8 C :   -0.072585
   9 N :   -0.194088
  10 H :    0.142844
  11 H :    0.187307
  12 H :    0.141323
  13 H :    0.146074
  14 H :    0.188806
  15 H :    0.140344
  16 H :    0.142366
  17 H :    0.163626
  18 H :    0.161796
  19 H :    0.139011
  20 H :    0.136402
  21 H :    0.137227
Sum of atomic charges:   -0.0000000

LOEWDIN ATOMIC CHARGES
----------------------
   0 C :   -0.411136
   1 C :   -0.231976
   2 C :   -0.411825
   3 C :   -0.250823
   4 C :    0.158371
   5 C :    0.106166
   6 N :   -0.568813
   7 C :    0.086025
   8 C :    0.101702
   9 N :   -0.609560
  10 H :    0.152445
  11 H :    0.175282
  12 H :    0.151544
  13 H :    0.155929
  14 H :    0.176097
  15 H :    0.151293
  16 H :    0.152094
  17 H :    0.178130
  18 H :    0.177166
  19 H :    0.188959
  20 H :    0.186615
  21 H :    0.186314

  Mayer bond orders larger than 0.100000
B(  0-C ,  1-C ) :   0.8841 B(  0-C , 10-H ) :   0.9723 B(  0-C , 11-H ) :   0.9754
B(  0-C , 12-H ) :   0.9722 B(  1-C ,  2-C ) :   0.8831 B(  1-C ,  3-C ) :   0.9600
B(  1-C , 13-H ) :   0.9570 B(  2-C , 14-H ) :   0.9756 B(  2-C , 15-H ) :   0.9718
B(  2-C , 16-H ) :   0.9727 B(  3-C ,  4-C ) :   0.8471 B(  3-C , 17-H ) :   0.9539
B(  3-C , 18-H ) :   0.9592 B(  4-C ,  5-C ) :   1.2699 B(  4-C ,  9-N ) :   1.3093
B(  5-C ,  6-N ) :   1.4988 B(  5-C ,  8-C ) :   0.1192 B(  5-C , 19-H ) :   0.9803
B(  6-N ,  7-C ) :   1.4099 B(  7-C ,  8-C ) :   1.3158 B(  7-C , 20-H ) :   0.9718
B(  8-C ,  9-N ) :   1.4185 B(  8-C , 21-H ) :   0.9650

Dispersion correction           -0.007581835
FINAL SINGLE POINT ENERGY      -421.446835795875

DIPOLE MOMENT
-------------

Method             : SCF
Type of density    : Electron Density
Multiplicity       :   1
Irrep              :   0
Energy             :  -421.4523617858143325 Eh
Relativity type    :
Basis              : AO
                                X                 Y                 Z
Electronic contribution:     12.113297276      -2.449495075      -0.533690593
Nuclear contribution   :    -12.346111451       2.438008241       0.544160128
                        -----------------------------------------
Total Dipole Moment    :     -0.232814175      -0.011486834       0.010469535
                        -----------------------------------------
Magnitude (a.u.)       :      0.233332378
Magnitude (Debye)      :      0.593083773

Rotational constants in cm-1:             0.097337             0.028803             0.026034
Rotational constants in MHz :          2918.097871           863.488010           780.489713

                             ****ORCA TERMINATED NORMALLY****
TOTAL RUN TIME: 0 days 0 hours 0 minutes 36 seconds 214 msec
