                         Program Version 6.0.0  -   RELEASE  -
|  1> ! r2scan-3c def2/J RI DEFGRID2 scfconv6 printgap
|  2> %output
|  3>     printlevel normal
|  4> end
|  5> %cpcm
|  6>     smd true
|  7>     smdsolvent "water"
|  8> end
|  9> * xyz 0 1
| 10> C -2.2472640643 0.9267859813 1.3270143535
| 11> C -2.3507355639 -0.0325372579 0.1441191169
| 12> C -2.426817381 0.7320176121 -1.1749212466
| 13> C -1.2060336323 -1.054083273 0.1431832999
| 14> C 0.1929147448 -0.5250769792 0.0254257276
| 15> C 1.2710102396 -1.4192547241 0.0749083232
| 16> N 2.5273388644 -1.0261800353 -0.0267121824
| 17> C 2.7415957936 0.2772204313 -0.1794889109
| 18> C 1.6867160513 1.1723974899 -0.2286383832
| 19> N 0.4262657917 0.7726444848 -0.1279418101
| 20> H -3.112576144 1.5843312258 1.3526073351
| 21> H -1.3521961099 1.5348357493 1.2378879048
| 22> H -2.2057451727 0.3767744412 2.264799224
| 23> H -3.2768927218 -0.6103470933 0.2554871099
| 24> H -1.5332627867 1.3333476951 -1.3099451106
| 25> H -2.5166392665 0.0438095748 -2.0126578014
| 26> H -3.2924795522 1.389562064 -1.1767867015
| 27> H -1.3578364338 -1.7541002913 -0.6839375044
| 28> H -1.254158173 -1.6407333016 1.065304891
| 29> H 1.1144487008 -2.4821328995 0.1989289737
| 30> H 3.7721242943 0.5891174183 -0.2604285308
| 31> H 1.838148342 2.2357069322 -0.3503320319
| 32> *
| 33>
| 34>                          ****END OF INPUT****

CARTESIAN COORDINATES (ANGSTROEM)
---------------------------------
  C     -2.247264    0.926786    1.327014
  C     -2.350736   -0.032537    0.144119
  C     -2.426817    0.732018   -1.174921
  C     -1.206034   -1.054083    0.143183
  C      0.192915   -0.525077    0.025426
  C      1.271010   -1.419255    0.074908
  N      2.527339   -1.026180   -0.026712
  C      2.741596    0.277220   -0.179489
  C      1.686716    1.172397   -0.228638
  N      0.426266    0.772644   -0.127942
  H     -3.112576    1.584331    1.352607
  H     -1.352196    1.534836    1.237888
  H     -2.205745    0.376774    2.264799
  H     -3.276893   -0.610347    0.255487
  H     -1.533263    1.333348   -1.309945
  H     -2.516639    0.043810   -2.012658
  H     -3.292480    1.389562   -1.176787
  H     -1.357836   -1.754100   -0.683938
  H     -1.254158   -1.640733    1.065305
  H      1.114449   -2.482133    0.198929
  H      3.772124    0.589117   -0.260429
  H      1.838148    2.235707   -0.350332

 Total Charge           Charge          ....    0
 Multiplicity           Mult            ....    1
 Number of Electrons    NEL             ....   74
 Basis Dimension        Dim             ....  260

ORBITAL ENERGIES
----------------

  NO   OCC          E(Eh)            E(eV)
   0   2.0000     -14.173134      -385.6706
   1   2.0000     -14.166874      -385.5002
   2   2.0000     -10.081409      -274.3291
   3   2.0000     -10.070452      -274.0309
   4   2.0000     -10.068866      -273.9878
   5   2.0000     -10.067871      -273.9607
   6   2.0000     -10.029004      -272.9031
   7   2.0000     -10.027677      -272.8670
   8   2.0000     -10.002382      -272.1786
   9   2.0000     -10.001881      -272.1650
  10   2.0000      -0.951994       -25.9051
  11   2.0000      -0.878497       -23.9051
  12   2.0000      -0.779539       -21.2123
  13   2.0000      -0.739677       -20.1276
  14   2.0000      -0.669191       -18.2096
  15   2.0000      -0.640095       -17.4179
  16   2.0000      -0.624685       -16.9985
  17   2.0000      -0.595967       -16.2171
  18   2.0000      -0.522051       -14.2057
  19   2.0000      -0.491662       -13.3788
  20   2.0000      -0.476546       -12.9675
  21   2.0000      -0.436833       -11.8868
  22   2.0000      -0.422624       -11.5002
  23   2.0000      -0.412762       -11.2318
  24   2.0000      -0.394331       -10.7303
  25   2.0000      -0.388460       -10.5705
  26   2.0000      -0.376759       -10.2521
  27   2.0000      -0.346270        -9.4225
  28   2.0000      -0.345914        -9.4128
  29   2.0000      -0.331121        -9.0103
  30   2.0000      -0.306072        -8.3286
  31   2.0000      -0.296800        -8.0763
  32   2.0000      -0.292693        -7.9646
  33   2.0000      -0.290500        -7.9049
  34   2.0000      -0.271205        -7.3799
  35   2.0000      -0.242411        -6.5963
  36   2.0000      -0.209295        -5.6952
  37   0.0000      -0.073541        -2.0012
  38   0.0000      -0.046871        -1.2754
  39   0.0000       0.068931         1.8757
  40   0.0000       0.091492         2.4896
  41   0.0000       0.105549         2.8721

MULLIKEN ATOMIC CHARGES
-----------------------
   0 C :   -0.600732
   1 C :    0.140831
   2 C :   -0.601653
   3 C :   -0.425657
   4 C :    0.297215
   5 C :   -0.236897
   6 N :   -0.201447
   7 C :   -0.086735
   8 C :   -0.082911
   9 N :   -0.214974
  10 H :    0.155090
  11 H :    0.178950
  12 H :    0.157551
  13 H :    0.158109
  14 H :    0.180012
  15 H :    0.156770
  16 H :    0.154644
  17 H :    0.184730
  18 H :    0.183319
  19 H :    0.168527
  20 H :    0.166958
  21 H :    0.168299
Sum of atomic charges:   -0.0000000

LOEWDIN ATOMIC CHARGES
----------------------
   0 C :   -0.419973
   1 C :   -0.230265
   2 C :   -0.420910
   3 C :   -0.247969
   4 C :    0.162530
   5 C :    0.109774
   6 N :   -0.608115
   7 C :    0.084317
   8 C :    0.103978
   9 N :   -0.624559
  10 H :    0.154419
  11 H :    0.170417
  12 H :    0.156256
  13 H :    0.160671
  14 H :    0.171014
  15 H :    0.155948
  16 H :    0.154061
  17 H :    0.186744
  18 H :    0.185972
  19 H :    0.200390
  20 H :    0.197469
  21 H :    0.197831

  Mayer bond orders larger than 0.100000
B(  0-C ,  1-C ) :   0.8774 B(  0-C , 10-H ) :   0.9717 B(  0-C , 11-H ) :   0.9779
B(  0-C , 12-H ) :   0.9695 B(  1-C ,  2-C ) :   0.8755 B(  1-C ,  3-C ) :   0.9487
B(  1-C , 13-H ) :   0.9545 B(  2-C , 14-H ) :   0.9782 B(  2-C , 15-H ) :   0.9694
B(  2-C , 16-H ) :   0.9722 B(  3-C ,  4-C ) :   0.8593 B(  3-C , 17-H ) :   0.9460
B(  3-C , 18-H ) :   0.9506 B(  4-C ,  5-C ) :   1.2902 B(  4-C ,  9-N ) :   1.3067
B(  5-C ,  6-N ) :   1.5022 B(  5-C ,  8-C ) :   0.1180 B(  5-C , 19-H ) :   0.9625
B(  6-N ,  7-C ) :   1.4035 B(  7-C ,  8-C ) :   1.3289 B(  7-C , 20-H ) :   0.9619
B(  8-C ,  9-N ) :   1.4061 B(  8-C , 21-H ) :   0.9567

Dispersion correction           -0.007581835
FINAL SINGLE POINT ENERGY      -421.451769671772

DIPOLE MOMENT
-------------

Method             : SCF
Type of density    : Electron Density
Multiplicity       :   1
Irrep              :   0
Energy             :  -421.4572956617116688 Eh
Relativity type    :
Basis              : AO
                                X                 Y                 Z
Electronic contribution:     11.958420166      -2.555058644      -0.515832893
Nuclear contribution   :    -12.346111451       2.438008241       0.544160128
                        -----------------------------------------
Total Dipole Moment    :     -0.387691285      -0.117050403       0.028327236
                        -----------------------------------------
Magnitude (a.u.)       :      0.405965222
Magnitude (Debye)      :      1.031881590

Rotational constants in cm-1:             0.097337             0.028803             0.026034
Rotational constants in MHz :          2918.097871           863.488010           780.489713

                             ****ORCA TERMINATED NORMALLY****
TOTAL RUN TIME: 0 days 0 hours 0 minutes 49 seconds 912 msec
