                         Program Version 6.0.0  -   RELEASE  -
|  1> ! pbe def2-sv(p) def2/J RI DEFGRID1 loosescf d4 GCP(DFT/SV(P)) printgap
|  2> %output
|  3>     printlevel normal
|  4> end
|  5> * xyz 0 1
|  6> C -3.5285561803 -0.5809988051 -1.807449484
|  7> C -3.0086598703 -1.5915056151 -0.792542224
|  8> C -2.4897978635 -0.9973889178 0.525993985
|  9> H -2.0271043554 -1.8230861498 1.0813489364
| 10> C -3.5806035544 -0.4030897608 1.4064220189
| 11> N -1.3649878505 -0.0725771722 0.2797941995
| 12> C -0.1014371427 -0.6721051293 0.2736829575
| 13> O 0.02869268 -1.8729036515 0.4478639306
| 14> C 1.004627181 0.2286110436 0.0592508833
| 15> C 0.8384483401 1.5598278483 -0.1492582569
| 16> N -0.4387519423 2.0232302018 -0.1558931737
| 17> C -1.574240701 1.2616410222 0.0249418446
| 18> O -2.6617739061 1.799376186 -0.0452211132
| 19> C 1.9410789142 2.5244991758 -0.3827195085
| 20> Br 2.7302815594 -0.5674003713 0.0706260562
| 21> H -4.2954232772 0.0531656047 -1.3730752078
| 22> H -2.7273395337 0.0589404826 -2.1715102205
| 23> H -3.9536471614 -1.1070601592 -2.6582281293
| 24> H -3.8066279709 -2.2884443526 -0.5344860017
| 25> H -2.196951838 -2.1690897935 -1.2430574355
| 26> H -4.1414249729 0.3704490016 0.8941818419
| 27> H -4.2567631759 -1.2025229962 1.6947633044
| 28> H -3.1454643823 0.0254085338 2.3061748099
| 29> H -0.6129220383 3.0080731443 -0.3327237768
| 30> H 2.3690446938 2.3612555092 -1.3712420041
| 31> H 2.7387119455 2.363720622 0.3396490681
| 32> H 1.5861484771 3.5471547038 -0.3141054538
| 33> *
| 34>
| 35>                          ****END OF INPUT****

CARTESIAN COORDINATES (ANGSTROEM)
---------------------------------
  C     -3.528556   -0.580999   -1.807449
  C     -3.008660   -1.591506   -0.792542
  C     -2.489798   -0.997389    0.525994
  H     -2.027104   -1.823086    1.081349
  C     -3.580604   -0.403090    1.406422
  N     -1.364988   -0.072577    0.279794
  C     -0.101437   -0.672105    0.273683
  O      0.028693   -1.872904    0.447864
  C      1.004627    0.228611    0.059251
  C      0.838448    1.559828   -0.149258
  N     -0.438752    2.023230   -0.155893
  C     -1.574241    1.261641    0.024942
  O     -2.661774    1.799376   -0.045221
  C      1.941079    2.524499   -0.382720
  Br     2.730282   -0.567400    0.070626
  H     -4.295423    0.053166   -1.373075
  H     -2.727340    0.058940   -2.171510
  H     -3.953647   -1.107060   -2.658228
  H     -3.806628   -2.288444   -0.534486
  H     -2.196952   -2.169090   -1.243057
  H     -4.141425    0.370449    0.894182
  H     -4.256763   -1.202523    1.694763
  H     -3.145464    0.025409    2.306175
  H     -0.612922    3.008073   -0.332724
  H      2.369045    2.361256   -1.371242
  H      2.738712    2.363721    0.339649
  H      1.586148    3.547155   -0.314105

 Total Charge           Charge          ....    0
 Multiplicity           Mult            ....    1
 Number of Electrons    NEL             ....  132
 Basis Dimension        Dim             ....  240

ORBITAL ENERGIES
----------------

  NO   OCC          E(Eh)            E(eV)
   0   2.0000    -480.941734    -13087.0899
   1   2.0000     -61.783473     -1681.2138
   2   2.0000     -55.714157     -1516.0593
   3   2.0000     -55.711078     -1515.9755
   4   2.0000     -55.710821     -1515.9685
   5   2.0000     -18.733463      -509.7634
   6   2.0000     -18.731059      -509.6980
   7   2.0000     -14.066276      -382.7628
   8   2.0000     -14.055453      -382.4683
   9   2.0000     -10.033849      -273.0349
  10   2.0000     -10.002693      -272.1871
  11   2.0000      -9.982275      -271.6315
  12   2.0000      -9.949198      -270.7314
  13   2.0000      -9.932569      -270.2789
  14   2.0000      -9.923546      -270.0334
  15   2.0000      -9.885933      -269.0099
  16   2.0000      -9.873868      -268.6816
  17   2.0000      -9.870317      -268.5850
  18   2.0000      -8.408673      -228.8116
  19   2.0000      -6.290999      -171.1868
  20   2.0000      -6.276362      -170.7885
  21   2.0000      -6.275619      -170.7683
  22   2.0000      -2.492081       -67.8130
  23   2.0000      -2.488516       -67.7160
  24   2.0000      -2.488013       -67.7023
  25   2.0000      -2.477001       -67.4026
  26   2.0000      -2.476978       -67.4020
  27   2.0000      -0.987121       -26.8609
  28   2.0000      -0.947688       -25.7879
  29   2.0000      -0.897551       -24.4236
  30   2.0000      -0.859073       -23.3766
  31   2.0000      -0.767892       -20.8954
  32   2.0000      -0.728339       -19.8191
  33   2.0000      -0.707448       -19.2506
  34   2.0000      -0.667447       -18.1622
  35   2.0000      -0.650026       -17.6881
  36   2.0000      -0.616262       -16.7693
  37   2.0000      -0.594444       -16.1756
  38   2.0000      -0.571976       -15.5642
  39   2.0000      -0.532832       -14.4991
  40   2.0000      -0.527922       -14.3655
  41   2.0000      -0.489578       -13.3221
  42   2.0000      -0.454856       -12.3773
  43   2.0000      -0.430542       -11.7156
  44   2.0000      -0.418565       -11.3897
  45   2.0000      -0.412645       -11.2286
  46   2.0000      -0.407399       -11.0859
  47   2.0000      -0.390909       -10.6372
  48   2.0000      -0.386135       -10.5073
  49   2.0000      -0.384318       -10.4578
  50   2.0000      -0.372054       -10.1241
  51   2.0000      -0.368342       -10.0231
  52   2.0000      -0.360371        -9.8062
  53   2.0000      -0.343902        -9.3581
  54   2.0000      -0.341068        -9.2809
  55   2.0000      -0.336662        -9.1610
  56   2.0000      -0.319404        -8.6914
  57   2.0000      -0.305583        -8.3153
  58   2.0000      -0.295034        -8.0283
  59   2.0000      -0.284108        -7.7310
  60   2.0000      -0.274697        -7.4749
  61   2.0000      -0.253298        -6.8926
  62   2.0000      -0.240077        -6.5328
  63   2.0000      -0.231877        -6.3097
  64   2.0000      -0.215881        -5.8744
  65   2.0000      -0.205035        -5.5793
  66   0.0000      -0.072738        -1.9793
  67   0.0000      -0.031472        -0.8564
  68   0.0000      -0.024266        -0.6603
  69   0.0000       0.014005         0.3811
  70   0.0000       0.042519         1.1570

MULLIKEN ATOMIC CHARGES
-----------------------
   0 C :   -0.271110
   1 C :   -0.157602
   2 C :   -0.067357
   3 H :    0.107444
   4 C :   -0.237864
   5 N :   -0.244570
   6 C :    0.184031
   7 O :   -0.179081
   8 C :   -0.187568
   9 C :   -0.002109
  10 N :   -0.202254
  11 C :    0.171205
  12 O :   -0.207829
  13 C :   -0.203134
  14 Br:    0.008312
  15 H :    0.111837
  16 H :    0.103741
  17 H :    0.100986
  18 H :    0.088739
  19 H :    0.099597
  20 H :    0.139165
  21 H :    0.101239
  22 H :    0.099849
  23 H :    0.247574
  24 H :    0.146658
  25 H :    0.145507
  26 H :    0.104595
Sum of atomic charges:    0.0000000

LOEWDIN ATOMIC CHARGES
----------------------
   0 C :   -0.344189
   1 C :   -0.226901
   2 C :   -0.076685
   3 H :    0.136253
   4 C :   -0.341904
   5 N :   -0.003439
   6 C :    0.021679
   7 O :   -0.170318
   8 C :   -0.219721
   9 C :   -0.007255
  10 N :   -0.086750
  11 C :    0.038735
  12 O :   -0.187422
  13 C :   -0.330489
  14 Br:    0.136224
  15 H :    0.122605
  16 H :    0.115200
  17 H :    0.119540
  18 H :    0.122020
  19 H :    0.122882
  20 H :    0.129381
  21 H :    0.123763
  22 H :    0.122302
  23 H :    0.253543
  24 H :    0.152567
  25 H :    0.148634
  26 H :    0.129745

  Mayer bond orders larger than 0.100000
B(  0-C ,  1-C ) :   1.1732 B(  0-C , 15-H ) :   0.9476 B(  0-C , 16-H ) :   0.9420
B(  0-C , 17-H ) :   0.9462 B(  1-C ,  2-C ) :   1.0979 B(  1-C , 18-H ) :   0.9218
B(  1-C , 19-H ) :   0.9114 B(  2-C ,  3-H ) :   0.8729 B(  2-C ,  4-C ) :   1.1206
B(  2-C ,  5-N ) :   0.9107 B(  4-C , 20-H ) :   0.9229 B(  4-C , 21-H ) :   0.9376
B(  4-C , 22-H ) :   0.9438 B(  5-N ,  6-C ) :   1.0276 B(  5-N , 11-C ) :   1.0872
B(  6-C ,  7-O ) :   2.0829 B(  6-C ,  8-C ) :   1.0565 B(  8-C ,  9-C ) :   1.5998
B(  8-C , 14-Br) :   1.0887 B(  9-C , 10-N ) :   1.2125 B(  9-C , 13-C ) :   1.1625
B( 10-N , 11-C ) :   1.0811 B( 10-N , 23-H ) :   0.8293 B( 11-C , 12-O ) :   2.0215
B( 13-C , 24-H ) :   0.9153 B( 13-C , 25-H ) :   0.9122 B( 13-C , 26-H ) :   0.9222

Dispersion correction           -0.034417843
FINAL SINGLE POINT ENERGY     -3182.939575824200

DIPOLE MOMENT
-------------

Method             : SCF
Type of density    : Electron Density
Multiplicity       :   1
Irrep              :   0
Energy             : -3183.0314171082709436 Eh
Relativity type    :
Basis              : AO
                                X                 Y                 Z
Electronic contribution:     48.765767963      -6.869039289       3.848079520
Nuclear contribution   :    -48.356360050       8.278187418      -4.103774052
                        -----------------------------------------
Total Dipole Moment    :      0.409407914       1.409148129      -0.255694533
                        -----------------------------------------
Magnitude (a.u.)       :      1.489527771
Magnitude (Debye)      :      3.786078710

Rotational constants in cm-1:             0.031894             0.010839             0.009014
Rotational constants in MHz :           956.146466           324.938026           270.247126

                             ****ORCA TERMINATED NORMALLY****
TOTAL RUN TIME: 0 days 0 hours 0 minutes 22 seconds 278 msec
