                         Program Version 6.0.0  -   RELEASE  -
|  1> ! r2scan-3c def2/J RI DEFGRID2 scfconv6 printgap
|  2> %output
|  3>     printlevel normal
|  4> end
|  5> * xyz 0 1
|  6> C -2.6942880442 0.4571020209 0.921497655
|  7> C -2.1456254823 0.3799332313 -0.4983589995
|  8> C -0.873872316 -0.4533153825 -0.5691169631
|  9> O 0.1638606087 0.2323608999 0.1471407284
| 10> C 1.4143455745 -0.1718270117 -0.0313392999
| 11> O 1.7152472002 -1.1008439706 -0.7540046355
| 12> C 2.3846759712 0.6650932673 0.746479748
| 13> H -3.5865311278 1.076131037 0.9472369593
| 14> H -2.9496935071 -0.5352752241 1.285131152
| 15> H -1.9508788671 0.8887988726 1.5861663363
| 16> H -1.9242059025 1.3835512499 -0.8631252816
| 17> H -2.8822204355 -0.0739968192 -1.1612778648
| 18> H -1.0166147768 -1.4375136052 -0.1105758913
| 19> H -0.5426220121 -0.6014909523 -1.6024882838
| 20> H 3.3344071767 0.1464700533 0.8230339335
| 21> H 1.9774024633 0.8838030791 1.7283309681
| 22> H 2.5299801984 1.6049005109 0.2182991217
| 23> *
| 24>
| 25>                          ****END OF INPUT****

CARTESIAN COORDINATES (ANGSTROEM)
---------------------------------
  C     -2.694288    0.457102    0.921498
  C     -2.145625    0.379933   -0.498359
  C     -0.873872   -0.453315   -0.569117
  O      0.163861    0.232361    0.147141
  C      1.414346   -0.171827   -0.031339
  O      1.715247   -1.100844   -0.754005
  C      2.384676    0.665093    0.746480
  H     -3.586531    1.076131    0.947237
  H     -2.949694   -0.535275    1.285131
  H     -1.950879    0.888799    1.586166
  H     -1.924206    1.383551   -0.863125
  H     -2.882220   -0.073997   -1.161278
  H     -1.016615   -1.437514   -0.110576
  H     -0.542622   -0.601491   -1.602488
  H      3.334407    0.146470    0.823034
  H      1.977402    0.883803    1.728331
  H      2.529980    1.604901    0.218299

 Total Charge           Charge          ....    0
 Multiplicity           Mult            ....    1
 Number of Electrons    NEL             ....   56
 Basis Dimension        Dim             ....  193

ORBITAL ENERGIES
----------------

  NO   OCC          E(Eh)            E(eV)
   0   2.0000     -18.996997      -516.9346
   1   2.0000     -18.927447      -515.0420
   2   2.0000     -10.155052      -276.3330
   3   2.0000     -10.088659      -274.5264
   4   2.0000     -10.039251      -273.1819
   5   2.0000     -10.038909      -273.1726
   6   2.0000     -10.022671      -272.7308
   7   2.0000      -1.072717       -29.1901
   8   2.0000      -0.974451       -26.5162
   9   2.0000      -0.770467       -20.9655
  10   2.0000      -0.721533       -19.6339
  11   2.0000      -0.659998       -17.9595
  12   2.0000      -0.581414       -15.8211
  13   2.0000      -0.531604       -14.4657
  14   2.0000      -0.466341       -12.6898
  15   2.0000      -0.457519       -12.4497
  16   2.0000      -0.437221       -11.8974
  17   2.0000      -0.418865       -11.3979
  18   2.0000      -0.404841       -11.0163
  19   2.0000      -0.390484       -10.6256
  20   2.0000      -0.376548       -10.2464
  21   2.0000      -0.352326        -9.5873
  22   2.0000      -0.340988        -9.2788
  23   2.0000      -0.324390        -8.8271
  24   2.0000      -0.316924        -8.6239
  25   2.0000      -0.305401        -8.3104
  26   2.0000      -0.271329        -7.3832
  27   2.0000      -0.235079        -6.3968
  28   0.0000      -0.013452        -0.3660
  29   0.0000       0.072301         1.9674
  30   0.0000       0.095291         2.5930
  31   0.0000       0.110962         3.0194
  32   0.0000       0.121942         3.3182

MULLIKEN ATOMIC CHARGES
-----------------------
   0 C :   -0.472155
   1 C :   -0.222979
   2 C :   -0.164296
   3 O :   -0.170029
   4 C :    0.414077
   5 O :   -0.426379
   6 C :   -0.521515
   7 H :    0.147704
   8 H :    0.141563
   9 H :    0.159802
  10 H :    0.144293
  11 H :    0.139828
  12 H :    0.150430
  13 H :    0.166160
  14 H :    0.176850
  15 H :    0.165771
  16 H :    0.170876
Sum of atomic charges:    0.0000000

LOEWDIN ATOMIC CHARGES
----------------------
   0 C :   -0.418640
   1 C :   -0.285791
   2 C :    0.039784
   3 O :   -0.603751
   4 C :    0.351770
   5 O :   -0.429449
   6 C :   -0.336542
   7 H :    0.151479
   8 H :    0.151462
   9 H :    0.159127
  10 H :    0.162590
  11 H :    0.160141
  12 H :    0.179217
  13 H :    0.187725
  14 H :    0.175235
  15 H :    0.175440
  16 H :    0.180202

  Mayer bond orders larger than 0.100000
B(  0-C ,  1-C ) :   0.9104 B(  0-C ,  7-H ) :   0.9721 B(  0-C ,  8-H ) :   0.9765
B(  0-C ,  9-H ) :   0.9800 B(  1-C ,  2-C ) :   0.9511 B(  1-C , 10-H ) :   0.9715
B(  1-C , 11-H ) :   0.9625 B(  2-C ,  3-O ) :   0.8012 B(  2-C , 12-H ) :   0.9527
B(  2-C , 13-H ) :   0.9537 B(  3-O ,  4-C ) :   1.0699 B(  4-C ,  5-O ) :   1.8219
B(  4-C ,  6-C ) :   0.9490 B(  6-C , 14-H ) :   0.9848 B(  6-C , 15-H ) :   0.9685
B(  6-C , 16-H ) :   0.9399

Dispersion correction           -0.003898585
FINAL SINGLE POINT ENERGY      -346.936767958951

DIPOLE MOMENT
-------------

Method             : SCF
Type of density    : Electron Density
Multiplicity       :   1
Irrep              :   0
Energy             :  -346.9432549472998062 Eh
Relativity type    :
Basis              : AO
                                X                 Y                 Z
Electronic contribution:      5.996386804      -2.494240054      -2.298422724
Nuclear contribution   :     -6.549608528       3.116266168       2.665465005
                        -----------------------------------------
Total Dipole Moment    :     -0.553221725       0.622026114       0.367042281
                        -----------------------------------------
Magnitude (a.u.)       :      0.909775136
Magnitude (Debye)      :      2.312464622

Rotational constants in cm-1:             0.196358             0.045577             0.039444
Rotational constants in MHz :          5886.661568          1366.361074          1182.495328

                             ****ORCA TERMINATED NORMALLY****
TOTAL RUN TIME: 0 days 0 hours 0 minutes 21 seconds 909 msec
