                         Program Version 6.0.0  -   RELEASE  -
|  1> ! r2scan-3c def2/J RI DEFGRID2 scfconv6 printgap
|  2> %output
|  3>     printlevel normal
|  4> end
|  5> * xyz 0 1
|  6> C -2.998344512 0.2451730525 -0.0543773137
|  7> C -1.6286044217 -0.4135502087 0.0565022637
|  8> C -0.5112409901 0.5673473181 -0.2930756787
|  9> C 0.9040000828 0.0294259297 -0.0203587935
| 10> C 1.9323466323 1.1053549938 -0.3966586326
| 11> C 1.187689993 -1.2500621666 -0.8164125072
| 12> O 0.9704040579 -0.2352337179 1.3787688847
| 13> H -3.7834161741 -0.4670798715 0.187166209
| 14> H -3.1635345689 0.6107840007 -1.0655900811
| 15> H -3.0744933456 1.086286063 0.6309904756
| 16> H -1.4722956939 -0.7704354236 1.0759938665
| 17> H -1.5913639665 -1.2725244185 -0.6150218191
| 18> H -0.5836286208 0.8503580399 -1.3441186649
| 19> H -0.6401117486 1.4675770519 0.3119545342
| 20> H 1.7613406377 2.0039678244 0.1913337198
| 21> H 1.8475082424 1.352936758 -1.4505283237
| 22> H 2.9428321436 0.7511739932 -0.2034551176
| 23> H 2.2345620048 -1.5303562902 -0.7188594655
| 24> H 0.9678333445 -1.0928536768 -1.8680965383
| 25> H 0.5759774552 -2.0671578559 -0.4440688233
| 26> H 1.8518050637 -0.569257461 1.5915551495
| 27> *
| 28>
| 29>                          ****END OF INPUT****

CARTESIAN COORDINATES (ANGSTROEM)
---------------------------------
  C     -2.998345    0.245173   -0.054377
  C     -1.628604   -0.413550    0.056502
  C     -0.511241    0.567347   -0.293076
  C      0.904000    0.029426   -0.020359
  C      1.932347    1.105355   -0.396659
  C      1.187690   -1.250062   -0.816413
  O      0.970404   -0.235234    1.378769
  H     -3.783416   -0.467080    0.187166
  H     -3.163535    0.610784   -1.065590
  H     -3.074493    1.086286    0.630990
  H     -1.472296   -0.770435    1.075994
  H     -1.591364   -1.272524   -0.615022
  H     -0.583629    0.850358   -1.344119
  H     -0.640112    1.467577    0.311955
  H      1.761341    2.003968    0.191334
  H      1.847508    1.352937   -1.450528
  H      2.942832    0.751174   -0.203455
  H      2.234562   -1.530356   -0.718859
  H      0.967833   -1.092854   -1.868097
  H      0.575977   -2.067158   -0.444069
  H      1.851805   -0.569257    1.591555

 Total Charge           Charge          ....    0
 Multiplicity           Mult            ....    1
 Number of Electrons    NEL             ....   58
 Basis Dimension        Dim             ....  208

ORBITAL ENERGIES
----------------

  NO   OCC          E(Eh)            E(eV)
   0   2.0000     -18.942286      -515.4458
   1   2.0000     -10.086882      -274.4780
   2   2.0000     -10.019578      -272.6466
   3   2.0000     -10.017210      -272.5821
   4   2.0000     -10.016704      -272.5684
   5   2.0000     -10.016452      -272.5615
   6   2.0000     -10.011139      -272.4169
   7   2.0000      -0.982165       -26.7261
   8   2.0000      -0.767250       -20.8779
   9   2.0000      -0.723659       -19.6917
  10   2.0000      -0.657300       -17.8861
  11   2.0000      -0.645052       -17.5528
  12   2.0000      -0.560664       -15.2565
  13   2.0000      -0.529691       -14.4136
  14   2.0000      -0.457788       -12.4571
  15   2.0000      -0.429706       -11.6929
  16   2.0000      -0.416998       -11.3471
  17   2.0000      -0.402909       -10.9637
  18   2.0000      -0.382563       -10.4101
  19   2.0000      -0.369482       -10.0541
  20   2.0000      -0.361419        -9.8347
  21   2.0000      -0.346437        -9.4270
  22   2.0000      -0.334924        -9.1137
  23   2.0000      -0.324311        -8.8250
  24   2.0000      -0.311232        -8.4690
  25   2.0000      -0.296668        -8.0728
  26   2.0000      -0.289055        -7.8656
  27   2.0000      -0.273302        -7.4369
  28   2.0000      -0.232301        -6.3212
  29   0.0000       0.060430         1.6444
  30   0.0000       0.106619         2.9013
  31   0.0000       0.111778         3.0416
  32   0.0000       0.121192         3.2978
  33   0.0000       0.129807         3.5322

MULLIKEN ATOMIC CHARGES
-----------------------
   0 C :   -0.482897
   1 C :   -0.274990
   2 C :   -0.300326
   3 C :    0.219471
   4 C :   -0.464749
   5 C :   -0.514174
   6 O :   -0.425166
   7 H :    0.146417
   8 H :    0.137773
   9 H :    0.145751
  10 H :    0.176390
  11 H :    0.139464
  12 H :    0.141157
  13 H :    0.152959
  14 H :    0.160747
  15 H :    0.149605
  16 H :    0.140948
  17 H :    0.141741
  18 H :    0.155530
  19 H :    0.170949
  20 H :    0.283401
Sum of atomic charges:    0.0000000

LOEWDIN ATOMIC CHARGES
----------------------
   0 C :   -0.423226
   1 C :   -0.307725
   2 C :   -0.265929
   3 C :    0.057098
   4 C :   -0.389418
   5 C :   -0.391720
   6 O :   -0.607152
   7 H :    0.149730
   8 H :    0.148091
   9 H :    0.150068
  10 H :    0.168065
  11 H :    0.151134
  12 H :    0.161540
  13 H :    0.169405
  14 H :    0.164249
  15 H :    0.159647
  16 H :    0.153456
  17 H :    0.154843
  18 H :    0.161475
  19 H :    0.165824
  20 H :    0.270545

  Mayer bond orders larger than 0.100000
B(  0-C ,  1-C ) :   0.8900 B(  0-C ,  7-H ) :   0.9757 B(  0-C ,  8-H ) :   0.9809
B(  0-C ,  9-H ) :   0.9890 B(  1-C ,  2-C ) :   0.8978 B(  1-C , 10-H ) :   0.9800
B(  1-C , 11-H ) :   0.9597 B(  2-C ,  3-C ) :   0.9372 B(  2-C , 12-H ) :   0.9764
B(  2-C , 13-H ) :   0.9882 B(  3-C ,  4-C ) :   0.9516 B(  3-C ,  5-C ) :   0.9122
B(  3-C ,  6-O ) :   0.8173 B(  4-C , 14-H ) :   0.9796 B(  4-C , 15-H ) :   0.9788
B(  4-C , 16-H ) :   0.9685 B(  5-C , 17-H ) :   0.9618 B(  5-C , 18-H ) :   0.9743
B(  5-C , 19-H ) :   0.9775 B(  6-O , 20-H ) :   0.9047

Dispersion correction           -0.005545216
FINAL SINGLE POINT ENERGY      -312.207827563183

DIPOLE MOMENT
-------------

Method             : SCF
Type of density    : Electron Density
Multiplicity       :   1
Irrep              :   0
Energy             :  -312.2131613246456254 Eh
Relativity type    :
Basis              : AO
                                X                 Y                 Z
Electronic contribution:      2.397665578      -0.425315401       3.105686222
Nuclear contribution   :     -1.981058457       0.328073522      -3.470205216
                        -----------------------------------------
Total Dipole Moment    :      0.416607121      -0.097241878      -0.364518994
                        -----------------------------------------
Magnitude (a.u.)       :      0.562042323
Magnitude (Debye)      :      1.428598052

Rotational constants in cm-1:             0.142840             0.048204             0.047245
Rotational constants in MHz :          4282.238919          1445.125833          1416.372036

                             ****ORCA TERMINATED NORMALLY****
TOTAL RUN TIME: 0 days 0 hours 0 minutes 26 seconds 860 msec
