                         Program Version 6.0.0  -   RELEASE  -
|  1> ! r2scan-3c def2/J RI DEFGRID2 scfconv6 printgap
|  2> %output
|  3>     printlevel normal
|  4> end
|  5> %cpcm
|  6>     smd true
|  7>     smdsolvent "water"
|  8> end
|  9> * xyz 0 1
| 10> C -2.998344512 0.2451730525 -0.0543773137
| 11> C -1.6286044217 -0.4135502087 0.0565022637
| 12> C -0.5112409901 0.5673473181 -0.2930756787
| 13> C 0.9040000828 0.0294259297 -0.0203587935
| 14> C 1.9323466323 1.1053549938 -0.3966586326
| 15> C 1.187689993 -1.2500621666 -0.8164125072
| 16> O 0.9704040579 -0.2352337179 1.3787688847
| 17> H -3.7834161741 -0.4670798715 0.187166209
| 18> H -3.1635345689 0.6107840007 -1.0655900811
| 19> H -3.0744933456 1.086286063 0.6309904756
| 20> H -1.4722956939 -0.7704354236 1.0759938665
| 21> H -1.5913639665 -1.2725244185 -0.6150218191
| 22> H -0.5836286208 0.8503580399 -1.3441186649
| 23> H -0.6401117486 1.4675770519 0.3119545342
| 24> H 1.7613406377 2.0039678244 0.1913337198
| 25> H 1.8475082424 1.352936758 -1.4505283237
| 26> H 2.9428321436 0.7511739932 -0.2034551176
| 27> H 2.2345620048 -1.5303562902 -0.7188594655
| 28> H 0.9678333445 -1.0928536768 -1.8680965383
| 29> H 0.5759774552 -2.0671578559 -0.4440688233
| 30> H 1.8518050637 -0.569257461 1.5915551495
| 31> *
| 32>
| 33>                          ****END OF INPUT****

CARTESIAN COORDINATES (ANGSTROEM)
---------------------------------
  C     -2.998345    0.245173   -0.054377
  C     -1.628604   -0.413550    0.056502
  C     -0.511241    0.567347   -0.293076
  C      0.904000    0.029426   -0.020359
  C      1.932347    1.105355   -0.396659
  C      1.187690   -1.250062   -0.816413
  O      0.970404   -0.235234    1.378769
  H     -3.783416   -0.467080    0.187166
  H     -3.163535    0.610784   -1.065590
  H     -3.074493    1.086286    0.630990
  H     -1.472296   -0.770435    1.075994
  H     -1.591364   -1.272524   -0.615022
  H     -0.583629    0.850358   -1.344119
  H     -0.640112    1.467577    0.311955
  H      1.761341    2.003968    0.191334
  H      1.847508    1.352937   -1.450528
  H      2.942832    0.751174   -0.203455
  H      2.234562   -1.530356   -0.718859
  H      0.967833   -1.092854   -1.868097
  H      0.575977   -2.067158   -0.444069
  H      1.851805   -0.569257    1.591555

 Total Charge           Charge          ....    0
 Multiplicity           Mult            ....    1
 Number of Electrons    NEL             ....   58
 Basis Dimension        Dim             ....  208

ORBITAL ENERGIES
----------------

  NO   OCC          E(Eh)            E(eV)
   0   2.0000     -18.945781      -515.5409
   1   2.0000     -10.082541      -274.3599
   2   2.0000     -10.014442      -272.5068
   3   2.0000     -10.014158      -272.4991
   4   2.0000     -10.007505      -272.3181
   5   2.0000     -10.007352      -272.3139
   6   2.0000     -10.007261      -272.3114
   7   2.0000      -0.984479       -26.7890
   8   2.0000      -0.762789       -20.7565
   9   2.0000      -0.718788       -19.5592
  10   2.0000      -0.648803       -17.6548
  11   2.0000      -0.640017       -17.4157
  12   2.0000      -0.557458       -15.1692
  13   2.0000      -0.526803       -14.3350
  14   2.0000      -0.453193       -12.3320
  15   2.0000      -0.424389       -11.5482
  16   2.0000      -0.413679       -11.2568
  17   2.0000      -0.398616       -10.8469
  18   2.0000      -0.377228       -10.2649
  19   2.0000      -0.363238        -9.8842
  20   2.0000      -0.352489        -9.5917
  21   2.0000      -0.342044        -9.3075
  22   2.0000      -0.328480        -8.9384
  23   2.0000      -0.318202        -8.6587
  24   2.0000      -0.311888        -8.4869
  25   2.0000      -0.294351        -8.0097
  26   2.0000      -0.285585        -7.7712
  27   2.0000      -0.269863        -7.3434
  28   2.0000      -0.236109        -6.4249
  29   0.0000       0.076347         2.0775
  30   0.0000       0.111244         3.0271
  31   0.0000       0.120552         3.2804
  32   0.0000       0.133795         3.6407
  33   0.0000       0.135702         3.6926

MULLIKEN ATOMIC CHARGES
-----------------------
   0 C :   -0.522913
   1 C :   -0.277232
   2 C :   -0.324478
   3 C :    0.259145
   4 C :   -0.518940
   5 C :   -0.550522
   6 O :   -0.515170
   7 H :    0.156687
   8 H :    0.152456
   9 H :    0.155937
  10 H :    0.161440
  11 H :    0.155295
  12 H :    0.162509
  13 H :    0.161660
  14 H :    0.163018
  15 H :    0.168523
  16 H :    0.165656
  17 H :    0.163677
  18 H :    0.173590
  19 H :    0.170522
  20 H :    0.339139
Sum of atomic charges:    0.0000000

LOEWDIN ATOMIC CHARGES
----------------------
   0 C :   -0.431073
   1 C :   -0.311077
   2 C :   -0.270348
   3 C :    0.059826
   4 C :   -0.394809
   5 C :   -0.394781
   6 O :   -0.643390
   7 H :    0.152025
   8 H :    0.152457
   9 H :    0.152173
  10 H :    0.160970
  11 H :    0.156025
  12 H :    0.169398
  13 H :    0.168915
  14 H :    0.163359
  15 H :    0.165797
  16 H :    0.161573
  17 H :    0.162367
  18 H :    0.167392
  19 H :    0.164900
  20 H :    0.288302

  Mayer bond orders larger than 0.100000
B(  0-C ,  1-C ) :   0.8852 B(  0-C ,  7-H ) :   0.9728 B(  0-C ,  8-H ) :   0.9783
B(  0-C ,  9-H ) :   0.9861 B(  1-C ,  2-C ) :   0.8908 B(  1-C , 10-H ) :   0.9841
B(  1-C , 11-H ) :   0.9569 B(  2-C ,  3-C ) :   0.9391 B(  2-C , 12-H ) :   0.9672
B(  2-C , 13-H ) :   0.9918 B(  3-C ,  4-C ) :   0.9407 B(  3-C ,  5-C ) :   0.9124
B(  3-C ,  6-O ) :   0.7994 B(  4-C , 14-H ) :   0.9752 B(  4-C , 15-H ) :   0.9755
B(  4-C , 16-H ) :   0.9686 B(  5-C , 17-H ) :   0.9616 B(  5-C , 18-H ) :   0.9707
B(  5-C , 19-H ) :   0.9705 B(  6-O , 20-H ) :   0.8795

Dispersion correction           -0.005545216
FINAL SINGLE POINT ENERGY      -312.213114594262

DIPOLE MOMENT
-------------

Method             : SCF
Type of density    : Electron Density
Multiplicity       :   1
Irrep              :   0
Energy             :  -312.2184483557250019 Eh
Relativity type    :
Basis              : AO
                                X                 Y                 Z
Electronic contribution:      2.602390229      -0.460883531       2.854554578
Nuclear contribution   :     -1.981058457       0.328073522      -3.470205216
                        -----------------------------------------
Total Dipole Moment    :      0.621331772      -0.132810009      -0.615650638
                        -----------------------------------------
Magnitude (a.u.)       :      0.884713161
Magnitude (Debye)      :      2.248762143

Rotational constants in cm-1:             0.142840             0.048204             0.047245
Rotational constants in MHz :          4282.238919          1445.125833          1416.372036

                             ****ORCA TERMINATED NORMALLY****
TOTAL RUN TIME: 0 days 0 hours 0 minutes 31 seconds 771 msec
