                         Program Version 6.0.0  -   RELEASE  -
|  1> ! pbe def2-sv(p) def2/J RI DEFGRID1 loosescf d4 GCP(DFT/SV(P)) printgap
|  2> %output
|  3>     printlevel normal
|  4> end
|  5> * xyz 0 1
|  6> C 2.1501373245 0.649517343 -0.877079671
|  7> C 1.5727527551 -0.6321361301 -0.2844450298
|  8> C 0.2998934306 -0.4361200016 0.5648036376
|  9> H 0.2843591835 -1.2547967934 1.3069737927
| 10> C -1.0172637827 -0.5610815259 -0.237912069
| 11> C -2.2190668882 -0.5639158483 0.7108550506
| 12> C -1.1845125254 0.5412367255 -1.280685107
| 13> O 0.4057124633 0.7964796054 1.2511462369
| 14> H 1.4822472139 1.0932318109 -1.6072733046
| 15> H 3.0976092649 0.4287398168 -1.3628205628
| 16> H 2.3217089496 1.3745684957 -0.0865577458
| 17> H 1.3535221992 -1.3486180698 -1.0771801483
| 18> H 2.3365504456 -1.071816624 0.3603585786
| 19> H -0.9815118587 -1.5322950436 -0.7430323247
| 20> H -3.1213509846 -0.8279979159 0.1649517256
| 21> H -2.0814805124 -1.2886985894 1.5109521227
| 22> H -2.3698912032 0.4216120653 1.1459886709
| 23> H -2.2044530775 0.5454859504 -1.6581481234
| 24> H -0.5141826223 0.3880223466 -2.1210733718
| 25> H -0.9738207365 1.5105099736 -0.8344830725
| 26> H -0.3259637647 0.865381224 1.8774408507
| 27> *
| 28>
| 29>                          ****END OF INPUT****

CARTESIAN COORDINATES (ANGSTROEM)
---------------------------------
  C      2.150137    0.649517   -0.877080
  C      1.572753   -0.632136   -0.284445
  C      0.299893   -0.436120    0.564804
  H      0.284359   -1.254797    1.306974
  C     -1.017264   -0.561082   -0.237912
  C     -2.219067   -0.563916    0.710855
  C     -1.184513    0.541237   -1.280685
  O      0.405712    0.796480    1.251146
  H      1.482247    1.093232   -1.607273
  H      3.097609    0.428740   -1.362821
  H      2.321709    1.374568   -0.086558
  H      1.353522   -1.348618   -1.077180
  H      2.336550   -1.071817    0.360359
  H     -0.981512   -1.532295   -0.743032
  H     -3.121351   -0.827998    0.164952
  H     -2.081481   -1.288699    1.510952
  H     -2.369891    0.421612    1.145989
  H     -2.204453    0.545486   -1.658148
  H     -0.514183    0.388022   -2.121073
  H     -0.973821    1.510510   -0.834483
  H     -0.325964    0.865381    1.877441

 Total Charge           Charge          ....    0
 Multiplicity           Mult            ....    1
 Number of Electrons    NEL             ....   58
 Basis Dimension        Dim             ....  126

ORBITAL ENERGIES
----------------

  NO   OCC          E(Eh)            E(eV)
   0   2.0000     -18.742850      -510.0189
   1   2.0000      -9.932431      -270.2752
   2   2.0000      -9.892471      -269.1878
   3   2.0000      -9.879026      -268.8220
   4   2.0000      -9.878590      -268.8101
   5   2.0000      -9.868650      -268.5396
   6   2.0000      -9.861328      -268.3404
   7   2.0000      -0.920577       -25.0502
   8   2.0000      -0.723027       -19.6746
   9   2.0000      -0.681708       -18.5502
  10   2.0000      -0.611442       -16.6382
  11   2.0000      -0.600801       -16.3486
  12   2.0000      -0.523383       -14.2420
  13   2.0000      -0.503356       -13.6970
  14   2.0000      -0.446889       -12.1605
  15   2.0000      -0.423819       -11.5327
  16   2.0000      -0.408766       -11.1231
  17   2.0000      -0.375536       -10.2189
  18   2.0000      -0.370445       -10.0803
  19   2.0000      -0.350540        -9.5387
  20   2.0000      -0.339011        -9.2250
  21   2.0000      -0.324624        -8.8335
  22   2.0000      -0.322314        -8.7706
  23   2.0000      -0.299555        -8.1513
  24   2.0000      -0.297763        -8.1026
  25   2.0000      -0.285650        -7.7729
  26   2.0000      -0.281649        -7.6641
  27   2.0000      -0.258568        -7.0360
  28   2.0000      -0.211460        -5.7541
  29   0.0000       0.017273         0.4700
  30   0.0000       0.051884         1.4118
  31   0.0000       0.067132         1.8268
  32   0.0000       0.069639         1.8950
  33   0.0000       0.086110         2.3432

MULLIKEN ATOMIC CHARGES
-----------------------
   0 C :   -0.278626
   1 C :   -0.159691
   2 C :    0.065521
   3 H :    0.049084
   4 C :   -0.186396
   5 C :   -0.268323
   6 C :   -0.243801
   7 O :   -0.419718
   8 H :    0.099785
   9 H :    0.094944
  10 H :    0.116116
  11 H :    0.081392
  12 H :    0.082166
  13 H :    0.067879
  14 H :    0.107982
  15 H :    0.097907
  16 H :    0.088434
  17 H :    0.092858
  18 H :    0.111025
  19 H :    0.102896
  20 H :    0.298565
Sum of atomic charges:   -0.0000000

LOEWDIN ATOMIC CHARGES
----------------------
   0 C :   -0.344841
   1 C :   -0.234731
   2 C :   -0.043316
   3 H :    0.092940
   4 C :   -0.172561
   5 C :   -0.338967
   6 C :   -0.334042
   7 O :   -0.320710
   8 H :    0.115371
   9 H :    0.116487
  10 H :    0.124943
  11 H :    0.117136
  12 H :    0.119406
  13 H :    0.116339
  14 H :    0.123153
  15 H :    0.115350
  16 H :    0.110830
  17 H :    0.116161
  18 H :    0.118666
  19 H :    0.119759
  20 H :    0.282627

  Mayer bond orders larger than 0.100000
B(  0-C ,  1-C ) :   1.1701 B(  0-C ,  8-H ) :   0.9456 B(  0-C ,  9-H ) :   0.9496
B(  0-C , 10-H ) :   0.9434 B(  1-C ,  2-C ) :   1.0721 B(  1-C , 11-H ) :   0.9240
B(  1-C , 12-H ) :   0.9184 B(  2-C ,  3-H ) :   0.9047 B(  2-C ,  4-C ) :   1.0208
B(  2-C ,  7-O ) :   1.0574 B(  4-C ,  5-C ) :   1.1074 B(  4-C ,  6-C ) :   1.1074
B(  4-C , 13-H ) :   0.8894 B(  5-C , 14-H ) :   0.9474 B(  5-C , 15-H ) :   0.9484
B(  5-C , 16-H ) :   0.9406 B(  6-C , 17-H ) :   0.9486 B(  6-C , 18-H ) :   0.9406
B(  6-C , 19-H ) :   0.9361 B(  7-O , 20-H ) :   0.8435

Dispersion correction           -0.017142980
FINAL SINGLE POINT ENERGY      -311.514521499298

DIPOLE MOMENT
-------------

Method             : SCF
Type of density    : Electron Density
Multiplicity       :   1
Irrep              :   0
Energy             :  -311.5944261721519979 Eh
Relativity type    :
Basis              : AO
                                X                 Y                 Z
Electronic contribution:      1.142108820       0.308988088       3.061199576
Nuclear contribution   :     -1.585721134      -0.641771294      -2.912163859
                        -----------------------------------------
Total Dipole Moment    :     -0.443612315      -0.332783205       0.149035717
                        -----------------------------------------
Magnitude (a.u.)       :      0.574237052
Magnitude (Debye)      :      1.459594591

Rotational constants in cm-1:             0.129076             0.059699             0.052284
Rotational constants in MHz :          3869.591651          1789.734395          1567.445359

                             ****ORCA TERMINATED NORMALLY****
TOTAL RUN TIME: 0 days 0 hours 0 minutes 8 seconds 252 msec
