                         Program Version 6.0.0  -   RELEASE  -
|  1> ! r2scan-3c def2/J RI DEFGRID2 scfconv6 printgap
|  2> %output
|  3>     printlevel normal
|  4> end
|  5> * xyz 0 1
|  6> C -2.2063275341 1.0485258913 0.3783060392
|  7> C -1.8223988144 -0.3829154915 0.0248602746
|  8> C -0.5451076677 -0.5176883905 -0.8087411056
|  9> C 0.7743444181 -0.1356540214 -0.0971819943
| 10> C 1.1255619665 1.3425199145 -0.31776931
| 11> C 1.9133014532 -0.998239966 -0.6637263441
| 12> O 0.6149014115 -0.4064220035 1.2909545062
| 13> H -1.5134001838 1.460785426 1.1062085782
| 14> H -3.2020835964 1.0675879429 0.8159101925
| 15> H -2.208764922 1.6779160577 -0.5091776856
| 16> H -1.7029188891 -0.9583889392 0.9435505199
| 17> H -2.6344269163 -0.8334191662 -0.5513332502
| 18> H -0.4717798444 -1.5644499611 -1.1108292533
| 19> H -0.6357134658 0.0849134072 -1.7135190348
| 20> H 2.063290271 1.5834558107 0.180042587
| 21> H 0.3492098491 1.9884826412 0.0784461147
| 22> H 1.2398173475 1.5414378842 -1.3794311397
| 23> H 1.9551125487 -0.898937828 -1.7444850688
| 24> H 1.746020257 -2.0431622305 -0.4119573039
| 25> H 2.870916661 -0.6893243316 -0.2492171894
| 26> H 1.4480519529 -0.2142863956 1.7408098254
| 27> *
| 28>
| 29>                          ****END OF INPUT****

CARTESIAN COORDINATES (ANGSTROEM)
---------------------------------
  C     -2.206328    1.048526    0.378306
  C     -1.822399   -0.382915    0.024860
  C     -0.545108   -0.517688   -0.808741
  C      0.774344   -0.135654   -0.097182
  C      1.125562    1.342520   -0.317769
  C      1.913301   -0.998240   -0.663726
  O      0.614901   -0.406422    1.290955
  H     -1.513400    1.460785    1.106209
  H     -3.202084    1.067588    0.815910
  H     -2.208765    1.677916   -0.509178
  H     -1.702919   -0.958389    0.943551
  H     -2.634427   -0.833419   -0.551333
  H     -0.471780   -1.564450   -1.110829
  H     -0.635713    0.084913   -1.713519
  H      2.063290    1.583456    0.180043
  H      0.349210    1.988483    0.078446
  H      1.239817    1.541438   -1.379431
  H      1.955113   -0.898938   -1.744485
  H      1.746020   -2.043162   -0.411957
  H      2.870917   -0.689324   -0.249217
  H      1.448052   -0.214286    1.740810

 Total Charge           Charge          ....    0
 Multiplicity           Mult            ....    1
 Number of Electrons    NEL             ....   58
 Basis Dimension        Dim             ....  208

ORBITAL ENERGIES
----------------

  NO   OCC          E(Eh)            E(eV)
   0   2.0000     -18.944070      -515.4944
   1   2.0000     -10.087987      -274.5081
   2   2.0000     -10.020275      -272.6656
   3   2.0000     -10.017116      -272.5796
   4   2.0000     -10.016052      -272.5506
   5   2.0000     -10.015637      -272.5393
   6   2.0000     -10.006856      -272.3004
   7   2.0000      -0.984220       -26.7820
   8   2.0000      -0.764787       -20.8109
   9   2.0000      -0.721751       -19.6398
  10   2.0000      -0.657260       -17.8850
  11   2.0000      -0.644499       -17.5377
  12   2.0000      -0.562728       -15.3126
  13   2.0000      -0.527486       -14.3536
  14   2.0000      -0.453992       -12.3537
  15   2.0000      -0.424870       -11.5613
  16   2.0000      -0.423151       -11.5145
  17   2.0000      -0.397135       -10.8066
  18   2.0000      -0.380504       -10.3540
  19   2.0000      -0.376370       -10.2415
  20   2.0000      -0.361336        -9.8325
  21   2.0000      -0.348850        -9.4927
  22   2.0000      -0.333363        -9.0713
  23   2.0000      -0.321717        -8.7544
  24   2.0000      -0.308674        -8.3994
  25   2.0000      -0.292014        -7.9461
  26   2.0000      -0.290121        -7.8946
  27   2.0000      -0.269893        -7.3442
  28   2.0000      -0.232385        -6.3235
  29   0.0000       0.056759         1.5445
  30   0.0000       0.104690         2.8488
  31   0.0000       0.110463         3.0059
  32   0.0000       0.122070         3.3217
  33   0.0000       0.128261         3.4902

MULLIKEN ATOMIC CHARGES
-----------------------
   0 C :   -0.547243
   1 C :   -0.187211
   2 C :   -0.322154
   3 C :    0.197251
   4 C :   -0.492027
   5 C :   -0.492866
   6 O :   -0.410968
   7 H :    0.166595
   8 H :    0.143472
   9 H :    0.145719
  10 H :    0.164110
  11 H :    0.137886
  12 H :    0.150144
  13 H :    0.146658
  14 H :    0.138010
  15 H :    0.164448
  16 H :    0.156539
  17 H :    0.152362
  18 H :    0.165065
  19 H :    0.138848
  20 H :    0.285362
Sum of atomic charges:    0.0000000

LOEWDIN ATOMIC CHARGES
----------------------
   0 C :   -0.427765
   1 C :   -0.300311
   2 C :   -0.262908
   3 C :    0.061816
   4 C :   -0.390983
   5 C :   -0.392678
   6 O :   -0.611400
   7 H :    0.153779
   8 H :    0.149838
   9 H :    0.147072
  10 H :    0.169863
  11 H :    0.149645
  12 H :    0.164731
  13 H :    0.162574
  14 H :    0.153297
  15 H :    0.164733
  16 H :    0.159517
  17 H :    0.161252
  18 H :    0.163770
  19 H :    0.152793
  20 H :    0.271365

  Mayer bond orders larger than 0.100000
B(  0-C ,  1-C ) :   0.8466 B(  0-C ,  7-H ) :   0.9869 B(  0-C ,  8-H ) :   0.9674
B(  0-C ,  9-H ) :   0.9835 B(  1-C ,  2-C ) :   0.9081 B(  1-C , 10-H ) :   0.9916
B(  1-C , 11-H ) :   0.9673 B(  2-C ,  3-C ) :   0.9005 B(  2-C , 12-H ) :   0.9719
B(  2-C , 13-H ) :   0.9742 B(  3-C ,  4-C ) :   0.9523 B(  3-C ,  5-C ) :   0.9356
B(  3-C ,  6-O ) :   0.8234 B(  4-C , 14-H ) :   0.9691 B(  4-C , 15-H ) :   0.9610
B(  4-C , 16-H ) :   0.9777 B(  5-C , 17-H ) :   0.9734 B(  5-C , 18-H ) :   0.9803
B(  5-C , 19-H ) :   0.9674 B(  6-O , 20-H ) :   0.9018

Dispersion correction           -0.005779596
FINAL SINGLE POINT ENERGY      -312.203044628476

DIPOLE MOMENT
-------------

Method             : SCF
Type of density    : Electron Density
Multiplicity       :   1
Irrep              :   0
Energy             :  -312.2083409229545055 Eh
Relativity type    :
Basis              : AO
                                X                 Y                 Z
Electronic contribution:      1.106390692      -1.918635694       2.388610726
Nuclear contribution   :     -0.644463782       2.060377092      -2.612373200
                        -----------------------------------------
Total Dipole Moment    :      0.461926910       0.141741398      -0.223762474
                        -----------------------------------------
Magnitude (a.u.)       :      0.532481680
Magnitude (Debye)      :      1.353460868

Rotational constants in cm-1:             0.130714             0.057984             0.054715
Rotational constants in MHz :          3918.711903          1738.319184          1640.318733

                             ****ORCA TERMINATED NORMALLY****
TOTAL RUN TIME: 0 days 0 hours 0 minutes 27 seconds 726 msec
