                         Program Version 6.0.0  -   RELEASE  -
|  1> ! r2scan-3c def2/J RI DEFGRID2 scfconv6 printgap
|  2> %output
|  3>     printlevel normal
|  4> end
|  5> %cpcm
|  6>     smd true
|  7>     smdsolvent "water"
|  8> end
|  9> * xyz 0 1
| 10> C -2.2063275341 1.0485258913 0.3783060392
| 11> C -1.8223988144 -0.3829154915 0.0248602746
| 12> C -0.5451076677 -0.5176883905 -0.8087411056
| 13> C 0.7743444181 -0.1356540214 -0.0971819943
| 14> C 1.1255619665 1.3425199145 -0.31776931
| 15> C 1.9133014532 -0.998239966 -0.6637263441
| 16> O 0.6149014115 -0.4064220035 1.2909545062
| 17> H -1.5134001838 1.460785426 1.1062085782
| 18> H -3.2020835964 1.0675879429 0.8159101925
| 19> H -2.208764922 1.6779160577 -0.5091776856
| 20> H -1.7029188891 -0.9583889392 0.9435505199
| 21> H -2.6344269163 -0.8334191662 -0.5513332502
| 22> H -0.4717798444 -1.5644499611 -1.1108292533
| 23> H -0.6357134658 0.0849134072 -1.7135190348
| 24> H 2.063290271 1.5834558107 0.180042587
| 25> H 0.3492098491 1.9884826412 0.0784461147
| 26> H 1.2398173475 1.5414378842 -1.3794311397
| 27> H 1.9551125487 -0.898937828 -1.7444850688
| 28> H 1.746020257 -2.0431622305 -0.4119573039
| 29> H 2.870916661 -0.6893243316 -0.2492171894
| 30> H 1.4480519529 -0.2142863956 1.7408098254
| 31> *
| 32>
| 33>                          ****END OF INPUT****

CARTESIAN COORDINATES (ANGSTROEM)
---------------------------------
  C     -2.206328    1.048526    0.378306
  C     -1.822399   -0.382915    0.024860
  C     -0.545108   -0.517688   -0.808741
  C      0.774344   -0.135654   -0.097182
  C      1.125562    1.342520   -0.317769
  C      1.913301   -0.998240   -0.663726
  O      0.614901   -0.406422    1.290955
  H     -1.513400    1.460785    1.106209
  H     -3.202084    1.067588    0.815910
  H     -2.208765    1.677916   -0.509178
  H     -1.702919   -0.958389    0.943551
  H     -2.634427   -0.833419   -0.551333
  H     -0.471780   -1.564450   -1.110829
  H     -0.635713    0.084913   -1.713519
  H      2.063290    1.583456    0.180043
  H      0.349210    1.988483    0.078446
  H      1.239817    1.541438   -1.379431
  H      1.955113   -0.898938   -1.744485
  H      1.746020   -2.043162   -0.411957
  H      2.870917   -0.689324   -0.249217
  H      1.448052   -0.214286    1.740810

 Total Charge           Charge          ....    0
 Multiplicity           Mult            ....    1
 Number of Electrons    NEL             ....   58
 Basis Dimension        Dim             ....  208

ORBITAL ENERGIES
----------------

  NO   OCC          E(Eh)            E(eV)
   0   2.0000     -18.945752      -515.5401
   1   2.0000     -10.083000      -274.3724
   2   2.0000     -10.015321      -272.5308
   3   2.0000     -10.014509      -272.5086
   4   2.0000     -10.007132      -272.3079
   5   2.0000     -10.006025      -272.2778
   6   2.0000     -10.005650      -272.2676
   7   2.0000      -0.984853       -26.7992
   8   2.0000      -0.760317       -20.6893
   9   2.0000      -0.717820       -19.5329
  10   2.0000      -0.649131       -17.6637
  11   2.0000      -0.639621       -17.4050
  12   2.0000      -0.559564       -15.2265
  13   2.0000      -0.524699       -14.2778
  14   2.0000      -0.449159       -12.2222
  15   2.0000      -0.421284       -11.4637
  16   2.0000      -0.418358       -11.3841
  17   2.0000      -0.393505       -10.7078
  18   2.0000      -0.374382       -10.1875
  19   2.0000      -0.371134       -10.0991
  20   2.0000      -0.354492        -9.6462
  21   2.0000      -0.341766        -9.2999
  22   2.0000      -0.329650        -8.9702
  23   2.0000      -0.315335        -8.5807
  24   2.0000      -0.308332        -8.3901
  25   2.0000      -0.289893        -7.8884
  26   2.0000      -0.288726        -7.8566
  27   2.0000      -0.266083        -7.2405
  28   2.0000      -0.234454        -6.3798
  29   0.0000       0.070725         1.9245
  30   0.0000       0.114602         3.1185
  31   0.0000       0.117997         3.2109
  32   0.0000       0.125624         3.4184
  33   0.0000       0.139576         3.7981

MULLIKEN ATOMIC CHARGES
-----------------------
   0 C :   -0.564370
   1 C :   -0.213210
   2 C :   -0.338960
   3 C :    0.240926
   4 C :   -0.541635
   5 C :   -0.534659
   6 O :   -0.497930
   7 H :    0.164796
   8 H :    0.154447
   9 H :    0.160056
  10 H :    0.153900
  11 H :    0.150724
  12 H :    0.162167
  13 H :    0.165201
  14 H :    0.162245
  15 H :    0.166146
  16 H :    0.174144
  17 H :    0.168676
  18 H :    0.165502
  19 H :    0.161714
  20 H :    0.340120
Sum of atomic charges:    0.0000000

LOEWDIN ATOMIC CHARGES
----------------------
   0 C :   -0.434639
   1 C :   -0.305518
   2 C :   -0.266779
   3 C :    0.065074
   4 C :   -0.396042
   5 C :   -0.396660
   6 O :   -0.644688
   7 H :    0.152433
   8 H :    0.151823
   9 H :    0.152817
  10 H :    0.162956
  11 H :    0.153787
  12 H :    0.167045
  13 H :    0.169235
  14 H :    0.161083
  15 H :    0.163948
  16 H :    0.165493
  17 H :    0.166337
  18 H :    0.163069
  19 H :    0.160497
  20 H :    0.288730

  Mayer bond orders larger than 0.100000
B(  0-C ,  1-C ) :   0.8583 B(  0-C ,  7-H ) :   0.9823 B(  0-C ,  8-H ) :   0.9664
B(  0-C ,  9-H ) :   0.9788 B(  1-C ,  2-C ) :   0.8911 B(  1-C , 10-H ) :   0.9974
B(  1-C , 11-H ) :   0.9641 B(  2-C ,  3-C ) :   0.9026 B(  2-C , 12-H ) :   0.9717
B(  2-C , 13-H ) :   0.9701 B(  3-C ,  4-C ) :   0.9404 B(  3-C ,  5-C ) :   0.9296
B(  3-C ,  6-O ) :   0.8121 B(  4-C , 14-H ) :   0.9704 B(  4-C , 15-H ) :   0.9572
B(  4-C , 16-H ) :   0.9730 B(  5-C , 17-H ) :   0.9709 B(  5-C , 18-H ) :   0.9744
B(  5-C , 19-H ) :   0.9678 B(  6-O , 20-H ) :   0.8770

Dispersion correction           -0.005779596
FINAL SINGLE POINT ENERGY      -312.207797612542

DIPOLE MOMENT
-------------

Method             : SCF
Type of density    : Electron Density
Multiplicity       :   1
Irrep              :   0
Energy             :  -312.2130939070210047 Eh
Relativity type    :
Basis              : AO
                                X                 Y                 Z
Electronic contribution:      1.327619969      -1.803947666       2.205389903
Nuclear contribution   :     -0.644463782       2.060377092      -2.612373200
                        -----------------------------------------
Total Dipole Moment    :      0.683156187       0.256429426      -0.406983297
                        -----------------------------------------
Magnitude (a.u.)       :      0.835520096
Magnitude (Debye)      :      2.123723309

Rotational constants in cm-1:             0.130714             0.057984             0.054715
Rotational constants in MHz :          3918.711903          1738.319184          1640.318733

                             ****ORCA TERMINATED NORMALLY****
TOTAL RUN TIME: 0 days 0 hours 0 minutes 32 seconds 599 msec
