                         Program Version 6.0.0  -   RELEASE  -
|  1> ! r2scan-3c def2/J RI DEFGRID2 scfconv6 printgap
|  2> %output
|  3>     printlevel normal
|  4> end
|  5> * xyz 0 1
|  6> C 1.5565085101 0.2410699067 -1.1918056423
|  7> C 1.1130049899 -0.2140518213 0.1971574231
|  8> H 0.934749453 -1.2935492787 0.1922349847
|  9> C -0.127702022 0.5192833119 0.7324376855
| 10> C -1.5064833693 0.1423190296 0.164433062
| 11> C -1.7724550556 0.7152937714 -1.2267313008
| 12> C -1.750428653 -1.365376135 0.1751236744
| 13> O 2.1812319313 -0.0599228146 1.1261563242
| 14> H 2.5533970966 -0.1466894846 -1.3915311182
| 15> H 0.8853592893 -0.1354092922 -1.9553265658
| 16> H 1.5828303025 1.3269883588 -1.2502691939
| 17> H -0.1497594746 0.3188791583 1.8078360074
| 18> H 0.0194775288 1.5950052435 0.6017988407
| 19> H -2.2350278002 0.6013727166 0.8445483539
| 20> H -1.5320624588 1.7748870324 -1.2607611661
| 21> H -2.8241197108 0.595891425 -1.4778542565
| 22> H -1.1887332769 0.2018110454 -1.9843418199
| 23> H -2.7943140463 -1.5748637886 -0.0463127282
| 24> H -1.1405110743 -1.8628305717 -0.5748308338
| 25> H -1.5145271983 -1.785797903 1.1498013707
| 26> H 2.4222195909 0.8762672413 1.1654654329
| 27> *
| 28>
| 29>                          ****END OF INPUT****

CARTESIAN COORDINATES (ANGSTROEM)
---------------------------------
  C      1.556509    0.241070   -1.191806
  C      1.113005   -0.214052    0.197157
  H      0.934749   -1.293549    0.192235
  C     -0.127702    0.519283    0.732438
  C     -1.506483    0.142319    0.164433
  C     -1.772455    0.715294   -1.226731
  C     -1.750429   -1.365376    0.175124
  O      2.181232   -0.059923    1.126156
  H      2.553397   -0.146689   -1.391531
  H      0.885359   -0.135409   -1.955327
  H      1.582830    1.326988   -1.250269
  H     -0.149759    0.318879    1.807836
  H      0.019478    1.595005    0.601799
  H     -2.235028    0.601373    0.844548
  H     -1.532062    1.774887   -1.260761
  H     -2.824120    0.595891   -1.477854
  H     -1.188733    0.201811   -1.984342
  H     -2.794314   -1.574864   -0.046313
  H     -1.140511   -1.862831   -0.574831
  H     -1.514527   -1.785798    1.149801
  H      2.422220    0.876267    1.165465

 Total Charge           Charge          ....    0
 Multiplicity           Mult            ....    1
 Number of Electrons    NEL             ....   58
 Basis Dimension        Dim             ....  208

ORBITAL ENERGIES
----------------

  NO   OCC          E(Eh)            E(eV)
   0   2.0000     -18.940734      -515.4036
   1   2.0000     -10.078483      -274.2495
   2   2.0000     -10.037427      -273.1323
   3   2.0000     -10.022608      -272.7290
   4   2.0000     -10.018335      -272.6127
   5   2.0000     -10.017589      -272.5925
   6   2.0000     -10.016587      -272.5652
   7   2.0000      -0.979017       -26.6404
   8   2.0000      -0.778822       -21.1928
   9   2.0000      -0.715801       -19.4779
  10   2.0000      -0.656255       -17.8576
  11   2.0000      -0.651226       -17.7208
  12   2.0000      -0.577293       -15.7089
  13   2.0000      -0.523725       -14.2513
  14   2.0000      -0.454011       -12.3543
  15   2.0000      -0.439535       -11.9604
  16   2.0000      -0.413613       -11.2550
  17   2.0000      -0.410283       -11.1644
  18   2.0000      -0.389729       -10.6051
  19   2.0000      -0.383082       -10.4242
  20   2.0000      -0.362698        -9.8695
  21   2.0000      -0.344468        -9.3735
  22   2.0000      -0.337870        -9.1939
  23   2.0000      -0.329381        -8.9629
  24   2.0000      -0.309818        -8.4306
  25   2.0000      -0.296608        -8.0711
  26   2.0000      -0.288199        -7.8423
  27   2.0000      -0.276030        -7.5111
  28   2.0000      -0.230482        -6.2717
  29   0.0000       0.067450         1.8354
  30   0.0000       0.074928         2.0389
  31   0.0000       0.105785         2.8786
  32   0.0000       0.120250         3.2722
  33   0.0000       0.122626         3.3368

MULLIKEN ATOMIC CHARGES
-----------------------
   0 C :   -0.479578
   1 C :   -0.025753
   2 H :    0.145739
   3 C :   -0.271213
   4 C :   -0.027612
   5 C :   -0.494032
   6 C :   -0.505377
   7 O :   -0.413760
   8 H :    0.164718
   9 H :    0.140408
  10 H :    0.146664
  11 H :    0.166724
  12 H :    0.133585
  13 H :    0.144840
  14 H :    0.146119
  15 H :    0.145413
  16 H :    0.141260
  17 H :    0.147938
  18 H :    0.150633
  19 H :    0.155238
  20 H :    0.288046
Sum of atomic charges:   -0.0000000

LOEWDIN ATOMIC CHARGES
----------------------
   0 C :   -0.398645
   1 C :    0.047241
   2 H :    0.182372
   3 C :   -0.284336
   4 C :   -0.242419
   5 C :   -0.416495
   6 C :   -0.417657
   7 O :   -0.615798
   8 H :    0.164020
   9 H :    0.155329
  10 H :    0.153759
  11 H :    0.173202
  12 H :    0.157753
  13 H :    0.157054
  14 H :    0.153336
  15 H :    0.153320
  16 H :    0.149766
  17 H :    0.154258
  18 H :    0.151024
  19 H :    0.156496
  20 H :    0.266419

  Mayer bond orders larger than 0.100000
B(  0-C ,  1-C ) :   0.9192 B(  0-C ,  8-H ) :   0.9709 B(  0-C ,  9-H ) :   0.9640
B(  0-C , 10-H ) :   0.9767 B(  1-C ,  2-H ) :   0.9559 B(  1-C ,  3-C ) :   0.9120
B(  1-C ,  7-O ) :   0.9352 B(  3-C ,  4-C ) :   0.9002 B(  3-C , 11-H ) :   0.9664
B(  3-C , 12-H ) :   0.9736 B(  4-C ,  5-C ) :   0.9239 B(  4-C ,  6-C ) :   0.8920
B(  4-C , 13-H ) :   0.9556 B(  5-C , 14-H ) :   0.9754 B(  5-C , 15-H ) :   0.9682
B(  5-C , 16-H ) :   0.9812 B(  6-C , 17-H ) :   0.9702 B(  6-C , 18-H ) :   0.9790
B(  6-C , 19-H ) :   0.9746 B(  7-O , 20-H ) :   0.8988

Dispersion correction           -0.005756518
FINAL SINGLE POINT ENERGY      -312.198557649743

DIPOLE MOMENT
-------------

Method             : SCF
Type of density    : Electron Density
Multiplicity       :   1
Irrep              :   0
Energy             :  -312.2041110582851502 Eh
Relativity type    :
Basis              : AO
                                X                 Y                 Z
Electronic contribution:      4.275964468      -0.029327384       3.606702689
Nuclear contribution   :     -4.640641890       0.460651423      -3.904381566
                        -----------------------------------------
Total Dipole Moment    :     -0.364677423       0.431324038      -0.297678877
                        -----------------------------------------
Magnitude (a.u.)       :      0.638469077
Magnitude (Debye)      :      1.622859423

Rotational constants in cm-1:             0.129318             0.052979             0.046330
Rotational constants in MHz :          3876.850253          1588.261491          1388.937035

                             ****ORCA TERMINATED NORMALLY****
TOTAL RUN TIME: 0 days 0 hours 0 minutes 30 seconds 238 msec
