                         Program Version 6.0.0  -   RELEASE  -
|  1> ! r2scan-3c def2/J RI DEFGRID2 scfconv6 printgap
|  2> %output
|  3>     printlevel normal
|  4> end
|  5> %cpcm
|  6>     smd true
|  7>     smdsolvent "water"
|  8> end
|  9> * xyz 0 1
| 10> C 1.5565085101 0.2410699067 -1.1918056423
| 11> C 1.1130049899 -0.2140518213 0.1971574231
| 12> H 0.934749453 -1.2935492787 0.1922349847
| 13> C -0.127702022 0.5192833119 0.7324376855
| 14> C -1.5064833693 0.1423190296 0.164433062
| 15> C -1.7724550556 0.7152937714 -1.2267313008
| 16> C -1.750428653 -1.365376135 0.1751236744
| 17> O 2.1812319313 -0.0599228146 1.1261563242
| 18> H 2.5533970966 -0.1466894846 -1.3915311182
| 19> H 0.8853592893 -0.1354092922 -1.9553265658
| 20> H 1.5828303025 1.3269883588 -1.2502691939
| 21> H -0.1497594746 0.3188791583 1.8078360074
| 22> H 0.0194775288 1.5950052435 0.6017988407
| 23> H -2.2350278002 0.6013727166 0.8445483539
| 24> H -1.5320624588 1.7748870324 -1.2607611661
| 25> H -2.8241197108 0.595891425 -1.4778542565
| 26> H -1.1887332769 0.2018110454 -1.9843418199
| 27> H -2.7943140463 -1.5748637886 -0.0463127282
| 28> H -1.1405110743 -1.8628305717 -0.5748308338
| 29> H -1.5145271983 -1.785797903 1.1498013707
| 30> H 2.4222195909 0.8762672413 1.1654654329
| 31> *
| 32>
| 33>                          ****END OF INPUT****

CARTESIAN COORDINATES (ANGSTROEM)
---------------------------------
  C      1.556509    0.241070   -1.191806
  C      1.113005   -0.214052    0.197157
  H      0.934749   -1.293549    0.192235
  C     -0.127702    0.519283    0.732438
  C     -1.506483    0.142319    0.164433
  C     -1.772455    0.715294   -1.226731
  C     -1.750429   -1.365376    0.175124
  O      2.181232   -0.059923    1.126156
  H      2.553397   -0.146689   -1.391531
  H      0.885359   -0.135409   -1.955327
  H      1.582830    1.326988   -1.250269
  H     -0.149759    0.318879    1.807836
  H      0.019478    1.595005    0.601799
  H     -2.235028    0.601373    0.844548
  H     -1.532062    1.774887   -1.260761
  H     -2.824120    0.595891   -1.477854
  H     -1.188733    0.201811   -1.984342
  H     -2.794314   -1.574864   -0.046313
  H     -1.140511   -1.862831   -0.574831
  H     -1.514527   -1.785798    1.149801
  H      2.422220    0.876267    1.165465

 Total Charge           Charge          ....    0
 Multiplicity           Mult            ....    1
 Number of Electrons    NEL             ....   58
 Basis Dimension        Dim             ....  208

ORBITAL ENERGIES
----------------

  NO   OCC          E(Eh)            E(eV)
   0   2.0000     -18.945793      -515.5412
   1   2.0000     -10.073452      -274.1126
   2   2.0000     -10.027009      -272.8488
   3   2.0000     -10.013372      -272.4777
   4   2.0000     -10.008271      -272.3389
   5   2.0000     -10.006442      -272.2891
   6   2.0000     -10.004804      -272.2446
   7   2.0000      -0.982745       -26.7418
   8   2.0000      -0.768863       -20.9218
   9   2.0000      -0.708026       -19.2664
  10   2.0000      -0.646683       -17.5971
  11   2.0000      -0.640885       -17.4394
  12   2.0000      -0.571520       -15.5518
  13   2.0000      -0.515225       -14.0200
  14   2.0000      -0.447383       -12.1739
  15   2.0000      -0.433548       -11.7975
  16   2.0000      -0.405274       -11.0281
  17   2.0000      -0.401635       -10.9290
  18   2.0000      -0.380956       -10.3664
  19   2.0000      -0.375771       -10.2252
  20   2.0000      -0.352082        -9.5806
  21   2.0000      -0.339690        -9.2434
  22   2.0000      -0.330181        -8.9847
  23   2.0000      -0.320006        -8.7078
  24   2.0000      -0.300787        -8.1848
  25   2.0000      -0.286584        -7.7983
  26   2.0000      -0.279825        -7.6144
  27   2.0000      -0.272849        -7.4246
  28   2.0000      -0.234881        -6.3914
  29   0.0000       0.081885         2.2282
  30   0.0000       0.086123         2.3435
  31   0.0000       0.118345         3.2203
  32   0.0000       0.130003         3.5376
  33   0.0000       0.131311         3.5731

MULLIKEN ATOMIC CHARGES
-----------------------
   0 C :   -0.529384
   1 C :    0.011055
   2 H :    0.154411
   3 C :   -0.291757
   4 C :   -0.005682
   5 C :   -0.545841
   6 C :   -0.547038
   7 O :   -0.509943
   8 H :    0.160843
   9 H :    0.163671
  10 H :    0.169392
  11 H :    0.158628
  12 H :    0.156652
  13 H :    0.152367
  14 H :    0.158253
  15 H :    0.155399
  16 H :    0.158925
  17 H :    0.158312
  18 H :    0.165460
  19 H :    0.161151
  20 H :    0.345128
Sum of atomic charges:   -0.0000000

LOEWDIN ATOMIC CHARGES
----------------------
   0 C :   -0.402615
   1 C :    0.048048
   2 H :    0.184867
   3 C :   -0.283756
   4 C :   -0.238673
   5 C :   -0.425265
   6 C :   -0.426047
   7 O :   -0.656559
   8 H :    0.162281
   9 H :    0.162534
  10 H :    0.160961
  11 H :    0.170539
  12 H :    0.165461
  13 H :    0.159575
  14 H :    0.156070
  15 H :    0.155144
  16 H :    0.154178
  17 H :    0.156209
  18 H :    0.155193
  19 H :    0.157237
  20 H :    0.284617

  Mayer bond orders larger than 0.100000
B(  0-C ,  1-C ) :   0.9046 B(  0-C ,  8-H ) :   0.9679 B(  0-C ,  9-H ) :   0.9616
B(  0-C , 10-H ) :   0.9753 B(  1-C ,  2-H ) :   0.9580 B(  1-C ,  3-C ) :   0.9132
B(  1-C ,  7-O ) :   0.9158 B(  3-C ,  4-C ) :   0.8998 B(  3-C , 11-H ) :   0.9652
B(  3-C , 12-H ) :   0.9744 B(  4-C ,  5-C ) :   0.9132 B(  4-C ,  6-C ) :   0.8820
B(  4-C , 13-H ) :   0.9570 B(  5-C , 14-H ) :   0.9725 B(  5-C , 15-H ) :   0.9672
B(  5-C , 16-H ) :   0.9800 B(  6-C , 17-H ) :   0.9688 B(  6-C , 18-H ) :   0.9760
B(  6-C , 19-H ) :   0.9730 B(  7-O , 20-H ) :   0.8715

Dispersion correction           -0.005756518
FINAL SINGLE POINT ENERGY      -312.204781762962

DIPOLE MOMENT
-------------

Method             : SCF
Type of density    : Electron Density
Multiplicity       :   1
Irrep              :   0
Energy             :  -312.2103351715037434 Eh
Relativity type    :
Basis              : AO
                                X                 Y                 Z
Electronic contribution:      4.158260516       0.185340826       3.453592619
Nuclear contribution   :     -4.640641890       0.460651423      -3.904381566
                        -----------------------------------------
Total Dipole Moment    :     -0.482381374       0.645992248      -0.450788947
                        -----------------------------------------
Magnitude (a.u.)       :      0.923692833
Magnitude (Debye)      :      2.347840596

Rotational constants in cm-1:             0.129318             0.052979             0.046330
Rotational constants in MHz :          3876.850253          1588.261491          1388.937035

                             ****ORCA TERMINATED NORMALLY****
TOTAL RUN TIME: 0 days 0 hours 0 minutes 34 seconds 938 msec
