                         Program Version 6.0.0  -   RELEASE  -
|  1> ! pbe def2-sv(p) def2/J RI DEFGRID1 loosescf d4 GCP(DFT/SV(P)) printgap
|  2> %output
|  3>     printlevel normal
|  4> end
|  5> * xyz 0 1
|  6> C -1.4486161979 0.0758227491 0.6263052924
|  7> C 0.0646951572 0.3112518108 0.5460010061
|  8> C 0.795200423 -0.9442766946 0.0595897405
|  9> O 2.167219375 -0.624521571 -0.0525819616
| 10> O 0.2735676464 1.38948629 -0.3427987829
| 11> O -1.9980909277 -0.23974267 -0.6285881724
| 12> H -1.9199621396 0.9785601628 1.0343745164
| 13> H -1.6624141173 -0.769326169 1.2818646586
| 14> H 0.4419803847 0.5755343054 1.5454180099
| 15> H 0.3810282328 -1.2432378928 -0.9106292651
| 16> H 0.6355685899 -1.7514762875 0.7833820733
| 17> H 2.651887004 -1.3934079805 -0.3798031961
| 18> H 1.2206033773 1.4292878282 -0.5428779767
| 19> H -1.7605037339 0.4767117472 -1.2373154973
| 20> *
| 21>
| 22>                          ****END OF INPUT****

CARTESIAN COORDINATES (ANGSTROEM)
---------------------------------
  C     -1.448616    0.075823    0.626305
  C      0.064695    0.311252    0.546001
  C      0.795200   -0.944277    0.059590
  O      2.167219   -0.624522   -0.052582
  O      0.273568    1.389486   -0.342799
  O     -1.998091   -0.239743   -0.628588
  H     -1.919962    0.978560    1.034375
  H     -1.662414   -0.769326    1.281865
  H      0.441980    0.575534    1.545418
  H      0.381028   -1.243238   -0.910629
  H      0.635569   -1.751476    0.783382
  H      2.651887   -1.393408   -0.379803
  H      1.220603    1.429288   -0.542878
  H     -1.760504    0.476712   -1.237315

 Total Charge           Charge          ....    0
 Multiplicity           Mult            ....    1
 Number of Electrons    NEL             ....   50
 Basis Dimension        Dim             ....  100

ORBITAL ENERGIES
----------------

  NO   OCC          E(Eh)            E(eV)
   0   2.0000     -18.757955      -510.4299
   1   2.0000     -18.747917      -510.1568
   2   2.0000     -18.739243      -509.9207
   3   2.0000      -9.936503      -270.3860
   4   2.0000      -9.931618      -270.2531
   5   2.0000      -9.927987      -270.1543
   6   2.0000      -0.942113       -25.6362
   7   2.0000      -0.922649       -25.1066
   8   2.0000      -0.905862       -24.6498
   9   2.0000      -0.680749       -18.5241
  10   2.0000      -0.605335       -16.4720
  11   2.0000      -0.536108       -14.5882
  12   2.0000      -0.479338       -13.0434
  13   2.0000      -0.460278       -12.5248
  14   2.0000      -0.444104       -12.0847
  15   2.0000      -0.412856       -11.2344
  16   2.0000      -0.380751       -10.3608
  17   2.0000      -0.368035       -10.0148
  18   2.0000      -0.351111        -9.5542
  19   2.0000      -0.308084        -8.3834
  20   2.0000      -0.288806        -7.8588
  21   2.0000      -0.272699        -7.4205
  22   2.0000      -0.230396        -6.2694
  23   2.0000      -0.220250        -5.9933
  24   2.0000      -0.209192        -5.6924
  25   0.0000       0.016662         0.4534
  26   0.0000       0.042892         1.1671
  27   0.0000       0.061199         1.6653
  28   0.0000       0.078966         2.1488
  29   0.0000       0.094084         2.5602

MULLIKEN ATOMIC CHARGES
-----------------------
   0 C :    0.051033
   1 C :   -0.017832
   2 C :    0.014204
   3 O :   -0.445348
   4 O :   -0.446882
   5 O :   -0.443385
   6 H :    0.084449
   7 H :    0.084406
   8 H :    0.063565
   9 H :    0.071738
  10 H :    0.068527
  11 H :    0.307168
  12 H :    0.307965
  13 H :    0.300391
Sum of atomic charges:    0.0000000

LOEWDIN ATOMIC CHARGES
----------------------
   0 C :   -0.122782
   1 C :   -0.088713
   2 C :   -0.141411
   3 O :   -0.350837
   4 O :   -0.334944
   5 O :   -0.338637
   6 H :    0.102971
   7 H :    0.114433
   8 H :    0.102654
   9 H :    0.099843
  10 H :    0.099704
  11 H :    0.290521
  12 H :    0.285340
  13 H :    0.281859

  Mayer bond orders larger than 0.100000
B(  0-C ,  1-C ) :   1.0457 B(  0-C ,  5-O ) :   1.0634 B(  0-C ,  6-H ) :   0.9177
B(  0-C ,  7-H ) :   0.9265 B(  1-C ,  2-C ) :   1.0655 B(  1-C ,  4-O ) :   1.0533
B(  1-C ,  8-H ) :   0.8899 B(  2-C ,  3-O ) :   1.0744 B(  2-C ,  9-H ) :   0.9018
B(  2-C , 10-H ) :   0.9152 B(  3-O , 11-H ) :   0.8493 B(  4-O , 12-H ) :   0.8334
B(  5-O , 13-H ) :   0.8388

Dispersion correction           -0.009226652
FINAL SINGLE POINT ENERGY      -344.013503321789

DIPOLE MOMENT
-------------

Method             : SCF
Type of density    : Electron Density
Multiplicity       :   1
Irrep              :   0
Energy             :  -344.0875174602281845 Eh
Relativity type    :
Basis              : AO
                                X                 Y                 Z
Electronic contribution:      0.712437754       1.199341137      -1.445143494
Nuclear contribution   :     -0.004507454      -1.584612353       1.461865359
                        -----------------------------------------
Total Dipole Moment    :      0.707930300      -0.385271216       0.016721864
                        -----------------------------------------
Magnitude (a.u.)       :      0.806150631
Magnitude (Debye)      :      2.049072062

Rotational constants in cm-1:             0.205605             0.076320             0.066609
Rotational constants in MHz :          6163.892475          2288.003704          1996.888180

                             ****ORCA TERMINATED NORMALLY****
TOTAL RUN TIME: 0 days 0 hours 0 minutes 8 seconds 132 msec
