                         Program Version 6.0.0  -   RELEASE  -
|  1> ! r2scan-3c def2/J RI DEFGRID2 scfconv6 printgap
|  2> %output
|  3>     printlevel normal
|  4> end
|  5> * xyz 0 1
|  6> C 4.951140413 1.2048386065 0.0133547782
|  7> C 4.5334476415 -0.2546991036 -0.1167591929
|  8> C 3.0533184904 -0.5719549446 -0.0459992283
|  9> O 2.671693791 -1.7315674027 0.0495213969
| 10> N 2.2196232954 0.4972590977 -0.1104952591
| 11> C 0.8294132415 0.5344512069 -0.0794658918
| 12> C 0.2045726835 1.7812352241 -0.162022945
| 13> C -1.170845752 1.8812099806 -0.1355550021
| 14> C -1.9493947945 0.7385572661 -0.0259389174
| 15> C -1.3331897432 -0.5033098787 0.0565947332
| 16> C 0.0457141241 -0.6117433833 0.0304651683
| 17> Cl -2.2892113289 -1.9436461161 0.1944294057
| 18> Cl -3.6781417309 0.8639431103 0.0075330224
| 19> H 4.6133174874 1.79609732 -0.8342947621
| 20> H 6.0367294805 1.2572218029 0.0333716307
| 21> H 4.5819988985 1.6386221177 0.9393583196
| 22> H 5.0070783702 -0.8544647188 0.6635683723
| 23> H 4.8845358795 -0.6613315972 -1.0688983734
| 24> H 2.6592390281 1.4057603126 -0.1913295836
| 25> H 0.7967567706 2.678052695 -0.2471153318
| 26> H -1.653392083 2.8420776395 -0.1992129367
| 27> H 0.5115287928 -1.5807665534 0.0951706887
| 28> *
| 29>
| 30>                          ****END OF INPUT****

CARTESIAN COORDINATES (ANGSTROEM)
---------------------------------
  C      4.951140    1.204839    0.013355
  C      4.533448   -0.254699   -0.116759
  C      3.053318   -0.571955   -0.045999
  O      2.671694   -1.731567    0.049521
  N      2.219623    0.497259   -0.110495
  C      0.829413    0.534451   -0.079466
  C      0.204573    1.781235   -0.162023
  C     -1.170846    1.881210   -0.135555
  C     -1.949395    0.738557   -0.025939
  C     -1.333190   -0.503310    0.056595
  C      0.045714   -0.611743    0.030465
  Cl    -2.289211   -1.943646    0.194429
  Cl    -3.678142    0.863943    0.007533
  H      4.613317    1.796097   -0.834295
  H      6.036729    1.257222    0.033372
  H      4.581999    1.638622    0.939358
  H      5.007078   -0.854465    0.663568
  H      4.884536   -0.661332   -1.068898
  H      2.659239    1.405760   -0.191330
  H      0.796757    2.678053   -0.247115
  H     -1.653392    2.842078   -0.199213
  H      0.511529   -1.580767    0.095171

 Total Charge           Charge          ....    0
 Multiplicity           Mult            ....    1
 Number of Electrons    NEL             ....  112
 Basis Dimension        Dim             ....  318

ORBITAL ENERGIES
----------------

  NO   OCC          E(Eh)            E(eV)
   0   2.0000    -101.224514     -2754.4591
   1   2.0000    -101.223492     -2754.4312
   2   2.0000     -18.926703      -515.0218
   3   2.0000     -14.222646      -387.0179
   4   2.0000     -10.146997      -276.1138
   5   2.0000     -10.114026      -275.2166
   6   2.0000     -10.110068      -275.1089
   7   2.0000     -10.105633      -274.9882
   8   2.0000     -10.063966      -273.8544
   9   2.0000     -10.061017      -273.7742
  10   2.0000     -10.057149      -273.6689
  11   2.0000     -10.052350      -273.5383
  12   2.0000     -10.052187      -273.5339
  13   2.0000      -9.380219      -255.2487
  14   2.0000      -9.379168      -255.2201
  15   2.0000      -7.126663      -193.9264
  16   2.0000      -7.125660      -193.8991
  17   2.0000      -7.116473      -193.6491
  18   2.0000      -7.115821      -193.6313
  19   2.0000      -7.115483      -193.6221
  20   2.0000      -7.114676      -193.6002
  21   2.0000      -1.017280       -27.6816
  22   2.0000      -0.932872       -25.3847
  23   2.0000      -0.885689       -24.1008
  24   2.0000      -0.824125       -22.4256
  25   2.0000      -0.813076       -22.1249
  26   2.0000      -0.769397       -20.9364
  27   2.0000      -0.728441       -19.8219
  28   2.0000      -0.710686       -19.3387
  29   2.0000      -0.646066       -17.5804
  30   2.0000      -0.617534       -16.8040
  31   2.0000      -0.597788       -16.2666
  32   2.0000      -0.561969       -15.2919
  33   2.0000      -0.525761       -14.3067
  34   2.0000      -0.476246       -12.9593
  35   2.0000      -0.463932       -12.6242
  36   2.0000      -0.459139       -12.4938
  37   2.0000      -0.451469       -12.2851
  38   2.0000      -0.428966       -11.6728
  39   2.0000      -0.416438       -11.3318
  40   2.0000      -0.413694       -11.2572
  41   2.0000      -0.405714       -11.0400
  42   2.0000      -0.389222       -10.5913
  43   2.0000      -0.377864       -10.2822
  44   2.0000      -0.371518       -10.1095
  45   2.0000      -0.358463        -9.7543
  46   2.0000      -0.354432        -9.6446
  47   2.0000      -0.351346        -9.5606
  48   2.0000      -0.323191        -8.7945
  49   2.0000      -0.319085        -8.6828
  50   2.0000      -0.300358        -8.1732
  51   2.0000      -0.279187        -7.5971
  52   2.0000      -0.277881        -7.5615
  53   2.0000      -0.244765        -6.6604
  54   2.0000      -0.230181        -6.2635
  55   2.0000      -0.215264        -5.8576
  56   0.0000      -0.059232        -1.6118
  57   0.0000      -0.055983        -1.5234
  58   0.0000      -0.017968        -0.4889
  59   0.0000       0.001699         0.0462
  60   0.0000       0.032364         0.8807

MULLIKEN ATOMIC CHARGES
-----------------------
   0 C :   -0.526910
   1 C :   -0.268034
   2 C :    0.289019
   3 O :   -0.451326
   4 N :   -0.048744
   5 C :    0.201956
   6 C :   -0.345559
   7 C :   -0.214472
   8 C :    0.115058
   9 C :    0.064983
  10 C :   -0.192668
  11 Cl:   -0.109984
  12 Cl:   -0.117928
  13 H :    0.145146
  14 H :    0.164243
  15 H :    0.166629
  16 H :    0.172025
  17 H :    0.174377
  18 H :    0.256008
  19 H :    0.136209
  20 H :    0.164960
  21 H :    0.225013
Sum of atomic charges:    0.0000000

LOEWDIN ATOMIC CHARGES
----------------------
   0 C :   -0.418147
   1 C :   -0.242642
   2 C :    0.343912
   3 O :   -0.466490
   4 N :   -0.590133
   5 C :    0.158985
   6 C :   -0.136170
   7 C :   -0.155175
   8 C :   -0.192757
   9 C :   -0.170009
  10 C :   -0.121648
  11 Cl:    0.154235
  12 Cl:    0.142888
  13 H :    0.149640
  14 H :    0.162413
  15 H :    0.155347
  16 H :    0.183936
  17 H :    0.183220
  18 H :    0.284561
  19 H :    0.172580
  20 H :    0.182052
  21 H :    0.219400

  Mayer bond orders larger than 0.100000
B(  0-C ,  1-C ) :   0.8671 B(  0-C , 13-H ) :   0.9731 B(  0-C , 14-H ) :   0.9564
B(  0-C , 15-H ) :   0.9859 B(  1-C ,  2-C ) :   0.9660 B(  1-C , 16-H ) :   0.9478
B(  1-C , 17-H ) :   0.9245 B(  2-C ,  3-O ) :   1.7871 B(  2-C ,  4-N ) :   1.1025
B(  4-N ,  5-C ) :   1.0276 B(  4-N , 18-H ) :   0.9049 B(  5-C ,  6-C ) :   1.2620
B(  5-C , 10-C ) :   1.4347 B(  6-C ,  7-C ) :   1.3929 B(  6-C , 19-H ) :   0.9442
B(  7-C ,  8-C ) :   1.3607 B(  7-C , 20-H ) :   0.9330 B(  8-C ,  9-C ) :   1.2917
B(  8-C , 12-Cl) :   1.0340 B(  9-C , 10-C ) :   1.1569 B(  9-C , 11-Cl) :   1.0875
B( 10-C , 21-H ) :   0.9193

Dispersion correction           -0.009124241
FINAL SINGLE POINT ENERGY     -1398.617600876587

DIPOLE MOMENT
-------------

Method             : SCF
Type of density    : Electron Density
Multiplicity       :   1
Irrep              :   0
Energy             : -1398.6218822393329901 Eh
Relativity type    :
Basis              : AO
                                X                 Y                 Z
Electronic contribution:    -32.238344602      -7.704575286       0.867363562
Nuclear contribution   :     33.802588806       9.420723721      -1.030291081
                        -----------------------------------------
Total Dipole Moment    :      1.564244205       1.716148435      -0.162927519
                        -----------------------------------------
Magnitude (a.u.)       :      2.327782369
Magnitude (Debye)      :      5.916752571

Rotational constants in cm-1:             0.046069             0.009700             0.008042
Rotational constants in MHz :          1381.107655           290.792346           241.084672

                             ****ORCA TERMINATED NORMALLY****
TOTAL RUN TIME: 0 days 0 hours 0 minutes 46 seconds 696 msec
