                         Program Version 6.0.0  -   RELEASE  -
|  1> ! r2scan-3c def2/J RI DEFGRID2 scfconv6 printgap
|  2> %output
|  3>     printlevel normal
|  4> end
|  5> %cpcm
|  6>     smd true
|  7>     smdsolvent "water"
|  8> end
|  9> * xyz 0 1
| 10> C 4.951140413 1.2048386065 0.0133547782
| 11> C 4.5334476415 -0.2546991036 -0.1167591929
| 12> C 3.0533184904 -0.5719549446 -0.0459992283
| 13> O 2.671693791 -1.7315674027 0.0495213969
| 14> N 2.2196232954 0.4972590977 -0.1104952591
| 15> C 0.8294132415 0.5344512069 -0.0794658918
| 16> C 0.2045726835 1.7812352241 -0.162022945
| 17> C -1.170845752 1.8812099806 -0.1355550021
| 18> C -1.9493947945 0.7385572661 -0.0259389174
| 19> C -1.3331897432 -0.5033098787 0.0565947332
| 20> C 0.0457141241 -0.6117433833 0.0304651683
| 21> Cl -2.2892113289 -1.9436461161 0.1944294057
| 22> Cl -3.6781417309 0.8639431103 0.0075330224
| 23> H 4.6133174874 1.79609732 -0.8342947621
| 24> H 6.0367294805 1.2572218029 0.0333716307
| 25> H 4.5819988985 1.6386221177 0.9393583196
| 26> H 5.0070783702 -0.8544647188 0.6635683723
| 27> H 4.8845358795 -0.6613315972 -1.0688983734
| 28> H 2.6592390281 1.4057603126 -0.1913295836
| 29> H 0.7967567706 2.678052695 -0.2471153318
| 30> H -1.653392083 2.8420776395 -0.1992129367
| 31> H 0.5115287928 -1.5807665534 0.0951706887
| 32> *
| 33>
| 34>                          ****END OF INPUT****

CARTESIAN COORDINATES (ANGSTROEM)
---------------------------------
  C      4.951140    1.204839    0.013355
  C      4.533448   -0.254699   -0.116759
  C      3.053318   -0.571955   -0.045999
  O      2.671694   -1.731567    0.049521
  N      2.219623    0.497259   -0.110495
  C      0.829413    0.534451   -0.079466
  C      0.204573    1.781235   -0.162023
  C     -1.170846    1.881210   -0.135555
  C     -1.949395    0.738557   -0.025939
  C     -1.333190   -0.503310    0.056595
  C      0.045714   -0.611743    0.030465
  Cl    -2.289211   -1.943646    0.194429
  Cl    -3.678142    0.863943    0.007533
  H      4.613317    1.796097   -0.834295
  H      6.036729    1.257222    0.033372
  H      4.581999    1.638622    0.939358
  H      5.007078   -0.854465    0.663568
  H      4.884536   -0.661332   -1.068898
  H      2.659239    1.405760   -0.191330
  H      0.796757    2.678053   -0.247115
  H     -1.653392    2.842078   -0.199213
  H      0.511529   -1.580767    0.095171

 Total Charge           Charge          ....    0
 Multiplicity           Mult            ....    1
 Number of Electrons    NEL             ....  112
 Basis Dimension        Dim             ....  318

ORBITAL ENERGIES
----------------

  NO   OCC          E(Eh)            E(eV)
   0   2.0000    -101.230814     -2754.6305
   1   2.0000    -101.229229     -2754.5874
   2   2.0000     -18.932490      -515.1792
   3   2.0000     -14.210632      -386.6909
   4   2.0000     -10.145429      -276.0712
   5   2.0000     -10.114916      -275.2409
   6   2.0000     -10.109190      -275.0851
   7   2.0000     -10.100202      -274.8405
   8   2.0000     -10.056736      -273.6577
   9   2.0000     -10.051351      -273.5112
  10   2.0000     -10.050384      -273.4849
  11   2.0000     -10.037522      -273.1349
  12   2.0000     -10.020996      -272.6852
  13   2.0000      -9.386685      -255.4247
  14   2.0000      -9.385102      -255.3816
  15   2.0000      -7.133001      -194.0988
  16   2.0000      -7.131393      -194.0551
  17   2.0000      -7.123028      -193.8274
  18   2.0000      -7.122302      -193.8077
  19   2.0000      -7.121413      -193.7835
  20   2.0000      -7.120768      -193.7659
  21   2.0000      -1.020706       -27.7748
  22   2.0000      -0.925620       -25.1874
  23   2.0000      -0.887176       -24.1413
  24   2.0000      -0.829058       -22.5598
  25   2.0000      -0.809820       -22.0363
  26   2.0000      -0.750735       -20.4285
  27   2.0000      -0.724392       -19.7117
  28   2.0000      -0.704105       -19.1597
  29   2.0000      -0.630603       -17.1596
  30   2.0000      -0.608081       -16.5467
  31   2.0000      -0.588358       -16.0100
  32   2.0000      -0.553307       -15.0563
  33   2.0000      -0.516275       -14.0486
  34   2.0000      -0.472187       -12.8489
  35   2.0000      -0.461488       -12.5577
  36   2.0000      -0.444433       -12.0936
  37   2.0000      -0.440771       -11.9940
  38   2.0000      -0.427934       -11.6447
  39   2.0000      -0.409568       -11.1449
  40   2.0000      -0.406101       -11.0506
  41   2.0000      -0.397415       -10.8142
  42   2.0000      -0.382437       -10.4066
  43   2.0000      -0.373489       -10.1632
  44   2.0000      -0.359846        -9.7919
  45   2.0000      -0.348439        -9.4815
  46   2.0000      -0.341059        -9.2807
  47   2.0000      -0.330467        -8.9925
  48   2.0000      -0.329143        -8.9564
  49   2.0000      -0.309590        -8.4244
  50   2.0000      -0.306374        -8.3369
  51   2.0000      -0.284678        -7.7465
  52   2.0000      -0.279890        -7.6162
  53   2.0000      -0.245146        -6.6708
  54   2.0000      -0.235909        -6.4194
  55   2.0000      -0.213643        -5.8135
  56   0.0000      -0.057316        -1.5597
  57   0.0000      -0.052660        -1.4329
  58   0.0000      -0.021039        -0.5725
  59   0.0000       0.005676         0.1545
  60   0.0000       0.037944         1.0325

MULLIKEN ATOMIC CHARGES
-----------------------
   0 C :   -0.553677
   1 C :   -0.278720
   2 C :    0.320229
   3 O :   -0.550794
   4 N :   -0.062473
   5 C :    0.179494
   6 C :   -0.345774
   7 C :   -0.219230
   8 C :    0.111493
   9 C :    0.055785
  10 C :   -0.222632
  11 Cl:   -0.135524
  12 Cl:   -0.138560
  13 H :    0.168762
  14 H :    0.174036
  15 H :    0.178379
  16 H :    0.181590
  17 H :    0.191430
  18 H :    0.326377
  19 H :    0.190213
  20 H :    0.200932
  21 H :    0.228664
Sum of atomic charges:    0.0000000

LOEWDIN ATOMIC CHARGES
----------------------
   0 C :   -0.416819
   1 C :   -0.239376
   2 C :    0.350610
   3 O :   -0.543993
   4 N :   -0.558947
   5 C :    0.159066
   6 C :   -0.115909
   7 C :   -0.152019
   8 C :   -0.201382
   9 C :   -0.179722
  10 C :   -0.136151
  11 Cl:    0.134113
  12 Cl:    0.126509
  13 H :    0.159887
  14 H :    0.164933
  15 H :    0.161659
  16 H :    0.186801
  17 H :    0.190216
  18 H :    0.303833
  19 H :    0.195185
  20 H :    0.195150
  21 H :    0.216355

  Mayer bond orders larger than 0.100000
B(  0-C ,  1-C ) :   0.8817 B(  0-C , 13-H ) :   0.9673 B(  0-C , 14-H ) :   0.9549
B(  0-C , 15-H ) :   0.9802 B(  1-C ,  2-C ) :   0.9626 B(  1-C , 16-H ) :   0.9502
B(  1-C , 17-H ) :   0.9162 B(  2-C ,  3-O ) :   1.7056 B(  2-C ,  4-N ) :   1.1401
B(  4-N ,  5-C ) :   1.0129 B(  4-N , 18-H ) :   0.8825 B(  5-C ,  6-C ) :   1.2806
B(  5-C , 10-C ) :   1.4073 B(  6-C ,  7-C ) :   1.3811 B(  6-C , 19-H ) :   0.9568
B(  7-C ,  8-C ) :   1.3147 B(  7-C , 20-H ) :   0.9376 B(  8-C ,  9-C ) :   1.2771
B(  8-C , 12-Cl) :   1.0194 B(  9-C , 10-C ) :   1.1605 B(  9-C , 11-Cl) :   1.0599
B( 10-C , 21-H ) :   0.9172

Dispersion correction           -0.009124241
FINAL SINGLE POINT ENERGY     -1398.631308001596

DIPOLE MOMENT
-------------

Method             : SCF
Type of density    : Electron Density
Multiplicity       :   1
Irrep              :   0
Energy             : -1398.6355893643421950 Eh
Relativity type    :
Basis              : AO
                                X                 Y                 Z
Electronic contribution:    -31.721143568      -6.678011274       0.764460108
Nuclear contribution   :     33.802588806       9.420723721      -1.030291081
                        -----------------------------------------
Total Dipole Moment    :      2.081445238       2.742712447      -0.265830972
                        -----------------------------------------
Magnitude (a.u.)       :      3.453339247
Magnitude (Debye)      :      8.777690791

Rotational constants in cm-1:             0.046069             0.009700             0.008042
Rotational constants in MHz :          1381.107655           290.792346           241.084672

                             ****ORCA TERMINATED NORMALLY****
TOTAL RUN TIME: 0 days 0 hours 1 minutes 5 seconds 228 msec
