                         Program Version 6.0.0  -   RELEASE  -
|  1> ! pbe def2-sv(p) def2/J RI DEFGRID1 loosescf d4 GCP(DFT/SV(P)) printgap
|  2> %output
|  3>     printlevel normal
|  4> end
|  5> * xyz 0 1
|  6> C -2.667267556 -1.2404917792 0.2244014103
|  7> C -2.4948768258 0.2697941316 0.1171394863
|  8> C -1.1876404423 0.7076470673 -0.5470400666
|  9> C 0.0761022408 0.4134892482 0.2664599078
| 10> C 0.6320525128 -1.0201973222 0.110207824
| 11> C 2.1220271044 -0.8777338241 -0.236325906
| 12> C 2.4866389404 0.5324496082 0.2193990295
| 13> C 1.2401916986 1.3271486736 -0.1489472302
| 14> H -1.9177523234 -1.6723722568 0.8806139818
| 15> H -3.6498336952 -1.4762094938 0.627252652
| 16> H -2.5800449204 -1.7050612078 -0.7552478755
| 17> H -3.3248527534 0.6750207362 -0.4672022067
| 18> H -2.5518466756 0.7104889216 1.1152651851
| 19> H -1.104205849 0.2412729249 -1.5313075192
| 20> H -1.2432524925 1.7888076371 -0.700743838
| 21> H -0.1459624755 0.5975062168 1.3223662029
| 22> H 0.5139036776 -1.5774064358 1.0396620153
| 23> H 0.1053952286 -1.5641636709 -0.6720618746
| 24> H 2.731024855 -1.6429487794 0.242942656
| 25> H 2.2655215421 -0.9573036772 -1.3148904729
| 26> H 2.6365454681 0.5524055475 1.3001357084
| 27> H 3.387063176 0.9101878148 -0.2628706899
| 28> H 1.1945471712 2.2984658692 0.3418696575
| 29> H 1.2142475566 1.4853610453 -1.2288768462
| 30> *
| 31>
| 32>                          ****END OF INPUT****

CARTESIAN COORDINATES (ANGSTROEM)
---------------------------------
  C     -2.667268   -1.240492    0.224401
  C     -2.494877    0.269794    0.117139
  C     -1.187640    0.707647   -0.547040
  C      0.076102    0.413489    0.266460
  C      0.632053   -1.020197    0.110208
  C      2.122027   -0.877734   -0.236326
  C      2.486639    0.532450    0.219399
  C      1.240192    1.327149   -0.148947
  H     -1.917752   -1.672372    0.880614
  H     -3.649834   -1.476209    0.627253
  H     -2.580045   -1.705061   -0.755248
  H     -3.324853    0.675021   -0.467202
  H     -2.551847    0.710489    1.115265
  H     -1.104206    0.241273   -1.531308
  H     -1.243252    1.788808   -0.700744
  H     -0.145962    0.597506    1.322366
  H      0.513904   -1.577406    1.039662
  H      0.105395   -1.564164   -0.672062
  H      2.731025   -1.642949    0.242943
  H      2.265522   -0.957304   -1.314890
  H      2.636545    0.552406    1.300136
  H      3.387063    0.910188   -0.262871
  H      1.194547    2.298466    0.341870
  H      1.214248    1.485361   -1.228877

 Total Charge           Charge          ....    0
 Multiplicity           Mult            ....    1
 Number of Electrons    NEL             ....   64
 Basis Dimension        Dim             ....  144

ORBITAL ENERGIES
----------------

  NO   OCC          E(Eh)            E(eV)
   0   2.0000      -9.883809      -268.9521
   1   2.0000      -9.878508      -268.8079
   2   2.0000      -9.876325      -268.7485
   3   2.0000      -9.875199      -268.7178
   4   2.0000      -9.874951      -268.7111
   5   2.0000      -9.873982      -268.6847
   6   2.0000      -9.873134      -268.6616
   7   2.0000      -9.868012      -268.5223
   8   2.0000      -0.758419       -20.6376
   9   2.0000      -0.703611       -19.1462
  10   2.0000      -0.643413       -17.5082
  11   2.0000      -0.629059       -17.1176
  12   2.0000      -0.585356       -15.9283
  13   2.0000      -0.513467       -13.9721
  14   2.0000      -0.503991       -13.7143
  15   2.0000      -0.484223       -13.1764
  16   2.0000      -0.433843       -11.8055
  17   2.0000      -0.421399       -11.4669
  18   2.0000      -0.390334       -10.6215
  19   2.0000      -0.382725       -10.4145
  20   2.0000      -0.369877       -10.0649
  21   2.0000      -0.366098        -9.9620
  22   2.0000      -0.337322        -9.1790
  23   2.0000      -0.317526        -8.6403
  24   2.0000      -0.306729        -8.3465
  25   2.0000      -0.289810        -7.8861
  26   2.0000      -0.288226        -7.8430
  27   2.0000      -0.287038        -7.8107
  28   2.0000      -0.279533        -7.6065
  29   2.0000      -0.269134        -7.3235
  30   2.0000      -0.262850        -7.1525
  31   2.0000      -0.259787        -7.0692
  32   0.0000       0.031459         0.8561
  33   0.0000       0.042831         1.1655
  34   0.0000       0.050534         1.3751
  35   0.0000       0.070434         1.9166
  36   0.0000       0.089293         2.4298

MULLIKEN ATOMIC CHARGES
-----------------------
   0 C :   -0.285302
   1 C :   -0.172911
   2 C :   -0.111117
   3 C :   -0.207814
   4 C :   -0.123931
   5 C :   -0.151008
   6 C :   -0.152221
   7 C :   -0.118152
   8 H :    0.112893
   9 H :    0.100689
  10 H :    0.096109
  11 H :    0.081337
  12 H :    0.080970
  13 H :    0.073434
  14 H :    0.076885
  15 H :    0.059489
  16 H :    0.082098
  17 H :    0.079363
  18 H :    0.082349
  19 H :    0.075405
  20 H :    0.077936
  21 H :    0.086264
  22 H :    0.083916
  23 H :    0.073319
Sum of atomic charges:    0.0000000

LOEWDIN ATOMIC CHARGES
----------------------
   0 C :   -0.343988
   1 C :   -0.231805
   2 C :   -0.217465
   3 C :   -0.145076
   4 C :   -0.226274
   5 C :   -0.228066
   6 C :   -0.228682
   7 C :   -0.219906
   8 H :    0.118306
   9 H :    0.117974
  10 H :    0.115802
  11 H :    0.113906
  12 H :    0.113015
  13 H :    0.111567
  14 H :    0.114644
  15 H :    0.113784
  16 H :    0.116612
  17 H :    0.115972
  18 H :    0.115324
  19 H :    0.115339
  20 H :    0.114443
  21 H :    0.114888
  22 H :    0.115256
  23 H :    0.114431

  Mayer bond orders larger than 0.100000
B(  0-C ,  1-C ) :   1.1675 B(  0-C ,  8-H ) :   0.9427 B(  0-C ,  9-H ) :   0.9508
B(  0-C , 10-H ) :   0.9517 B(  1-C ,  2-C ) :   1.1328 B(  1-C , 11-H ) :   0.9247
B(  1-C , 12-H ) :   0.9236 B(  2-C ,  3-C ) :   1.0795 B(  2-C , 13-H ) :   0.9104
B(  2-C , 14-H ) :   0.9153 B(  3-C ,  4-C ) :   1.1157 B(  3-C ,  7-C ) :   1.1236
B(  3-C , 15-H ) :   0.8944 B(  4-C ,  5-C ) :   1.1576 B(  4-C , 16-H ) :   0.9117
B(  4-C , 17-H ) :   0.9122 B(  5-C ,  6-C ) :   1.1414 B(  5-C , 18-H ) :   0.9239
B(  5-C , 19-H ) :   0.9170 B(  6-C ,  7-C ) :   1.1151 B(  6-C , 20-H ) :   0.9191
B(  6-C , 21-H ) :   0.9281 B(  7-C , 22-H ) :   0.9200 B(  7-C , 23-H ) :   0.9120

Dispersion correction           -0.021048757
FINAL SINGLE POINT ENERGY      -313.691741089712

DIPOLE MOMENT
-------------

Method             : SCF
Type of density    : Electron Density
Multiplicity       :   1
Irrep              :   0
Energy             :  -313.7727554394231788 Eh
Relativity type    :
Basis              : AO
                                X                 Y                 Z
Electronic contribution:      2.314040932       1.275851661       0.086859952
Nuclear contribution   :     -2.316795981      -1.253337795      -0.059191768
                        -----------------------------------------
Total Dipole Moment    :     -0.002755048       0.022513866       0.027668184
                        -----------------------------------------
Magnitude (a.u.)       :      0.035776988
Magnitude (Debye)      :      0.090937877

Rotational constants in cm-1:             0.139376             0.038973             0.032922
Rotational constants in MHz :          4178.384412          1168.374926           986.991088

                             ****ORCA TERMINATED NORMALLY****
TOTAL RUN TIME: 0 days 0 hours 0 minutes 11 seconds 278 msec
