                         Program Version 6.0.0  -   RELEASE  -
|  1> ! pbe def2-sv(p) def2/J RI DEFGRID1 loosescf d4 GCP(DFT/SV(P)) printgap
|  2> %output
|  3>     printlevel normal
|  4> end
|  5> * xyz 0 1
|  6> C -0.993179897 -0.5789336198 -0.1972791945
|  7> C 0.0234508251 0.2771809113 0.561809566
|  8> C 1.393563163 -0.4048088886 0.6170493382
|  9> O 1.717634868 -0.9381429204 -0.6471684001
| 10> O 0.1744858636 1.5415058613 -0.0444361264
| 11> O -2.2406493934 0.0816889336 -0.1333293471
| 12> H -1.0448503915 -1.5686790016 0.2705392052
| 13> H -0.6541231485 -0.6850824064 -1.2335325425
| 14> H -0.3375962744 0.4136916142 1.5943906627
| 15> H 1.3594986805 -1.2035513143 1.3697310732
| 16> H 2.1224171015 0.3535270618 0.9228174559
| 17> H 2.6442605342 -1.2145068552 -0.6464579253
| 18> H -0.7111628646 1.8759831677 -0.2508261862
| 19> H -2.8965781572 -0.4259884457 -0.6288053528
| 20> *
| 21>
| 22>                          ****END OF INPUT****

CARTESIAN COORDINATES (ANGSTROEM)
---------------------------------
  C     -0.993180   -0.578934   -0.197279
  C      0.023451    0.277181    0.561810
  C      1.393563   -0.404809    0.617049
  O      1.717635   -0.938143   -0.647168
  O      0.174486    1.541506   -0.044436
  O     -2.240649    0.081689   -0.133329
  H     -1.044850   -1.568679    0.270539
  H     -0.654123   -0.685082   -1.233533
  H     -0.337596    0.413692    1.594391
  H      1.359499   -1.203551    1.369731
  H      2.122417    0.353527    0.922817
  H      2.644261   -1.214507   -0.646458
  H     -0.711163    1.875983   -0.250826
  H     -2.896578   -0.425988   -0.628805

 Total Charge           Charge          ....    0
 Multiplicity           Mult            ....    1
 Number of Electrons    NEL             ....   50
 Basis Dimension        Dim             ....  100

ORBITAL ENERGIES
----------------

  NO   OCC          E(Eh)            E(eV)
   0   2.0000     -18.750537      -510.2281
   1   2.0000     -18.743847      -510.0460
   2   2.0000     -18.730801      -509.6910
   3   2.0000      -9.931656      -270.2541
   4   2.0000      -9.928804      -270.1765
   5   2.0000      -9.923987      -270.0454
   6   2.0000      -0.932404       -25.3720
   7   2.0000      -0.919565       -25.0226
   8   2.0000      -0.900864       -24.5138
   9   2.0000      -0.678049       -18.4506
  10   2.0000      -0.602518       -16.3953
  11   2.0000      -0.518481       -14.1086
  12   2.0000      -0.479374       -13.0444
  13   2.0000      -0.458389       -12.4734
  14   2.0000      -0.449228       -12.2241
  15   2.0000      -0.398687       -10.8488
  16   2.0000      -0.372472       -10.1355
  17   2.0000      -0.359497        -9.7824
  18   2.0000      -0.355106        -9.6629
  19   2.0000      -0.299062        -8.1379
  20   2.0000      -0.288613        -7.8536
  21   2.0000      -0.259140        -7.0516
  22   2.0000      -0.219744        -5.9795
  23   2.0000      -0.215400        -5.8613
  24   2.0000      -0.203283        -5.5316
  25   0.0000       0.023833         0.6485
  26   0.0000       0.027303         0.7429
  27   0.0000       0.064367         1.7515
  28   0.0000       0.084058         2.2873
  29   0.0000       0.103311         2.8112

MULLIKEN ATOMIC CHARGES
-----------------------
   0 C :   -0.007507
   1 C :    0.023650
   2 C :    0.026096
   3 O :   -0.437424
   4 O :   -0.436660
   5 O :   -0.444328
   6 H :    0.064815
   7 H :    0.092588
   8 H :    0.061328
   9 H :    0.066027
  10 H :    0.085525
  11 H :    0.300869
  12 H :    0.300086
  13 H :    0.304934
Sum of atomic charges:   -0.0000000

LOEWDIN ATOMIC CHARGES
----------------------
   0 C :   -0.142507
   1 C :   -0.075002
   2 C :   -0.123547
   3 O :   -0.342747
   4 O :   -0.331819
   5 O :   -0.350827
   6 H :    0.098702
   7 H :    0.106918
   8 H :    0.101475
   9 H :    0.094867
  10 H :    0.106664
  11 H :    0.287345
  12 H :    0.281482
  13 H :    0.288997

  Mayer bond orders larger than 0.100000
B(  0-C ,  1-C ) :   1.0763 B(  0-C ,  5-O ) :   1.0728 B(  0-C ,  6-H ) :   0.9153
B(  0-C ,  7-H ) :   0.9013 B(  1-C ,  2-C ) :   1.0596 B(  1-C ,  4-O ) :   1.0672
B(  1-C ,  8-H ) :   0.8939 B(  2-C ,  3-O ) :   1.0812 B(  2-C ,  9-H ) :   0.9129
B(  2-C , 10-H ) :   0.9189 B(  3-O , 11-H ) :   0.8511 B(  4-O , 12-H ) :   0.8387
B(  5-O , 13-H ) :   0.8509

Dispersion correction           -0.009132489
FINAL SINGLE POINT ENERGY      -344.006515304548

DIPOLE MOMENT
-------------

Method             : SCF
Type of density    : Electron Density
Multiplicity       :   1
Irrep              :   0
Energy             :  -344.0796601681726088 Eh
Relativity type    :
Basis              : AO
                                X                 Y                 Z
Electronic contribution:     -0.528957299       1.554401261      -1.229322126
Nuclear contribution   :      0.446897249      -2.292672232       1.299180281
                        -----------------------------------------
Total Dipole Moment    :     -0.082060050      -0.738270971       0.069858154
                        -----------------------------------------
Magnitude (a.u.)       :      0.746095195
Magnitude (Debye)      :      1.896423274

Rotational constants in cm-1:             0.193706             0.078644             0.065204
Rotational constants in MHz :          5807.164432          2357.693714          1954.753787

                             ****ORCA TERMINATED NORMALLY****
TOTAL RUN TIME: 0 days 0 hours 0 minutes 6 seconds 842 msec
