                         Program Version 6.0.0  -   RELEASE  -
|  1> ! r2scan-3c def2/J RI DEFGRID2 scfconv6 printgap
|  2> %output
|  3>     printlevel normal
|  4> end
|  5> * xyz 0 1
|  6> C -2.1856180902 -0.2408377288 -1.1990142576
|  7> C -2.2041913975 0.3217529672 0.2173571848
|  8> C -1.2190320531 -0.3332030254 1.190363305
|  9> C 0.2837408347 -0.1918891371 0.9037286791
| 10> C 0.8519309825 -1.1991806781 -0.122716075
| 11> C 1.8154897444 -0.4055797695 -1.0181888475
| 12> C 2.0950973758 0.8803870445 -0.2416829458
| 13> C 0.7462541041 1.1815239621 0.4026390322
| 14> H -2.9861636375 0.2060057218 -1.7852937844
| 15> H -1.2442531966 -0.0262150248 -1.6961760229
| 16> H -2.3368118407 -1.3182099137 -1.1844477641
| 17> H -2.0250577194 1.3977893413 0.1839855639
| 18> H -3.2060166503 0.1791322391 0.6316116107
| 19> H -1.4120009968 0.102025998 2.1748265721
| 20> H -1.4483378698 -1.3995768392 1.2600269056
| 21> H 0.7935371014 -0.3765052068 1.8565079578
| 22> H 1.3814734995 -1.9984465386 0.3967947048
| 23> H 0.0623826328 -1.6626064905 -0.7088238831
| 24> H 2.7251041703 -0.9619673757 -1.2399687943
| 25> H 1.3340184995 -0.1590217234 -1.9660828616
| 26> H 2.8454622803 0.6979459166 0.529560174
| 27> H 2.4473188902 1.6878941408 -0.8823372241
| 28> H 0.8127829996 1.9114595504 1.2085265611
| 29> H 0.0677748617 1.5656912536 -0.3575273076
| 30> *
| 31>
| 32>                          ****END OF INPUT****

CARTESIAN COORDINATES (ANGSTROEM)
---------------------------------
  C     -2.185618   -0.240838   -1.199014
  C     -2.204191    0.321753    0.217357
  C     -1.219032   -0.333203    1.190363
  C      0.283741   -0.191889    0.903729
  C      0.851931   -1.199181   -0.122716
  C      1.815490   -0.405580   -1.018189
  C      2.095097    0.880387   -0.241683
  C      0.746254    1.181524    0.402639
  H     -2.986164    0.206006   -1.785294
  H     -1.244253   -0.026215   -1.696176
  H     -2.336812   -1.318210   -1.184448
  H     -2.025058    1.397789    0.183986
  H     -3.206017    0.179132    0.631612
  H     -1.412001    0.102026    2.174827
  H     -1.448338   -1.399577    1.260027
  H      0.793537   -0.376505    1.856508
  H      1.381473   -1.998447    0.396795
  H      0.062383   -1.662606   -0.708824
  H      2.725104   -0.961967   -1.239969
  H      1.334018   -0.159022   -1.966083
  H      2.845462    0.697946    0.529560
  H      2.447319    1.687894   -0.882337
  H      0.812783    1.911460    1.208527
  H      0.067775    1.565691   -0.357527

 Total Charge           Charge          ....    0
 Multiplicity           Mult            ....    1
 Number of Electrons    NEL             ....   64
 Basis Dimension        Dim             ....  232

ORBITAL ENERGIES
----------------

  NO   OCC          E(Eh)            E(eV)
   0   2.0000     -10.024745      -272.7872
   1   2.0000     -10.021714      -272.7047
   2   2.0000     -10.018755      -272.6242
   3   2.0000     -10.018243      -272.6102
   4   2.0000     -10.017777      -272.5976
   5   2.0000     -10.016356      -272.5589
   6   2.0000     -10.014238      -272.5013
   7   2.0000     -10.013815      -272.4898
   8   2.0000      -0.804347       -21.8874
   9   2.0000      -0.747351       -20.3365
  10   2.0000      -0.686080       -18.6692
  11   2.0000      -0.670772       -18.2526
  12   2.0000      -0.625113       -17.0102
  13   2.0000      -0.556022       -15.1301
  14   2.0000      -0.530454       -14.4344
  15   2.0000      -0.502281       -13.6678
  16   2.0000      -0.452177       -12.3043
  17   2.0000      -0.435154       -11.8412
  18   2.0000      -0.412331       -11.2201
  19   2.0000      -0.404219       -10.9994
  20   2.0000      -0.382905       -10.4194
  21   2.0000      -0.366789        -9.9808
  22   2.0000      -0.363997        -9.9049
  23   2.0000      -0.326615        -8.8876
  24   2.0000      -0.315641        -8.5890
  25   2.0000      -0.309529        -8.4227
  26   2.0000      -0.301070        -8.1925
  27   2.0000      -0.298728        -8.1288
  28   2.0000      -0.287857        -7.8330
  29   2.0000      -0.276144        -7.5143
  30   2.0000      -0.272991        -7.4285
  31   2.0000      -0.262581        -7.1452
  32   0.0000       0.073160         1.9908
  33   0.0000       0.091617         2.4930
  34   0.0000       0.101192         2.7536
  35   0.0000       0.119346         3.2476
  36   0.0000       0.127751         3.4763

MULLIKEN ATOMIC CHARGES
-----------------------
   0 C :   -0.488519
   1 C :   -0.257565
   2 C :   -0.316656
   3 C :   -0.008560
   4 C :   -0.408926
   5 C :   -0.300238
   6 C :   -0.264340
   7 C :   -0.365580
   8 H :    0.144931
   9 H :    0.150499
  10 H :    0.147131
  11 H :    0.145373
  12 H :    0.141044
  13 H :    0.140249
  14 H :    0.152240
  15 H :    0.155908
  16 H :    0.153504
  17 H :    0.168532
  18 H :    0.149213
  19 H :    0.151250
  20 H :    0.147306
  21 H :    0.150044
  22 H :    0.154333
  23 H :    0.158829
Sum of atomic charges:    0.0000000

LOEWDIN ATOMIC CHARGES
----------------------
   0 C :   -0.429531
   1 C :   -0.317269
   2 C :   -0.299148
   3 C :   -0.224642
   4 C :   -0.305053
   5 C :   -0.305754
   6 C :   -0.301145
   7 C :   -0.297031
   8 H :    0.149992
   9 H :    0.149683
  10 H :    0.149686
  11 H :    0.150772
  12 H :    0.152605
  13 H :    0.157091
  14 H :    0.157972
  15 H :    0.161056
  16 H :    0.156284
  17 H :    0.160318
  18 H :    0.155167
  19 H :    0.153116
  20 H :    0.155222
  21 H :    0.154320
  22 H :    0.157964
  23 H :    0.158326

  Mayer bond orders larger than 0.100000
B(  0-C ,  1-C ) :   0.8785 B(  0-C ,  8-H ) :   0.9670 B(  0-C ,  9-H ) :   0.9808
B(  0-C , 10-H ) :   0.9817 B(  1-C ,  2-C ) :   0.9086 B(  1-C , 11-H ) :   0.9855
B(  1-C , 12-H ) :   0.9611 B(  2-C ,  3-C ) :   0.8537 B(  2-C , 13-H ) :   0.9703
B(  2-C , 14-H ) :   1.0020 B(  3-C ,  4-C ) :   0.9354 B(  3-C ,  7-C ) :   0.9186
B(  3-C , 15-H ) :   0.9639 B(  4-C ,  5-C ) :   0.9240 B(  4-C , 16-H ) :   0.9625
B(  4-C , 17-H ) :   0.9889 B(  5-C ,  6-C ) :   0.9149 B(  5-C , 18-H ) :   0.9531
B(  5-C , 19-H ) :   0.9973 B(  6-C ,  7-C ) :   0.8801 B(  6-C , 20-H ) :   0.9887
B(  6-C , 21-H ) :   0.9580 B(  7-C , 22-H ) :   0.9528 B(  7-C , 23-H ) :   0.9937

Dispersion correction           -0.007407821
FINAL SINGLE POINT ENERGY      -314.377905951019

DIPOLE MOMENT
-------------

Method             : SCF
Type of density    : Electron Density
Multiplicity       :   1
Irrep              :   0
Energy             :  -314.3809452000806459 Eh
Relativity type    :
Basis              : AO
                                X                 Y                 Z
Electronic contribution:      2.036226323       0.158302574       1.535545657
Nuclear contribution   :     -2.053439043      -0.145044651      -1.481188311
                        -----------------------------------------
Total Dipole Moment    :     -0.017212720       0.013257923       0.054357346
                        -----------------------------------------
Magnitude (a.u.)       :      0.058538631
Magnitude (Debye)      :      0.148793374

Rotational constants in cm-1:             0.107622             0.045373             0.042496
Rotational constants in MHz :          3226.439315          1360.246884          1274.005405

                             ****ORCA TERMINATED NORMALLY****
TOTAL RUN TIME: 0 days 0 hours 0 minutes 25 seconds 825 msec
