                         Program Version 6.0.0  -   RELEASE  -
|  1> ! r2scan-3c def2/J RI DEFGRID2 scfconv6 printgap
|  2> %output
|  3>     printlevel normal
|  4> end
|  5> %cpcm
|  6>     smd true
|  7>     smdsolvent "water"
|  8> end
|  9> * xyz 0 1
| 10> C -2.1856180902 -0.2408377288 -1.1990142576
| 11> C -2.2041913975 0.3217529672 0.2173571848
| 12> C -1.2190320531 -0.3332030254 1.190363305
| 13> C 0.2837408347 -0.1918891371 0.9037286791
| 14> C 0.8519309825 -1.1991806781 -0.122716075
| 15> C 1.8154897444 -0.4055797695 -1.0181888475
| 16> C 2.0950973758 0.8803870445 -0.2416829458
| 17> C 0.7462541041 1.1815239621 0.4026390322
| 18> H -2.9861636375 0.2060057218 -1.7852937844
| 19> H -1.2442531966 -0.0262150248 -1.6961760229
| 20> H -2.3368118407 -1.3182099137 -1.1844477641
| 21> H -2.0250577194 1.3977893413 0.1839855639
| 22> H -3.2060166503 0.1791322391 0.6316116107
| 23> H -1.4120009968 0.102025998 2.1748265721
| 24> H -1.4483378698 -1.3995768392 1.2600269056
| 25> H 0.7935371014 -0.3765052068 1.8565079578
| 26> H 1.3814734995 -1.9984465386 0.3967947048
| 27> H 0.0623826328 -1.6626064905 -0.7088238831
| 28> H 2.7251041703 -0.9619673757 -1.2399687943
| 29> H 1.3340184995 -0.1590217234 -1.9660828616
| 30> H 2.8454622803 0.6979459166 0.529560174
| 31> H 2.4473188902 1.6878941408 -0.8823372241
| 32> H 0.8127829996 1.9114595504 1.2085265611
| 33> H 0.0677748617 1.5656912536 -0.3575273076
| 34> *
| 35>
| 36>                          ****END OF INPUT****

CARTESIAN COORDINATES (ANGSTROEM)
---------------------------------
  C     -2.185618   -0.240838   -1.199014
  C     -2.204191    0.321753    0.217357
  C     -1.219032   -0.333203    1.190363
  C      0.283741   -0.191889    0.903729
  C      0.851931   -1.199181   -0.122716
  C      1.815490   -0.405580   -1.018189
  C      2.095097    0.880387   -0.241683
  C      0.746254    1.181524    0.402639
  H     -2.986164    0.206006   -1.785294
  H     -1.244253   -0.026215   -1.696176
  H     -2.336812   -1.318210   -1.184448
  H     -2.025058    1.397789    0.183986
  H     -3.206017    0.179132    0.631612
  H     -1.412001    0.102026    2.174827
  H     -1.448338   -1.399577    1.260027
  H      0.793537   -0.376505    1.856508
  H      1.381473   -1.998447    0.396795
  H      0.062383   -1.662606   -0.708824
  H      2.725104   -0.961967   -1.239969
  H      1.334018   -0.159022   -1.966083
  H      2.845462    0.697946    0.529560
  H      2.447319    1.687894   -0.882337
  H      0.812783    1.911460    1.208527
  H      0.067775    1.565691   -0.357527

 Total Charge           Charge          ....    0
 Multiplicity           Mult            ....    1
 Number of Electrons    NEL             ....   64
 Basis Dimension        Dim             ....  232

ORBITAL ENERGIES
----------------

  NO   OCC          E(Eh)            E(eV)
   0   2.0000     -10.017502      -272.5901
   1   2.0000     -10.014243      -272.5014
   2   2.0000     -10.011638      -272.4305
   3   2.0000     -10.011536      -272.4277
   4   2.0000     -10.011018      -272.4137
   5   2.0000     -10.008849      -272.3546
   6   2.0000     -10.007388      -272.3149
   7   2.0000     -10.005649      -272.2676
   8   2.0000      -0.797365       -21.6974
   9   2.0000      -0.740191       -20.1416
  10   2.0000      -0.679067       -18.4784
  11   2.0000      -0.664158       -18.0727
  12   2.0000      -0.618212       -16.8224
  13   2.0000      -0.549041       -14.9402
  14   2.0000      -0.523884       -14.2556
  15   2.0000      -0.495312       -13.4781
  16   2.0000      -0.445134       -12.1127
  17   2.0000      -0.428218       -11.6524
  18   2.0000      -0.405082       -11.0228
  19   2.0000      -0.397116       -10.8061
  20   2.0000      -0.375613       -10.2210
  21   2.0000      -0.359451        -9.7811
  22   2.0000      -0.356444        -9.6993
  23   2.0000      -0.319360        -8.6902
  24   2.0000      -0.308289        -8.3890
  25   2.0000      -0.302082        -8.2201
  26   2.0000      -0.294463        -8.0127
  27   2.0000      -0.292386        -7.9562
  28   2.0000      -0.280414        -7.6304
  29   2.0000      -0.268997        -7.3198
  30   2.0000      -0.266119        -7.2415
  31   2.0000      -0.255112        -6.9419
  32   0.0000       0.081708         2.2234
  33   0.0000       0.098704         2.6859
  34   0.0000       0.108130         2.9424
  35   0.0000       0.124968         3.4005
  36   0.0000       0.135047         3.6748

MULLIKEN ATOMIC CHARGES
-----------------------
   0 C :   -0.519720
   1 C :   -0.265793
   2 C :   -0.336070
   3 C :   -0.005097
   4 C :   -0.422765
   5 C :   -0.313785
   6 C :   -0.289540
   7 C :   -0.381920
   8 H :    0.152859
   9 H :    0.161691
  10 H :    0.156564
  11 H :    0.151865
  12 H :    0.147983
  13 H :    0.147444
  14 H :    0.158044
  15 H :    0.163176
  16 H :    0.160583
  17 H :    0.173655
  18 H :    0.156043
  19 H :    0.160437
  20 H :    0.156295
  21 H :    0.157026
  22 H :    0.161348
  23 H :    0.169675
Sum of atomic charges:    0.0000000

LOEWDIN ATOMIC CHARGES
----------------------
   0 C :   -0.436686
   1 C :   -0.319463
   2 C :   -0.302741
   3 C :   -0.224125
   4 C :   -0.308361
   5 C :   -0.310117
   6 C :   -0.305810
   7 C :   -0.300461
   8 H :    0.151286
   9 H :    0.152958
  10 H :    0.152193
  11 H :    0.152507
  12 H :    0.153856
  13 H :    0.158144
  14 H :    0.159420
  15 H :    0.162971
  16 H :    0.157490
  17 H :    0.161494
  18 H :    0.156183
  19 H :    0.155806
  20 H :    0.157115
  21 H :    0.155681
  22 H :    0.159212
  23 H :    0.161448

  Mayer bond orders larger than 0.100000
B(  0-C ,  1-C ) :   0.8730 B(  0-C ,  8-H ) :   0.9654 B(  0-C ,  9-H ) :   0.9788
B(  0-C , 10-H ) :   0.9784 B(  1-C ,  2-C ) :   0.9066 B(  1-C , 11-H ) :   0.9851
B(  1-C , 12-H ) :   0.9619 B(  2-C ,  3-C ) :   0.8502 B(  2-C , 13-H ) :   0.9713
B(  2-C , 14-H ) :   1.0001 B(  3-C ,  4-C ) :   0.9344 B(  3-C ,  7-C ) :   0.9162
B(  3-C , 15-H ) :   0.9641 B(  4-C ,  5-C ) :   0.9194 B(  4-C , 16-H ) :   0.9626
B(  4-C , 17-H ) :   0.9893 B(  5-C ,  6-C ) :   0.9132 B(  5-C , 18-H ) :   0.9529
B(  5-C , 19-H ) :   0.9939 B(  6-C ,  7-C ) :   0.8802 B(  6-C , 20-H ) :   0.9879
B(  6-C , 21-H ) :   0.9564 B(  7-C , 22-H ) :   0.9522 B(  7-C , 23-H ) :   0.9911

Dispersion correction           -0.007407821
FINAL SINGLE POINT ENERGY      -314.375363763561

DIPOLE MOMENT
-------------

Method             : SCF
Type of density    : Electron Density
Multiplicity       :   1
Irrep              :   0
Energy             :  -314.3784030126230391 Eh
Relativity type    :
Basis              : AO
                                X                 Y                 Z
Electronic contribution:      2.027586328       0.164042264       1.538498214
Nuclear contribution   :     -2.053439043      -0.145044651      -1.481188311
                        -----------------------------------------
Total Dipole Moment    :     -0.025852714       0.018997613       0.057309903
                        -----------------------------------------
Magnitude (a.u.)       :      0.065678742
Magnitude (Debye)      :      0.166942094

Rotational constants in cm-1:             0.107622             0.045373             0.042496
Rotational constants in MHz :          3226.439315          1360.246884          1274.005405

                             ****ORCA TERMINATED NORMALLY****
TOTAL RUN TIME: 0 days 0 hours 0 minutes 31 seconds 169 msec
