                         Program Version 6.0.0  -   RELEASE  -
|  1> ! pbe def2-sv(p) def2/J RI DEFGRID1 loosescf d4 GCP(DFT/SV(P)) printgap
|  2> %output
|  3>     printlevel normal
|  4> end
|  5> * xyz 0 1
|  6> C -2.1962945077 1.0143908248 -0.644939202
|  7> C -2.0888798355 -0.2946338785 0.1278746967
|  8> C -0.8229093078 -0.3381156995 0.9886683024
|  9> C 0.4141617648 -0.3882110393 0.1306509107
| 10> O 0.5950779753 -1.1526595187 -0.7937232488
| 11> O 1.3133099925 0.5141103067 0.5108161972
| 12> C 2.5485832106 0.5630229816 -0.2077289303
| 13> H -1.3517251187 1.1250581234 -1.3225821707
| 14> H -3.109994287 1.0334828076 -1.2328009618
| 15> H -2.2044470839 1.8616798591 0.0365621021
| 16> H -2.0635310688 -1.1324089757 -0.5714614184
| 17> H -2.9590004016 -0.4114214032 0.7741655455
| 18> H -0.8297587306 -1.2433054677 1.5988163839
| 19> H -0.758439418 0.5320439216 1.6408650873
| 20> H 3.0268445887 -0.4170268726 -0.1949729746
| 21> H 3.156370863 1.3026516618 0.3034468231
| 22> H 2.3656326178 0.8544006335 -1.2426803777
| 23> *
| 24>
| 25>                          ****END OF INPUT****

CARTESIAN COORDINATES (ANGSTROEM)
---------------------------------
  C     -2.196295    1.014391   -0.644939
  C     -2.088880   -0.294634    0.127875
  C     -0.822909   -0.338116    0.988668
  C      0.414162   -0.388211    0.130651
  O      0.595078   -1.152660   -0.793723
  O      1.313310    0.514110    0.510816
  C      2.548583    0.563023   -0.207729
  H     -1.351725    1.125058   -1.322582
  H     -3.109994    1.033483   -1.232801
  H     -2.204447    1.861680    0.036562
  H     -2.063531   -1.132409   -0.571461
  H     -2.959000   -0.411421    0.774166
  H     -0.829759   -1.243305    1.598816
  H     -0.758439    0.532044    1.640865
  H      3.026845   -0.417027   -0.194973
  H      3.156371    1.302652    0.303447
  H      2.365633    0.854401   -1.242680

 Total Charge           Charge          ....    0
 Multiplicity           Mult            ....    1
 Number of Electrons    NEL             ....   56
 Basis Dimension        Dim             ....  118

ORBITAL ENERGIES
----------------

  NO   OCC          E(Eh)            E(eV)
   0   2.0000     -18.800134      -511.5777
   1   2.0000     -18.732166      -509.7282
   2   2.0000     -10.004524      -272.2369
   3   2.0000      -9.941917      -270.5333
   4   2.0000      -9.896727      -269.3036
   5   2.0000      -9.890494      -269.1340
   6   2.0000      -9.876792      -268.7612
   7   2.0000      -1.005505       -27.3612
   8   2.0000      -0.908851       -24.7311
   9   2.0000      -0.724983       -19.7278
  10   2.0000      -0.671577       -18.2745
  11   2.0000      -0.620172       -16.8757
  12   2.0000      -0.539813       -14.6890
  13   2.0000      -0.499719       -13.5980
  14   2.0000      -0.450641       -12.2626
  15   2.0000      -0.439218       -11.9517
  16   2.0000      -0.420007       -11.4290
  17   2.0000      -0.402978       -10.9656
  18   2.0000      -0.389323       -10.5940
  19   2.0000      -0.361842        -9.8462
  20   2.0000      -0.355514        -9.6740
  21   2.0000      -0.342176        -9.3111
  22   2.0000      -0.311781        -8.4840
  23   2.0000      -0.298371        -8.1191
  24   2.0000      -0.297443        -8.0938
  25   2.0000      -0.293937        -7.9984
  26   2.0000      -0.258455        -7.0329
  27   2.0000      -0.218420        -5.9435
  28   0.0000      -0.020831        -0.5668
  29   0.0000       0.040297         1.0965
  30   0.0000       0.059721         1.6251
  31   0.0000       0.079333         2.1588
  32   0.0000       0.081580         2.2199

MULLIKEN ATOMIC CHARGES
-----------------------
   0 C :   -0.289766
   1 C :   -0.196112
   2 C :   -0.128519
   3 C :    0.084024
   4 O :   -0.212474
   5 O :   -0.236109
   6 C :   -0.110546
   7 H :    0.115429
   8 H :    0.107789
   9 H :    0.098768
  10 H :    0.108343
  11 H :    0.090656
  12 H :    0.114716
  13 H :    0.093986
  14 H :    0.119777
  15 H :    0.121349
  16 H :    0.118688
Sum of atomic charges:    0.0000000

LOEWDIN ATOMIC CHARGES
----------------------
   0 C :   -0.342305
   1 C :   -0.227932
   2 C :   -0.247536
   3 C :    0.034277
   4 O :   -0.171248
   5 O :   -0.073357
   6 C :   -0.204056
   7 H :    0.120335
   8 H :    0.121717
   9 H :    0.117078
  10 H :    0.125043
  11 H :    0.117887
  12 H :    0.143171
  13 H :    0.127254
  14 H :    0.119971
  15 H :    0.120443
  16 H :    0.119256

  Mayer bond orders larger than 0.100000
B(  0-C ,  1-C ) :   1.1546 B(  0-C ,  7-H ) :   0.9499 B(  0-C ,  8-H ) :   0.9523
B(  0-C ,  9-H ) :   0.9537 B(  1-C ,  2-C ) :   1.1127 B(  1-C , 10-H ) :   0.9187
B(  1-C , 11-H ) :   0.9279 B(  2-C ,  3-C ) :   1.0211 B(  2-C , 12-H ) :   0.8911
B(  2-C , 13-H ) :   0.9111 B(  3-C ,  4-O ) :   2.0468 B(  3-C ,  5-O ) :   1.2218
B(  5-O ,  6-C ) :   0.9399 B(  6-C , 14-H ) :   0.9502 B(  6-C , 15-H ) :   0.9594
B(  6-C , 16-H ) :   0.9535

Dispersion correction           -0.012329235
FINAL SINGLE POINT ENERGY      -346.240556864681

DIPOLE MOMENT
-------------

Method             : SCF
Type of density    : Electron Density
Multiplicity       :   1
Irrep              :   0
Energy             :  -346.3051484888342202 Eh
Relativity type    :
Basis              : AO
                                X                 Y                 Z
Electronic contribution:      4.563923156      -2.781989775       0.596199282
Nuclear contribution   :     -4.407405538       3.278953558      -0.201811804
                        -----------------------------------------
Total Dipole Moment    :      0.156517618       0.496963784       0.394387479
                        -----------------------------------------
Magnitude (a.u.)       :      0.653461744
Magnitude (Debye)      :      1.660967753

Rotational constants in cm-1:             0.167295             0.050972             0.048823
Rotational constants in MHz :          5015.374964          1528.098378          1463.673656

                             ****ORCA TERMINATED NORMALLY****
TOTAL RUN TIME: 0 days 0 hours 0 minutes 10 seconds 463 msec
