                         Program Version 6.0.0  -   RELEASE  -
|  1> ! pbe def2-sv(p) def2/J RI DEFGRID1 loosescf d4 GCP(DFT/SV(P)) printgap
|  2> %output
|  3>     printlevel normal
|  4> end
|  5> * xyz 0 1
|  6> C -2.9655168806 0.000408474 0.2398408824
|  7> C -1.6516697986 0.7674955093 0.1708701577
|  8> C -0.4883652834 -0.1270996245 -0.1722339535
|  9> O -0.570663867 -1.2366246653 -0.6560114311
| 10> O 0.6700466581 0.4576426306 0.1107289377
| 11> C 1.878961974 -0.2635167343 -0.1838537371
| 12> C 3.0337998502 0.4499489367 0.492089505
| 13> H -3.1320940873 -0.5381212641 -0.6896096755
| 14> H -2.9396368792 -0.7257975678 1.0481522712
| 15> H -3.7908005166 0.6853369556 0.4073486511
| 16> H -1.4284225619 1.2703783232 1.1118431453
| 17> H -1.7007699736 1.5322339679 -0.6078308538
| 18> H 1.7655185857 -1.2916161082 0.175504925
| 19> H 2.0038000301 -0.2928365882 -1.271199165
| 20> H 2.8826500444 0.4693935633 1.5673613207
| 21> H 3.9581121209 -0.0726497472 0.26950826
| 22> H 3.1014937431 1.4711760629 0.1296341182
| 23> *
| 24>
| 25>                          ****END OF INPUT****

CARTESIAN COORDINATES (ANGSTROEM)
---------------------------------
  C     -2.965517    0.000408    0.239841
  C     -1.651670    0.767496    0.170870
  C     -0.488365   -0.127100   -0.172234
  O     -0.570664   -1.236625   -0.656011
  O      0.670047    0.457643    0.110729
  C      1.878962   -0.263517   -0.183854
  C      3.033800    0.449949    0.492090
  H     -3.132094   -0.538121   -0.689610
  H     -2.939637   -0.725798    1.048152
  H     -3.790801    0.685337    0.407349
  H     -1.428423    1.270378    1.111843
  H     -1.700770    1.532234   -0.607831
  H      1.765519   -1.291616    0.175505
  H      2.003800   -0.292837   -1.271199
  H      2.882650    0.469394    1.567361
  H      3.958112   -0.072650    0.269508
  H      3.101494    1.471176    0.129634

 Total Charge           Charge          ....    0
 Multiplicity           Mult            ....    1
 Number of Electrons    NEL             ....   56
 Basis Dimension        Dim             ....  118

ORBITAL ENERGIES
----------------

  NO   OCC          E(Eh)            E(eV)
   0   2.0000     -18.795657      -511.4558
   1   2.0000     -18.731482      -509.7095
   2   2.0000     -10.004153      -272.2269
   3   2.0000      -9.946370      -270.6545
   4   2.0000      -9.899662      -269.3835
   5   2.0000      -9.889183      -269.0984
   6   2.0000      -9.878073      -268.7960
   7   2.0000      -1.003001       -27.2930
   8   2.0000      -0.907803       -24.7026
   9   2.0000      -0.719331       -19.5740
  10   2.0000      -0.689042       -18.7498
  11   2.0000      -0.604263       -16.4428
  12   2.0000      -0.552111       -15.0237
  13   2.0000      -0.503430       -13.6990
  14   2.0000      -0.448235       -12.1971
  15   2.0000      -0.442743       -12.0477
  16   2.0000      -0.415861       -11.3161
  17   2.0000      -0.400888       -10.9087
  18   2.0000      -0.366142        -9.9632
  19   2.0000      -0.363881        -9.9017
  20   2.0000      -0.358391        -9.7523
  21   2.0000      -0.329874        -8.9763
  22   2.0000      -0.326182        -8.8759
  23   2.0000      -0.319064        -8.6822
  24   2.0000      -0.302244        -8.2245
  25   2.0000      -0.294475        -8.0131
  26   2.0000      -0.255488        -6.9522
  27   2.0000      -0.217242        -5.9115
  28   0.0000      -0.017318        -0.4713
  29   0.0000       0.039281         1.0689
  30   0.0000       0.053543         1.4570
  31   0.0000       0.081410         2.2153
  32   0.0000       0.089725         2.4415

MULLIKEN ATOMIC CHARGES
-----------------------
   0 C :   -0.270341
   1 C :   -0.185878
   2 C :    0.109354
   3 O :   -0.210488
   4 O :   -0.243970
   5 C :   -0.028055
   6 C :   -0.273340
   7 H :    0.117883
   8 H :    0.108595
   9 H :    0.101569
  10 H :    0.107983
  11 H :    0.117816
  12 H :    0.108222
  13 H :    0.102224
  14 H :    0.114008
  15 H :    0.110631
  16 H :    0.113788
Sum of atomic charges:   -0.0000000

LOEWDIN ATOMIC CHARGES
----------------------
   0 C :   -0.336744
   1 C :   -0.259064
   2 C :    0.035634
   3 O :   -0.167212
   4 O :   -0.075674
   5 C :   -0.108438
   6 C :   -0.350763
   7 H :    0.127378
   8 H :    0.123522
   9 H :    0.120325
  10 H :    0.134480
  11 H :    0.142962
  12 H :    0.116749
  13 H :    0.114738
  14 H :    0.126115
  15 H :    0.129941
  16 H :    0.126049

  Mayer bond orders larger than 0.100000
B(  0-C ,  1-C ) :   1.1531 B(  0-C ,  7-H ) :   0.9487 B(  0-C ,  8-H ) :   0.9595
B(  0-C ,  9-H ) :   0.9494 B(  1-C ,  2-C ) :   1.0238 B(  1-C , 10-H ) :   0.9100
B(  1-C , 11-H ) :   0.8976 B(  2-C ,  3-O ) :   2.0550 B(  2-C ,  4-O ) :   1.2092
B(  4-O ,  5-C ) :   0.9139 B(  5-C ,  6-C ) :   1.1520 B(  5-C , 12-H ) :   0.9267
B(  5-C , 13-H ) :   0.9353 B(  6-C , 14-H ) :   0.9515 B(  6-C , 15-H ) :   0.9447
B(  6-C , 16-H ) :   0.9489

Dispersion correction           -0.011518483
FINAL SINGLE POINT ENERGY      -346.245692208749

DIPOLE MOMENT
-------------

Method             : SCF
Type of density    : Electron Density
Multiplicity       :   1
Irrep              :   0
Energy             :  -346.3105217938819465 Eh
Relativity type    :
Basis              : AO
                                X                 Y                 Z
Electronic contribution:     -0.271790849      -1.755810062      -1.754160144
Nuclear contribution   :      0.676813599       2.340902694       2.000262278
                        -----------------------------------------
Total Dipole Moment    :      0.405022751       0.585092632       0.246102134
                        -----------------------------------------
Magnitude (a.u.)       :      0.752956225
Magnitude (Debye)      :      1.913862626

Rotational constants in cm-1:             0.253702             0.042650             0.037955
Rotational constants in MHz :          7605.784512          1278.616391          1137.850643

                             ****ORCA TERMINATED NORMALLY****
TOTAL RUN TIME: 0 days 0 hours 0 minutes 8 seconds 965 msec
