                         Program Version 6.0.0  -   RELEASE  -
|  1> ! r2scan-3c def2/J RI DEFGRID2 scfconv6 printgap
|  2> %output
|  3>     printlevel normal
|  4> end
|  5> %cpcm
|  6>     smd true
|  7>     smdsolvent "water"
|  8> end
|  9> * xyz 0 1
| 10> C 1.8827586908 -0.3214351549 0.8894265879
| 11> C 1.5284763024 0.2411337188 -0.4816383525
| 12> C 0.2497430812 -0.3332804519 -1.099375276
| 13> C -1.0690774075 0.0007964464 -0.3645538205
| 14> H -1.8790531794 -0.0168221636 -1.114607718
| 15> C -1.4332788949 -1.0207770858 0.7106106705
| 16> O -1.0473828708 1.280257412 0.2467412379
| 17> H 1.8661359322 -1.4088711822 0.8768905638
| 18> H 1.1842091213 0.0369796991 1.6404402136
| 19> H 2.8803867681 0.003902282 1.1766538496
| 20> H 1.4392339166 1.3258683155 -0.4014893666
| 21> H 2.3468657594 0.0281120522 -1.1738231405
| 22> H 0.179820037 0.0510856867 -2.1203551413
| 23> H 0.3341431217 -1.4187129355 -1.1633895716
| 24> H -2.3704899337 -0.7274722764 1.1771631685
| 25> H -1.5518935218 -2.0020615489 0.2613933359
| 26> H -0.6690386845 -1.0663669848 1.4777784504
| 27> H -0.9412982041 1.9551181396 -0.4357901152
| 28> *
| 29>
| 30>                          ****END OF INPUT****

CARTESIAN COORDINATES (ANGSTROEM)
---------------------------------
  C      1.882759   -0.321435    0.889427
  C      1.528476    0.241134   -0.481638
  C      0.249743   -0.333280   -1.099375
  C     -1.069077    0.000796   -0.364554
  H     -1.879053   -0.016822   -1.114608
  C     -1.433279   -1.020777    0.710611
  O     -1.047383    1.280257    0.246741
  H      1.866136   -1.408871    0.876891
  H      1.184209    0.036980    1.640440
  H      2.880387    0.003902    1.176654
  H      1.439234    1.325868   -0.401489
  H      2.346866    0.028112   -1.173823
  H      0.179820    0.051086   -2.120355
  H      0.334143   -1.418713   -1.163390
  H     -2.370490   -0.727472    1.177163
  H     -1.551894   -2.002062    0.261393
  H     -0.669039   -1.066367    1.477778
  H     -0.941298    1.955118   -0.435790

 Total Charge           Charge          ....    0
 Multiplicity           Mult            ....    1
 Number of Electrons    NEL             ....   50
 Basis Dimension        Dim             ....  179

ORBITAL ENERGIES
----------------

  NO   OCC          E(Eh)            E(eV)
   0   2.0000     -18.947913      -515.5989
   1   2.0000     -10.074681      -274.1460
   2   2.0000     -10.016331      -272.5582
   3   2.0000     -10.013952      -272.4935
   4   2.0000     -10.008202      -272.3370
   5   2.0000     -10.006038      -272.2781
   6   2.0000      -0.984574       -26.7916
   7   2.0000      -0.752394       -20.4737
   8   2.0000      -0.705093       -19.1866
   9   2.0000      -0.644644       -17.5417
  10   2.0000      -0.567498       -15.4424
  11   2.0000      -0.528404       -14.3786
  12   2.0000      -0.469966       -12.7884
  13   2.0000      -0.432032       -11.7562
  14   2.0000      -0.411134       -11.1875
  15   2.0000      -0.380205       -10.3459
  16   2.0000      -0.374223       -10.1831
  17   2.0000      -0.347184        -9.4473
  18   2.0000      -0.340883        -9.2759
  19   2.0000      -0.337104        -9.1731
  20   2.0000      -0.312846        -8.5130
  21   2.0000      -0.290849        -7.9144
  22   2.0000      -0.289661        -7.8821
  23   2.0000      -0.272217        -7.4074
  24   2.0000      -0.233563        -6.3556
  25   0.0000       0.067753         1.8437
  26   0.0000       0.114356         3.1118
  27   0.0000       0.124390         3.3848
  28   0.0000       0.130925         3.5626
  29   0.0000       0.143302         3.8994

MULLIKEN ATOMIC CHARGES
-----------------------
   0 C :   -0.554673
   1 C :   -0.212223
   2 C :   -0.308819
   3 C :    0.059963
   4 H :    0.140148
   5 C :   -0.540008
   6 O :   -0.507072
   7 H :    0.159054
   8 H :    0.164465
   9 H :    0.153806
  10 H :    0.144865
  11 H :    0.149786
  12 H :    0.160652
  13 H :    0.154982
  14 H :    0.158892
  15 H :    0.168288
  16 H :    0.165585
  17 H :    0.342309
Sum of atomic charges:   -0.0000000

LOEWDIN ATOMIC CHARGES
----------------------
   0 C :   -0.435652
   1 C :   -0.312028
   2 C :   -0.293451
   3 C :    0.051344
   4 H :    0.168675
   5 C :   -0.396910
   6 O :   -0.652879
   7 H :    0.152782
   8 H :    0.152113
   9 H :    0.151838
  10 H :    0.157349
  11 H :    0.154239
  12 H :    0.162337
  13 H :    0.166593
  14 H :    0.160262
  15 H :    0.164588
  16 H :    0.162071
  17 H :    0.286731

  Mayer bond orders larger than 0.100000
B(  0-C ,  1-C ) :   0.8658 B(  0-C ,  7-H ) :   0.9776 B(  0-C ,  8-H ) :   0.9810
B(  0-C ,  9-H ) :   0.9658 B(  1-C ,  2-C ) :   0.8937 B(  1-C , 10-H ) :   0.9900
B(  1-C , 11-H ) :   0.9640 B(  2-C ,  3-C ) :   0.9048 B(  2-C , 12-H ) :   0.9645
B(  2-C , 13-H ) :   0.9783 B(  3-C ,  4-H ) :   0.9519 B(  3-C ,  5-C ) :   0.9398
B(  3-C ,  6-O ) :   0.8860 B(  5-C , 14-H ) :   0.9700 B(  5-C , 15-H ) :   0.9693
B(  5-C , 16-H ) :   0.9678 B(  6-O , 17-H ) :   0.8749

Dispersion correction           -0.004463395
FINAL SINGLE POINT ENERGY      -272.903765432572

DIPOLE MOMENT
-------------

Method             : SCF
Type of density    : Electron Density
Multiplicity       :   1
Irrep              :   0
Energy             :  -272.9089731324176000 Eh
Relativity type    :
Basis              : AO
                                X                 Y                 Z
Electronic contribution:     -2.523480831       2.887026363      -1.069980391
Nuclear contribution   :      2.629159459      -3.019938413       0.192105546
                        -----------------------------------------
Total Dipole Moment    :      0.105678628      -0.132912050      -0.877874845
                        -----------------------------------------
Magnitude (a.u.)       :      0.894146425
Magnitude (Debye)      :      2.272739594

Rotational constants in cm-1:             0.153268             0.080971             0.074864
Rotational constants in MHz :          4594.849983          2427.454013          2244.359015

                             ****ORCA TERMINATED NORMALLY****
TOTAL RUN TIME: 0 days 0 hours 0 minutes 27 seconds 100 msec
