                         Program Version 6.0.0  -   RELEASE  -
|  1> ! r2scan-3c def2/J RI DEFGRID2 scfconv6 printgap
|  2> %output
|  3>     printlevel normal
|  4> end
|  5> * xyz 0 1
|  6> C -2.8310863204 -0.8010103925 0.8477567089
|  7> C -2.4030221008 -0.3196769871 -0.5348900351
|  8> O -1.3896436289 0.6738567006 -0.4803661824
|  9> C -0.0968076707 0.319716448 -0.21978209
| 10> C 0.7970612376 1.3857529149 -0.0990976652
| 11> C 2.1342750236 1.1538423569 0.1459728444
| 12> C 2.6063794932 -0.1435216553 0.2751958608
| 13> C 1.724342064 -1.2005955995 0.1537237469
| 14> C 0.3783132049 -0.9806256121 -0.0912876112
| 15> H -3.6463090629 -1.5108510421 0.7471775574
| 16> H -2.0043989893 -1.2796403604 1.36665579
| 17> H -3.1661528393 0.0444945368 1.4427906969
| 18> H -3.2367409907 0.1851495656 -1.0291610781
| 19> H -2.0819799764 -1.1576523804 -1.1637605765
| 20> H 0.4108891438 2.3874687337 -0.2048210871
| 21> H 2.8117147502 1.9891734569 0.2369287953
| 22> H 3.6518764354 -0.3259363553 0.4686637324
| 23> H 2.0799290654 -2.2154313408 0.2513165033
| 24> H -0.2810746906 -1.8288824362 -0.1818523688
| 25> *
| 26>
| 27>                          ****END OF INPUT****

CARTESIAN COORDINATES (ANGSTROEM)
---------------------------------
  C     -2.831086   -0.801010    0.847757
  C     -2.403022   -0.319677   -0.534890
  O     -1.389644    0.673857   -0.480366
  C     -0.096808    0.319716   -0.219782
  C      0.797061    1.385753   -0.099098
  C      2.134275    1.153842    0.145973
  C      2.606379   -0.143522    0.275196
  C      1.724342   -1.200596    0.153724
  C      0.378313   -0.980626   -0.091288
  H     -3.646309   -1.510851    0.747178
  H     -2.004399   -1.279640    1.366656
  H     -3.166153    0.044495    1.442791
  H     -3.236741    0.185150   -1.029161
  H     -2.081980   -1.157652   -1.163761
  H      0.410889    2.387469   -0.204821
  H      2.811715    1.989173    0.236929
  H      3.651876   -0.325936    0.468664
  H      2.079929   -2.215431    0.251317
  H     -0.281075   -1.828882   -0.181852

 Total Charge           Charge          ....    0
 Multiplicity           Mult            ....    1
 Number of Electrons    NEL             ....   66
 Basis Dimension        Dim             ....  226

ORBITAL ENERGIES
----------------

  NO   OCC          E(Eh)            E(eV)
   0   2.0000     -18.980679      -516.4905
   1   2.0000     -10.093300      -274.6526
   2   2.0000     -10.091389      -274.6006
   3   2.0000     -10.034112      -273.0421
   4   2.0000     -10.032484      -272.9978
   5   2.0000     -10.031690      -272.9762
   6   2.0000     -10.028885      -272.8998
   7   2.0000     -10.026727      -272.8411
   8   2.0000     -10.024422      -272.7784
   9   2.0000      -1.028856       -27.9966
  10   2.0000      -0.821081       -22.3427
  11   2.0000      -0.743823       -20.2404
  12   2.0000      -0.715809       -19.4781
  13   2.0000      -0.697534       -18.9809
  14   2.0000      -0.616738       -16.7823
  15   2.0000      -0.577491       -15.7143
  16   2.0000      -0.550705       -14.9854
  17   2.0000      -0.503500       -13.7009
  18   2.0000      -0.457762       -12.4563
  19   2.0000      -0.452466       -12.3122
  20   2.0000      -0.422700       -11.5022
  21   2.0000      -0.416028       -11.3207
  22   2.0000      -0.398260       -10.8372
  23   2.0000      -0.387241       -10.5374
  24   2.0000      -0.369131       -10.0446
  25   2.0000      -0.353097        -9.6083
  26   2.0000      -0.345236        -9.3944
  27   2.0000      -0.329910        -8.9773
  28   2.0000      -0.315940        -8.5972
  29   2.0000      -0.292275        -7.9532
  30   2.0000      -0.287961        -7.8358
  31   2.0000      -0.235646        -6.4123
  32   2.0000      -0.199939        -5.4406
  33   0.0000      -0.029662        -0.8071
  34   0.0000      -0.014598        -0.3972
  35   0.0000       0.073662         2.0044
  36   0.0000       0.086667         2.3583
  37   0.0000       0.106237         2.8908

MULLIKEN ATOMIC CHARGES
-----------------------
   0 C :   -0.430612
   1 C :   -0.201001
   2 O :   -0.185502
   3 C :    0.363734
   4 C :   -0.312269
   5 C :   -0.113529
   6 C :   -0.183024
   7 C :   -0.155306
   8 C :   -0.285143
   9 H :    0.147849
  10 H :    0.158203
  11 H :    0.157129
  12 H :    0.152321
  13 H :    0.141902
  14 H :    0.157455
  15 H :    0.147591
  16 H :    0.146144
  17 H :    0.144873
  18 H :    0.149184
Sum of atomic charges:   -0.0000000

LOEWDIN ATOMIC CHARGES
----------------------
   0 C :   -0.398916
   1 C :    0.017671
   2 O :   -0.675150
   3 C :    0.194647
   4 C :   -0.134579
   5 C :   -0.155593
   6 C :   -0.192729
   7 C :   -0.155384
   8 C :   -0.179747
   9 H :    0.157852
  10 H :    0.159908
  11 H :    0.160206
  12 H :    0.182184
  13 H :    0.165782
  14 H :    0.180446
  15 H :    0.167651
  16 H :    0.165906
  17 H :    0.167032
  18 H :    0.172813

  Mayer bond orders larger than 0.100000
B(  0-C ,  1-C ) :   0.9322 B(  0-C ,  9-H ) :   0.9672 B(  0-C , 10-H ) :   0.9673
B(  0-C , 11-H ) :   0.9723 B(  1-C ,  2-O ) :   0.8433 B(  1-C , 12-H ) :   0.9615
B(  1-C , 13-H ) :   0.9727 B(  2-O ,  3-C ) :   1.0088 B(  3-C ,  4-C ) :   1.4112
B(  3-C ,  8-C ) :   1.3750 B(  4-C ,  5-C ) :   1.3993 B(  4-C , 14-H ) :   0.9470
B(  5-C ,  6-C ) :   1.3967 B(  5-C , 15-H ) :   0.9468 B(  6-C ,  7-C ) :   1.4519
B(  6-C , 16-H ) :   0.9484 B(  7-C ,  8-C ) :   1.4066 B(  7-C , 17-H ) :   0.9487
B(  8-C , 18-H ) :   0.9231

Dispersion correction           -0.005985013
FINAL SINGLE POINT ENERGY      -385.984044522962

DIPOLE MOMENT
-------------

Method             : SCF
Type of density    : Electron Density
Multiplicity       :   1
Irrep              :   0
Energy             :  -385.9859558502741947 Eh
Relativity type    :
Basis              : AO
                                X                 Y                 Z
Electronic contribution:      4.749837150       3.049822999      -1.753265253
Nuclear contribution   :     -5.145104055      -3.472596675       1.807241057
                        -----------------------------------------
Total Dipole Moment    :     -0.395266904      -0.422773675       0.053975804
                        -----------------------------------------
Magnitude (a.u.)       :      0.581280391
Magnitude (Debye)      :      1.477497336

Rotational constants in cm-1:             0.130320             0.035598             0.030151
Rotational constants in MHz :          3906.896661          1067.208312           903.914883

                             ****ORCA TERMINATED NORMALLY****
TOTAL RUN TIME: 0 days 0 hours 0 minutes 29 seconds 160 msec
