                         Program Version 6.0.0  -   RELEASE  -
|  1> ! r2scan-3c def2/J RI DEFGRID2 scfconv6 printgap
|  2> %output
|  3>     printlevel normal
|  4> end
|  5> %cpcm
|  6>     smd true
|  7>     smdsolvent "water"
|  8> end
|  9> * xyz 0 1
| 10> C -2.8310863204 -0.8010103925 0.8477567089
| 11> C -2.4030221008 -0.3196769871 -0.5348900351
| 12> O -1.3896436289 0.6738567006 -0.4803661824
| 13> C -0.0968076707 0.319716448 -0.21978209
| 14> C 0.7970612376 1.3857529149 -0.0990976652
| 15> C 2.1342750236 1.1538423569 0.1459728444
| 16> C 2.6063794932 -0.1435216553 0.2751958608
| 17> C 1.724342064 -1.2005955995 0.1537237469
| 18> C 0.3783132049 -0.9806256121 -0.0912876112
| 19> H -3.6463090629 -1.5108510421 0.7471775574
| 20> H -2.0043989893 -1.2796403604 1.36665579
| 21> H -3.1661528393 0.0444945368 1.4427906969
| 22> H -3.2367409907 0.1851495656 -1.0291610781
| 23> H -2.0819799764 -1.1576523804 -1.1637605765
| 24> H 0.4108891438 2.3874687337 -0.2048210871
| 25> H 2.8117147502 1.9891734569 0.2369287953
| 26> H 3.6518764354 -0.3259363553 0.4686637324
| 27> H 2.0799290654 -2.2154313408 0.2513165033
| 28> H -0.2810746906 -1.8288824362 -0.1818523688
| 29> *
| 30>
| 31>                          ****END OF INPUT****

CARTESIAN COORDINATES (ANGSTROEM)
---------------------------------
  C     -2.831086   -0.801010    0.847757
  C     -2.403022   -0.319677   -0.534890
  O     -1.389644    0.673857   -0.480366
  C     -0.096808    0.319716   -0.219782
  C      0.797061    1.385753   -0.099098
  C      2.134275    1.153842    0.145973
  C      2.606379   -0.143522    0.275196
  C      1.724342   -1.200596    0.153724
  C      0.378313   -0.980626   -0.091288
  H     -3.646309   -1.510851    0.747178
  H     -2.004399   -1.279640    1.366656
  H     -3.166153    0.044495    1.442791
  H     -3.236741    0.185150   -1.029161
  H     -2.081980   -1.157652   -1.163761
  H      0.410889    2.387469   -0.204821
  H      2.811715    1.989173    0.236929
  H      3.651876   -0.325936    0.468664
  H      2.079929   -2.215431    0.251317
  H     -0.281075   -1.828882   -0.181852

 Total Charge           Charge          ....    0
 Multiplicity           Mult            ....    1
 Number of Electrons    NEL             ....   66
 Basis Dimension        Dim             ....  226

ORBITAL ENERGIES
----------------

  NO   OCC          E(Eh)            E(eV)
   0   2.0000     -18.984775      -516.6020
   1   2.0000     -10.096892      -274.7504
   2   2.0000     -10.080038      -274.2918
   3   2.0000     -10.034774      -273.0601
   4   2.0000     -10.034471      -273.0518
   5   2.0000     -10.031718      -272.9769
   6   2.0000     -10.030077      -272.9323
   7   2.0000     -10.026034      -272.8223
   8   2.0000     -10.015651      -272.5397
   9   2.0000      -1.032176       -28.0869
  10   2.0000      -0.824673       -22.4405
  11   2.0000      -0.738882       -20.1060
  12   2.0000      -0.717721       -19.5302
  13   2.0000      -0.695065       -18.9137
  14   2.0000      -0.612006       -16.6535
  15   2.0000      -0.578452       -15.7405
  16   2.0000      -0.548069       -14.9137
  17   2.0000      -0.499940       -13.6041
  18   2.0000      -0.455762       -12.4019
  19   2.0000      -0.450386       -12.2556
  20   2.0000      -0.418485       -11.3876
  21   2.0000      -0.413602       -11.2547
  22   2.0000      -0.395939       -10.7740
  23   2.0000      -0.385368       -10.4864
  24   2.0000      -0.363295        -9.8858
  25   2.0000      -0.347164        -9.4468
  26   2.0000      -0.343389        -9.3441
  27   2.0000      -0.328547        -8.9402
  28   2.0000      -0.310527        -8.4499
  29   2.0000      -0.293891        -7.9972
  30   2.0000      -0.287165        -7.8142
  31   2.0000      -0.240979        -6.5574
  32   2.0000      -0.205183        -5.5833
  33   0.0000      -0.034155        -0.9294
  34   0.0000      -0.019710        -0.5363
  35   0.0000       0.081888         2.2283
  36   0.0000       0.091468         2.4890
  37   0.0000       0.113584         3.0908

MULLIKEN ATOMIC CHARGES
-----------------------
   0 C :   -0.471061
   1 C :   -0.188312
   2 O :   -0.228075
   3 C :    0.341085
   4 C :   -0.350836
   5 C :   -0.154852
   6 C :   -0.221636
   7 C :   -0.196329
   8 C :   -0.277036
   9 H :    0.169142
  10 H :    0.166477
  11 H :    0.164544
  12 H :    0.169800
  13 H :    0.164365
  14 H :    0.184041
  15 H :    0.181537
  16 H :    0.178371
  17 H :    0.179201
  18 H :    0.189574
Sum of atomic charges:   -0.0000000

LOEWDIN ATOMIC CHARGES
----------------------
   0 C :   -0.402135
   1 C :    0.021860
   2 O :   -0.701842
   3 C :    0.181596
   4 C :   -0.150263
   5 C :   -0.166392
   6 C :   -0.205545
   7 C :   -0.164270
   8 C :   -0.177772
   9 H :    0.166629
  10 H :    0.161404
  11 H :    0.160621
  12 H :    0.189233
  13 H :    0.176448
  14 H :    0.188318
  15 H :    0.178871
  16 H :    0.176122
  17 H :    0.178843
  18 H :    0.188274

  Mayer bond orders larger than 0.100000
B(  0-C ,  1-C ) :   0.9226 B(  0-C ,  9-H ) :   0.9615 B(  0-C , 10-H ) :   0.9663
B(  0-C , 11-H ) :   0.9710 B(  1-C ,  2-O ) :   0.8340 B(  1-C , 12-H ) :   0.9543
B(  1-C , 13-H ) :   0.9638 B(  2-O ,  3-C ) :   0.9904 B(  3-C ,  4-C ) :   1.3543
B(  3-C ,  8-C ) :   1.3615 B(  4-C ,  5-C ) :   1.3812 B(  4-C , 14-H ) :   0.9558
B(  5-C ,  6-C ) :   1.3598 B(  5-C , 15-H ) :   0.9524 B(  6-C ,  7-C ) :   1.4043
B(  6-C , 16-H ) :   0.9575 B(  7-C ,  8-C ) :   1.3729 B(  7-C , 17-H ) :   0.9602
B(  8-C , 18-H ) :   0.9253

Dispersion correction           -0.005985013
FINAL SINGLE POINT ENERGY      -385.988004156354

DIPOLE MOMENT
-------------

Method             : SCF
Type of density    : Electron Density
Multiplicity       :   1
Irrep              :   0
Energy             :  -385.9899154836664934 Eh
Relativity type    :
Basis              : AO
                                X                 Y                 Z
Electronic contribution:      4.660929046       2.775169530      -1.756330407
Nuclear contribution   :     -5.145104055      -3.472596675       1.807241057
                        -----------------------------------------
Total Dipole Moment    :     -0.484175009      -0.697427145       0.050910650
                        -----------------------------------------
Magnitude (a.u.)       :      0.850542154
Magnitude (Debye)      :      2.161906346

Rotational constants in cm-1:             0.130320             0.035598             0.030151
Rotational constants in MHz :          3906.896661          1067.208312           903.914883

                             ****ORCA TERMINATED NORMALLY****
TOTAL RUN TIME: 0 days 0 hours 0 minutes 35 seconds 309 msec
