                         Program Version 6.0.0  -   RELEASE  -
|  1> ! pbe def2-sv(p) def2/J RI DEFGRID1 loosescf d4 GCP(DFT/SV(P)) printgap
|  2> %output
|  3>     printlevel normal
|  4> end
|  5> * xyz 0 1
|  6> C 1.7145859646 -1.2343822426 -0.9805062234
|  7> O 1.4796681046 -0.2545654487 0.0467191507
|  8> S 0.0625207873 0.3809100845 0.0571432063
|  9> O -0.3381812205 0.7853723767 -1.2602840631
| 10> O 0.0468228342 1.3877144324 1.0723362772
| 11> O -0.7917262342 -0.866819816 0.5055334738
| 12> C -2.2145112278 -0.661310774 0.5178965243
| 13> H 1.2842230563 -2.1841490211 -0.666515356
| 14> H 2.7944046127 -1.3047843449 -1.0869890024
| 15> H 1.2465751541 -0.887740349 -1.9010264823
| 16> H -2.5745104252 -0.9291688893 1.5093920252
| 17> H -2.6535396223 -1.3013289946 -0.2460993787
| 18> H -2.4240208908 0.3848499259 0.3031566599
| 19> *
| 20>
| 21>                          ****END OF INPUT****

CARTESIAN COORDINATES (ANGSTROEM)
---------------------------------
  C      1.714586   -1.234382   -0.980506
  O      1.479668   -0.254565    0.046719
  S      0.062521    0.380910    0.057143
  O     -0.338181    0.785372   -1.260284
  O      0.046823    1.387714    1.072336
  O     -0.791726   -0.866820    0.505533
  C     -2.214511   -0.661311    0.517897
  H      1.284223   -2.184149   -0.666515
  H      2.794405   -1.304784   -1.086989
  H      1.246575   -0.887740   -1.901026
  H     -2.574510   -0.929169    1.509392
  H     -2.653540   -1.301329   -0.246099
  H     -2.424021    0.384850    0.303157

 Total Charge           Charge          ....    0
 Multiplicity           Mult            ....    1
 Number of Electrons    NEL             ....   66
 Basis Dimension        Dim             ....  114

ORBITAL ENERGIES
----------------

  NO   OCC          E(Eh)            E(eV)
   0   2.0000     -88.284452     -2402.3421
   1   2.0000     -18.825296      -512.2623
   2   2.0000     -18.816183      -512.0144
   3   2.0000     -18.751370      -510.2507
   4   2.0000     -18.746999      -510.1318
   5   2.0000      -9.962358      -271.0895
   6   2.0000      -9.961317      -271.0612
   7   2.0000      -7.895126      -214.8373
   8   2.0000      -5.922824      -161.1682
   9   2.0000      -5.922216      -161.1517
  10   2.0000      -5.919156      -161.0684
  11   2.0000      -1.101123       -29.9631
  12   2.0000      -0.986260       -26.8375
  13   2.0000      -0.955761       -26.0076
  14   2.0000      -0.920950       -25.0603
  15   2.0000      -0.702086       -19.1047
  16   2.0000      -0.663354       -18.0508
  17   2.0000      -0.554047       -15.0764
  18   2.0000      -0.524251       -14.2656
  19   2.0000      -0.467192       -12.7129
  20   2.0000      -0.459161       -12.4944
  21   2.0000      -0.436230       -11.8704
  22   2.0000      -0.430034       -11.7018
  23   2.0000      -0.423690       -11.5292
  24   2.0000      -0.389146       -10.5892
  25   2.0000      -0.360670        -9.8143
  26   2.0000      -0.344007        -9.3609
  27   2.0000      -0.316705        -8.6180
  28   2.0000      -0.308983        -8.4079
  29   2.0000      -0.305543        -8.3143
  30   2.0000      -0.283781        -7.7221
  31   2.0000      -0.265010        -7.2113
  32   2.0000      -0.241190        -6.5631
  33   0.0000       0.014367         0.3910
  34   0.0000       0.040131         1.0920
  35   0.0000       0.049473         1.3462
  36   0.0000       0.057152         1.5552
  37   0.0000       0.076120         2.0713

MULLIKEN ATOMIC CHARGES
-----------------------
   0 C :   -0.125495
   1 O :   -0.352551
   2 S :    0.928436
   3 O :   -0.396375
   4 O :   -0.371318
   5 O :   -0.390888
   6 C :   -0.119092
   7 H :    0.131156
   8 H :    0.142382
   9 H :    0.139075
  10 H :    0.139552
  11 H :    0.133689
  12 H :    0.141427
Sum of atomic charges:   -0.0000000

LOEWDIN ATOMIC CHARGES
----------------------
   0 C :   -0.222614
   1 O :   -0.248093
   2 S :    1.118221
   3 O :   -0.457045
   4 O :   -0.441177
   5 O :   -0.283820
   6 C :   -0.213269
   7 H :    0.119737
   8 H :    0.131856
   9 H :    0.121939
  10 H :    0.127773
  11 H :    0.123905
  12 H :    0.122589

  Mayer bond orders larger than 0.100000
B(  0-C ,  1-O ) :   0.8940 B(  0-C ,  7-H ) :   0.9528 B(  0-C ,  8-H ) :   0.9553
B(  0-C ,  9-H ) :   0.9349 B(  1-O ,  2-S ) :   1.0669 B(  2-S ,  3-O ) :   1.7673
B(  2-S ,  4-O ) :   1.8294 B(  2-S ,  5-O ) :   1.0172 B(  5-O ,  6-C ) :   0.8970
B(  6-C , 10-H ) :   0.9567 B(  6-C , 11-H ) :   0.9581 B(  6-C , 12-H ) :   0.9366

Dispersion correction           -0.011629543
FINAL SINGLE POINT ENERGY      -777.741932105332

DIPOLE MOMENT
-------------

Method             : SCF
Type of density    : Electron Density
Multiplicity       :   1
Irrep              :   0
Energy             :  -777.8011079256459652 Eh
Relativity type    :
Basis              : AO
                                X                 Y                 Z
Electronic contribution:      1.907189940       4.433014882       1.645709890
Nuclear contribution   :     -2.178924783      -5.832968649      -1.955225365
                        -----------------------------------------
Total Dipole Moment    :     -0.271734843      -1.399953767      -0.309515475
                        -----------------------------------------
Magnitude (a.u.)       :      1.459284141
Magnitude (Debye)      :      3.709205511

Rotational constants in cm-1:             0.115620             0.070048             0.059628
Rotational constants in MHz :          3466.195590          2099.986122          1787.603028

                             ****ORCA TERMINATED NORMALLY****
TOTAL RUN TIME: 0 days 0 hours 0 minutes 7 seconds 494 msec
