                         Program Version 6.0.0  -   RELEASE  -
|  1> ! pbe def2-sv(p) def2/J RI DEFGRID1 loosescf d4 GCP(DFT/SV(P)) printgap
|  2> %output
|  3>     printlevel normal
|  4> end
|  5> * xyz 0 1
|  6> C 2.8345900132 -0.281621201 0.1736646886
|  7> C 1.5159518455 0.292117123 -0.3324331468
|  8> C 0.3207610393 -0.4825018544 0.2215629499
|  9> C -1.0284052759 -0.0014503423 -0.3291965577
| 10> H -0.9690582193 0.050504345 -1.4294742346
| 11> C -2.1510860733 -0.9589924368 0.0604824503
| 12> O -1.385851751 1.2772929759 0.1735513857
| 13> H 2.9393145188 -1.3204043643 -0.1305698527
| 14> H 2.8766323411 -0.2370904896 1.2594615459
| 15> H 3.6741188291 0.2809894846 -0.2269503278
| 16> H 1.4517086994 1.3410838192 -0.0351964579
| 17> H 1.4977756966 0.249858807 -1.4243134285
| 18> H 0.433313388 -1.5376745225 -0.0321722641
| 19> H 0.2985453056 -0.3963679792 1.3100634168
| 20> H -3.1009291525 -0.5693314036 -0.2951917005
| 21> H -1.9789199637 -1.938448384 -0.374121748
| 22> H -2.1982641463 -1.0455713242 1.1426618976
| 23> H -0.7029375719 1.9169953556 -0.0652361707
| 24> *
| 25>
| 26>                          ****END OF INPUT****

CARTESIAN COORDINATES (ANGSTROEM)
---------------------------------
  C      2.834590   -0.281621    0.173665
  C      1.515952    0.292117   -0.332433
  C      0.320761   -0.482502    0.221563
  C     -1.028405   -0.001450   -0.329197
  H     -0.969058    0.050504   -1.429474
  C     -2.151086   -0.958992    0.060482
  O     -1.385852    1.277293    0.173551
  H      2.939315   -1.320404   -0.130570
  H      2.876632   -0.237090    1.259462
  H      3.674119    0.280989   -0.226950
  H      1.451709    1.341084   -0.035196
  H      1.497776    0.249859   -1.424313
  H      0.433313   -1.537675   -0.032172
  H      0.298545   -0.396368    1.310063
  H     -3.100929   -0.569331   -0.295192
  H     -1.978920   -1.938448   -0.374122
  H     -2.198264   -1.045571    1.142662
  H     -0.702938    1.916995   -0.065236

 Total Charge           Charge          ....    0
 Multiplicity           Mult            ....    1
 Number of Electrons    NEL             ....   50
 Basis Dimension        Dim             ....  108

ORBITAL ENERGIES
----------------

  NO   OCC          E(Eh)            E(eV)
   0   2.0000     -18.735750      -509.8257
   1   2.0000      -9.933113      -270.2938
   2   2.0000      -9.890493      -269.1340
   3   2.0000      -9.880635      -268.8658
   4   2.0000      -9.877347      -268.7763
   5   2.0000      -9.868096      -268.5245
   6   2.0000      -0.913170       -24.8486
   7   2.0000      -0.718754       -19.5583
   8   2.0000      -0.672518       -18.3001
   9   2.0000      -0.607949       -16.5431
  10   2.0000      -0.534501       -14.5445
  11   2.0000      -0.515425       -14.0254
  12   2.0000      -0.461053       -12.5459
  13   2.0000      -0.421201       -11.4615
  14   2.0000      -0.402729       -10.9588
  15   2.0000      -0.373909       -10.1746
  16   2.0000      -0.351288        -9.5590
  17   2.0000      -0.337954        -9.1962
  18   2.0000      -0.336196        -9.1483
  19   2.0000      -0.324923        -8.8416
  20   2.0000      -0.303623        -8.2620
  21   2.0000      -0.295190        -8.0325
  22   2.0000      -0.291651        -7.9362
  23   2.0000      -0.262291        -7.1373
  24   2.0000      -0.209351        -5.6967
  25   0.0000       0.024260         0.6602
  26   0.0000       0.051003         1.3879
  27   0.0000       0.057028         1.5518
  28   0.0000       0.066902         1.8205
  29   0.0000       0.089415         2.4331

MULLIKEN ATOMIC CHARGES
-----------------------
   0 C :   -0.256619
   1 C :   -0.196553
   2 C :   -0.175823
   3 C :    0.022792
   4 H :    0.052530
   5 C :   -0.228090
   6 O :   -0.431425
   7 H :    0.099995
   8 H :    0.100481
   9 H :    0.102767
  10 H :    0.070039
  11 H :    0.085590
  12 H :    0.075394
  13 H :    0.083147
  14 H :    0.106754
  15 H :    0.095047
  16 H :    0.098641
  17 H :    0.295333
Sum of atomic charges:    0.0000000

LOEWDIN ATOMIC CHARGES
----------------------
   0 C :   -0.337843
   1 C :   -0.239953
   2 C :   -0.242354
   3 C :   -0.054773
   4 H :    0.092991
   5 C :   -0.338980
   6 O :   -0.336061
   7 H :    0.117849
   8 H :    0.118707
   9 H :    0.118865
  10 H :    0.105836
  11 H :    0.114212
  12 H :    0.117903
  13 H :    0.118764
  14 H :    0.123737
  15 H :    0.120464
  16 H :    0.122205
  17 H :    0.278428

  Mayer bond orders larger than 0.100000
B(  0-C ,  1-C ) :   1.1597 B(  0-C ,  7-H ) :   0.9545 B(  0-C ,  8-H ) :   0.9545
B(  0-C ,  9-H ) :   0.9526 B(  1-C ,  2-C ) :   1.1296 B(  1-C , 10-H ) :   0.9132
B(  1-C , 11-H ) :   0.9254 B(  2-C ,  3-C ) :   1.0632 B(  2-C , 12-H ) :   0.9114
B(  2-C , 13-H ) :   0.9074 B(  3-C ,  4-H ) :   0.9054 B(  3-C ,  5-C ) :   1.1231
B(  3-C ,  6-O ) :   1.0555 B(  5-C , 14-H ) :   0.9451 B(  5-C , 15-H ) :   0.9464
B(  5-C , 16-H ) :   0.9442 B(  6-O , 17-H ) :   0.8491

Dispersion correction           -0.012202052
FINAL SINGLE POINT ENERGY      -272.305861824015

DIPOLE MOMENT
-------------

Method             : SCF
Type of density    : Electron Density
Multiplicity       :   1
Irrep              :   0
Energy             :  -272.3758400060761460 Eh
Relativity type    :
Basis              : AO
                                X                 Y                 Z
Electronic contribution:     -3.398325641       2.920207403      -0.000913576
Nuclear contribution   :      3.939703200      -2.988287242      -0.279848564
                        -----------------------------------------
Total Dipole Moment    :      0.541377558      -0.068079839      -0.280762140
                        -----------------------------------------
Magnitude (a.u.)       :      0.613638252
Magnitude (Debye)      :      1.559744481

Rotational constants in cm-1:             0.240142             0.057566             0.050044
Rotational constants in MHz :          7199.264215          1725.789042          1500.277440

                             ****ORCA TERMINATED NORMALLY****
TOTAL RUN TIME: 0 days 0 hours 0 minutes 7 seconds 609 msec
