                         Program Version 6.0.0  -   RELEASE  -
|  1> ! pbe def2-sv(p) def2/J RI DEFGRID1 loosescf d4 GCP(DFT/SV(P)) printgap
|  2> %output
|  3>     printlevel normal
|  4> end
|  5> * xyz 0 1
|  6> C 2.2890554178 -0.2368291929 -0.7585183314
|  7> C 1.5331597176 -0.6265292631 0.5067613434
|  8> C 0.3463788248 0.2879626823 0.8116462345
|  9> C -0.7713199797 0.2784814016 -0.2408008856
| 10> H -0.3683399586 0.5800526102 -1.2130022298
| 11> C -1.4433712139 -1.0880256059 -0.3660956537
| 12> O -1.7264516392 1.2883922067 0.0529114091
| 13> H 1.67342587 -0.379308701 -1.6427050059
| 14> H 3.1817518945 -0.848424017 -0.864881351
| 15> H 2.5906682472 0.8072227256 -0.714457746
| 16> H 1.1921123159 -1.6593564862 0.424683564
| 17> H 2.2192720899 -0.5754999582 1.3552000989
| 18> H -0.0847359496 -0.005557908 1.7730060854
| 19> H 0.7018373798 1.3171607261 0.9064560257
| 20> H -2.3120888865 -1.0067877253 -1.0151812123
| 21> H -0.7571463041 -1.8103399117 -0.7961588878
| 22> H -1.7653171616 -1.4447659345 0.6102932234
| 23> H -2.1501336275 1.0778040077 0.8970111468
| 24> *
| 25>
| 26>                          ****END OF INPUT****

CARTESIAN COORDINATES (ANGSTROEM)
---------------------------------
  C      2.289055   -0.236829   -0.758518
  C      1.533160   -0.626529    0.506761
  C      0.346379    0.287963    0.811646
  C     -0.771320    0.278481   -0.240801
  H     -0.368340    0.580053   -1.213002
  C     -1.443371   -1.088026   -0.366096
  O     -1.726452    1.288392    0.052911
  H      1.673426   -0.379309   -1.642705
  H      3.181752   -0.848424   -0.864881
  H      2.590668    0.807223   -0.714458
  H      1.192112   -1.659356    0.424684
  H      2.219272   -0.575500    1.355200
  H     -0.084736   -0.005558    1.773006
  H      0.701837    1.317161    0.906456
  H     -2.312089   -1.006788   -1.015181
  H     -0.757146   -1.810340   -0.796159
  H     -1.765317   -1.444766    0.610293
  H     -2.150134    1.077804    0.897011

 Total Charge           Charge          ....    0
 Multiplicity           Mult            ....    1
 Number of Electrons    NEL             ....   50
 Basis Dimension        Dim             ....  108

ORBITAL ENERGIES
----------------

  NO   OCC          E(Eh)            E(eV)
   0   2.0000     -18.734327      -509.7869
   1   2.0000      -9.933365      -270.3006
   2   2.0000      -9.886373      -269.0219
   3   2.0000      -9.880776      -268.8696
   4   2.0000      -9.874995      -268.7123
   5   2.0000      -9.874704      -268.7044
   6   2.0000      -0.912377       -24.8270
   7   2.0000      -0.719387       -19.5755
   8   2.0000      -0.663785       -18.0625
   9   2.0000      -0.610975       -16.6255
  10   2.0000      -0.555634       -15.1196
  11   2.0000      -0.509131       -13.8542
  12   2.0000      -0.439002       -11.9458
  13   2.0000      -0.422550       -11.4982
  14   2.0000      -0.392059       -10.6685
  15   2.0000      -0.375801       -10.2261
  16   2.0000      -0.373536       -10.1644
  17   2.0000      -0.356128        -9.6907
  18   2.0000      -0.326268        -8.8782
  19   2.0000      -0.316081        -8.6010
  20   2.0000      -0.311668        -8.4809
  21   2.0000      -0.292856        -7.9690
  22   2.0000      -0.286213        -7.7882
  23   2.0000      -0.260194        -7.0802
  24   2.0000      -0.207778        -5.6539
  25   0.0000       0.028229         0.7682
  26   0.0000       0.044181         1.2022
  27   0.0000       0.062097         1.6897
  28   0.0000       0.073256         1.9934
  29   0.0000       0.088661         2.4126

MULLIKEN ATOMIC CHARGES
-----------------------
   0 C :   -0.293285
   1 C :   -0.186547
   2 C :   -0.145653
   3 C :    0.011220
   4 H :    0.076970
   5 C :   -0.266661
   6 O :   -0.429995
   7 H :    0.111748
   8 H :    0.104046
   9 H :    0.101717
  10 H :    0.090039
  11 H :    0.085746
  12 H :    0.063734
  13 H :    0.088004
  14 H :    0.111090
  15 H :    0.105844
  16 H :    0.084417
  17 H :    0.287566
Sum of atomic charges:    0.0000000

LOEWDIN ATOMIC CHARGES
----------------------
   0 C :   -0.342941
   1 C :   -0.236310
   2 C :   -0.240415
   3 C :   -0.060119
   4 H :    0.112166
   5 C :   -0.354376
   6 O :   -0.331438
   7 H :    0.116567
   8 H :    0.120438
   9 H :    0.119194
  10 H :    0.113649
  11 H :    0.118169
  12 H :    0.108581
  13 H :    0.118051
  14 H :    0.124369
  15 H :    0.123038
  16 H :    0.113833
  17 H :    0.277545

  Mayer bond orders larger than 0.100000
B(  0-C ,  1-C ) :   1.1519 B(  0-C ,  7-H ) :   0.9494 B(  0-C ,  8-H ) :   0.9512
B(  0-C ,  9-H ) :   0.9547 B(  1-C ,  2-C ) :   1.1068 B(  1-C , 10-H ) :   0.9222
B(  1-C , 11-H ) :   0.9209 B(  2-C ,  3-C ) :   1.0771 B(  2-C , 12-H ) :   0.9080
B(  2-C , 13-H ) :   0.9154 B(  3-C ,  4-H ) :   0.9005 B(  3-C ,  5-C ) :   1.1057
B(  3-C ,  6-O ) :   1.0309 B(  5-C , 14-H ) :   0.9446 B(  5-C , 15-H ) :   0.9326
B(  5-C , 16-H ) :   0.9428 B(  6-O , 17-H ) :   0.8566

Dispersion correction           -0.012835990
FINAL SINGLE POINT ENERGY      -272.304714203006

DIPOLE MOMENT
-------------

Method             : SCF
Type of density    : Electron Density
Multiplicity       :   1
Irrep              :   0
Energy             :  -272.3743548747595469 Eh
Relativity type    :
Basis              : AO
                                X                 Y                 Z
Electronic contribution:     -3.707513024       3.213146407       0.619098656
Nuclear contribution   :      3.840837983      -3.684562586      -0.261653182
                        -----------------------------------------
Total Dipole Moment    :      0.133324959      -0.471416178       0.357445474
                        -----------------------------------------
Magnitude (a.u.)       :      0.606445401
Magnitude (Debye)      :      1.541461708

Rotational constants in cm-1:             0.190062             0.066537             0.060605
Rotational constants in MHz :          5697.911712          1994.733564          1816.893883

                             ****ORCA TERMINATED NORMALLY****
TOTAL RUN TIME: 0 days 0 hours 0 minutes 7 seconds 900 msec
