                         Program Version 6.0.0  -   RELEASE  -
|  1> ! r2scan-3c def2/J RI DEFGRID2 scfconv6 printgap
|  2> %output
|  3>     printlevel normal
|  4> end
|  5> * xyz 0 1
|  6> C 1.8950439514 -0.6590684971 0.3306300847
|  7> C 1.1090325342 0.1937024019 -0.6589983507
|  8> C 4.73973e-05 1.0165829284 -0.0003660485
|  9> C -1.1092245416 0.1945133997 0.6588245822
| 10> C -1.894906979 -0.6594147826 -0.3300962434
| 11> H 2.2878324251 -0.0418050812 1.1358303053
| 12> H 2.7305335984 -1.1426200757 -0.1702974822
| 13> H 1.2678681474 -1.4333245948 0.7644772971
| 14> H 1.7967836663 0.8859739114 -1.1509869151
| 15> H 0.6834772365 -0.4458708571 -1.4336272425
| 16> H -0.4494237684 1.6623685897 -0.7590698461
| 17> H 0.4496420557 1.663071555 0.7576772223
| 18> H -0.6840360973 -0.4442302836 1.4343555559
| 19> H -1.7971109493 0.8874044308 1.1497704251
| 20> H -2.2854680898 -0.0433483394 -1.1373043116
| 21> H -2.7319351478 -1.1407340948 0.1704570624
| 22> H -1.2680720598 -1.4354940238 -0.7612108583
| 23> *
| 24>
| 25>                          ****END OF INPUT****

CARTESIAN COORDINATES (ANGSTROEM)
---------------------------------
  C      1.895044   -0.659068    0.330630
  C      1.109033    0.193702   -0.658998
  C      0.000047    1.016583   -0.000366
  C     -1.109225    0.194513    0.658825
  C     -1.894907   -0.659415   -0.330096
  H      2.287832   -0.041805    1.135830
  H      2.730534   -1.142620   -0.170297
  H      1.267868   -1.433325    0.764477
  H      1.796784    0.885974   -1.150987
  H      0.683477   -0.445871   -1.433627
  H     -0.449424    1.662369   -0.759070
  H      0.449642    1.663072    0.757677
  H     -0.684036   -0.444230    1.434356
  H     -1.797111    0.887404    1.149770
  H     -2.285468   -0.043348   -1.137304
  H     -2.731935   -1.140734    0.170457
  H     -1.268072   -1.435494   -0.761211

 Total Charge           Charge          ....    0
 Multiplicity           Mult            ....    1
 Number of Electrons    NEL             ....   42
 Basis Dimension        Dim             ....  155

ORBITAL ENERGIES
----------------

  NO   OCC          E(Eh)            E(eV)
   0   2.0000     -10.020745      -272.6783
   1   2.0000     -10.020738      -272.6782
   2   2.0000     -10.019065      -272.6326
   3   2.0000     -10.013389      -272.4782
   4   2.0000     -10.013379      -272.4779
   5   2.0000      -0.767847       -20.8942
   6   2.0000      -0.711365       -19.3572
   7   2.0000      -0.642684       -17.4883
   8   2.0000      -0.581461       -15.8224
   9   2.0000      -0.517168       -14.0728
  10   2.0000      -0.434557       -11.8249
  11   2.0000      -0.429766       -11.6945
  12   2.0000      -0.380955       -10.3663
  13   2.0000      -0.378805       -10.3078
  14   2.0000      -0.370528       -10.0826
  15   2.0000      -0.332574        -9.0498
  16   2.0000      -0.322202        -8.7676
  17   2.0000      -0.316894        -8.6231
  18   2.0000      -0.288658        -7.8548
  19   2.0000      -0.281191        -7.6516
  20   2.0000      -0.280999        -7.6464
  21   0.0000       0.086121         2.3435
  22   0.0000       0.118179         3.2158
  23   0.0000       0.120496         3.2789
  24   0.0000       0.129563         3.5256
  25   0.0000       0.135262         3.6807

MULLIKEN ATOMIC CHARGES
-----------------------
   0 C :   -0.483187
   1 C :   -0.251042
   2 C :   -0.244749
   3 C :   -0.251143
   4 C :   -0.483251
   5 H :    0.143587
   6 H :    0.145452
   7 H :    0.147407
   8 H :    0.139696
   9 H :    0.141695
  10 H :    0.138831
  11 H :    0.138811
  12 H :    0.141681
  13 H :    0.139701
  14 H :    0.143606
  15 H :    0.145458
  16 H :    0.147444
Sum of atomic charges:    0.0000000

LOEWDIN ATOMIC CHARGES
----------------------
   0 C :   -0.427180
   1 C :   -0.320154
   2 C :   -0.316067
   3 C :   -0.320169
   4 C :   -0.427203
   5 H :    0.150346
   6 H :    0.150627
   7 H :    0.148251
   8 H :    0.151735
   9 H :    0.150672
  10 H :    0.153750
  11 H :    0.153756
  12 H :    0.150660
  13 H :    0.151736
  14 H :    0.150349
  15 H :    0.150632
  16 H :    0.148257

  Mayer bond orders larger than 0.100000
B(  0-C ,  1-C ) :   0.8937 B(  0-C ,  5-H ) :   0.9804 B(  0-C ,  6-H ) :   0.9697
B(  0-C ,  7-H ) :   0.9817 B(  1-C ,  2-C ) :   0.9015 B(  1-C ,  8-H ) :   0.9640
B(  1-C ,  9-H ) :   0.9847 B(  2-C ,  3-C ) :   0.9015 B(  2-C , 10-H ) :   0.9766
B(  2-C , 11-H ) :   0.9766 B(  3-C ,  4-C ) :   0.8936 B(  3-C , 12-H ) :   0.9847
B(  3-C , 13-H ) :   0.9641 B(  4-C , 14-H ) :   0.9804 B(  4-C , 15-H ) :   0.9697
B(  4-C , 16-H ) :   0.9817

Dispersion correction           -0.003850826
FINAL SINGLE POINT ENERGY      -197.686764005592

DIPOLE MOMENT
-------------

Method             : SCF
Type of density    : Electron Density
Multiplicity       :   1
Irrep              :   0
Energy             :  -197.6909267693343111 Eh
Relativity type    :
Basis              : AO
                                X                 Y                 Z
Electronic contribution:     -0.000096509       0.991929772      -0.000118383
Nuclear contribution   :      0.000085389      -0.965000527       0.000066808
                        -----------------------------------------
Total Dipole Moment    :     -0.000011121       0.026929244      -0.000051575
                        -----------------------------------------
Magnitude (a.u.)       :      0.026929296
Magnitude (Debye)      :      0.068448831

Rotational constants in cm-1:             0.267872             0.095051             0.088440
Rotational constants in MHz :          8030.591352          2849.564350          2651.362327

                             ****ORCA TERMINATED NORMALLY****
TOTAL RUN TIME: 0 days 0 hours 0 minutes 13 seconds 74 msec
