                         Program Version 6.0.0  -   RELEASE  -
|  1> ! r2scan-3c def2/J RI DEFGRID2 scfconv6 printgap
|  2> %output
|  3>     printlevel normal
|  4> end
|  5> %cpcm
|  6>     smd true
|  7>     smdsolvent "water"
|  8> end
|  9> * xyz 0 1
| 10> C 1.8950439514 -0.6590684971 0.3306300847
| 11> C 1.1090325342 0.1937024019 -0.6589983507
| 12> C 4.73973e-05 1.0165829284 -0.0003660485
| 13> C -1.1092245416 0.1945133997 0.6588245822
| 14> C -1.894906979 -0.6594147826 -0.3300962434
| 15> H 2.2878324251 -0.0418050812 1.1358303053
| 16> H 2.7305335984 -1.1426200757 -0.1702974822
| 17> H 1.2678681474 -1.4333245948 0.7644772971
| 18> H 1.7967836663 0.8859739114 -1.1509869151
| 19> H 0.6834772365 -0.4458708571 -1.4336272425
| 20> H -0.4494237684 1.6623685897 -0.7590698461
| 21> H 0.4496420557 1.663071555 0.7576772223
| 22> H -0.6840360973 -0.4442302836 1.4343555559
| 23> H -1.7971109493 0.8874044308 1.1497704251
| 24> H -2.2854680898 -0.0433483394 -1.1373043116
| 25> H -2.7319351478 -1.1407340948 0.1704570624
| 26> H -1.2680720598 -1.4354940238 -0.7612108583
| 27> *
| 28>
| 29>                          ****END OF INPUT****

CARTESIAN COORDINATES (ANGSTROEM)
---------------------------------
  C      1.895044   -0.659068    0.330630
  C      1.109033    0.193702   -0.658998
  C      0.000047    1.016583   -0.000366
  C     -1.109225    0.194513    0.658825
  C     -1.894907   -0.659415   -0.330096
  H      2.287832   -0.041805    1.135830
  H      2.730534   -1.142620   -0.170297
  H      1.267868   -1.433325    0.764477
  H      1.796784    0.885974   -1.150987
  H      0.683477   -0.445871   -1.433627
  H     -0.449424    1.662369   -0.759070
  H      0.449642    1.663072    0.757677
  H     -0.684036   -0.444230    1.434356
  H     -1.797111    0.887404    1.149770
  H     -2.285468   -0.043348   -1.137304
  H     -2.731935   -1.140734    0.170457
  H     -1.268072   -1.435494   -0.761211

 Total Charge           Charge          ....    0
 Multiplicity           Mult            ....    1
 Number of Electrons    NEL             ....   42
 Basis Dimension        Dim             ....  155

ORBITAL ENERGIES
----------------

  NO   OCC          E(Eh)            E(eV)
   0   2.0000     -10.013771      -272.4886
   1   2.0000     -10.013765      -272.4884
   2   2.0000     -10.012039      -272.4414
   3   2.0000     -10.006224      -272.2832
   4   2.0000     -10.006215      -272.2830
   5   2.0000      -0.761033       -20.7088
   6   2.0000      -0.704709       -19.1761
   7   2.0000      -0.636172       -17.3111
   8   2.0000      -0.574960       -15.6455
   9   2.0000      -0.510635       -13.8951
  10   2.0000      -0.427489       -11.6326
  11   2.0000      -0.422821       -11.5056
  12   2.0000      -0.374198       -10.1825
  13   2.0000      -0.371949       -10.1212
  14   2.0000      -0.363769        -9.8987
  15   2.0000      -0.325813        -8.8658
  16   2.0000      -0.315122        -8.5749
  17   2.0000      -0.310085        -8.4378
  18   2.0000      -0.281574        -7.6620
  19   2.0000      -0.274196        -7.4612
  20   2.0000      -0.274176        -7.4607
  21   0.0000       0.093871         2.5544
  22   0.0000       0.124441         3.3862
  23   0.0000       0.126433         3.4404
  24   0.0000       0.135672         3.6918
  25   0.0000       0.140688         3.8283

MULLIKEN ATOMIC CHARGES
-----------------------
   0 C :   -0.520660
   1 C :   -0.257788
   2 C :   -0.263091
   3 C :   -0.257906
   4 C :   -0.520704
   5 H :    0.153699
   6 H :    0.154529
   7 H :    0.159182
   8 H :    0.146668
   9 H :    0.149372
  10 H :    0.146607
  11 H :    0.146589
  12 H :    0.149371
  13 H :    0.146673
  14 H :    0.153714
  15 H :    0.154539
  16 H :    0.159206
Sum of atomic charges:    0.0000000

LOEWDIN ATOMIC CHARGES
----------------------
   0 C :   -0.435359
   1 C :   -0.322687
   2 C :   -0.319406
   3 C :   -0.322706
   4 C :   -0.435377
   5 H :    0.152620
   6 H :    0.152459
   7 H :    0.151387
   8 H :    0.153134
   9 H :    0.152708
  10 H :    0.155455
  11 H :    0.155459
  12 H :    0.152700
  13 H :    0.153134
  14 H :    0.152624
  15 H :    0.152464
  16 H :    0.151390

  Mayer bond orders larger than 0.100000
B(  0-C ,  1-C ) :   0.8870 B(  0-C ,  5-H ) :   0.9781 B(  0-C ,  6-H ) :   0.9675
B(  0-C ,  7-H ) :   0.9787 B(  1-C ,  2-C ) :   0.8981 B(  1-C ,  8-H ) :   0.9641
B(  1-C ,  9-H ) :   0.9836 B(  2-C ,  3-C ) :   0.8981 B(  2-C , 10-H ) :   0.9763
B(  2-C , 11-H ) :   0.9763 B(  3-C ,  4-C ) :   0.8868 B(  3-C , 12-H ) :   0.9837
B(  3-C , 13-H ) :   0.9641 B(  4-C , 14-H ) :   0.9781 B(  4-C , 15-H ) :   0.9675
B(  4-C , 16-H ) :   0.9787

Dispersion correction           -0.003850826
FINAL SINGLE POINT ENERGY      -197.683886488215

DIPOLE MOMENT
-------------

Method             : SCF
Type of density    : Electron Density
Multiplicity       :   1
Irrep              :   0
Energy             :  -197.6880492519578638 Eh
Relativity type    :
Basis              : AO
                                X                 Y                 Z
Electronic contribution:     -0.000097971       0.990391223      -0.000136677
Nuclear contribution   :      0.000085389      -0.965000527       0.000066808
                        -----------------------------------------
Total Dipole Moment    :     -0.000012582       0.025390695      -0.000069869
                        -----------------------------------------
Magnitude (a.u.)       :      0.025390795
Magnitude (Debye)      :      0.064538271

Rotational constants in cm-1:             0.267872             0.095051             0.088440
Rotational constants in MHz :          8030.591352          2849.564350          2651.362327

                             ****ORCA TERMINATED NORMALLY****
TOTAL RUN TIME: 0 days 0 hours 0 minutes 15 seconds 221 msec
