                         Program Version 6.0.0  -   RELEASE  -
|  1> ! pbe def2-sv(p) def2/J RI DEFGRID1 loosescf d4 GCP(DFT/SV(P)) printgap
|  2> %output
|  3>     printlevel normal
|  4> end
|  5> * xyz 0 1
|  6> C 0.529915725 1.931934936 0.3426786393
|  7> C 1.8771289004 2.1912123762 0.41999042
|  8> C 2.8163611135 1.1800392933 0.1930743692
|  9> C 2.3524849405 -0.1138904529 -0.1178330275
| 10> C 0.9785495667 -0.3603441957 -0.1844855032
| 11> C 0.0589472901 0.6475830857 0.0420789391
| 12> C -1.3883650694 0.393801334 -0.0384907817
| 13> C -2.2361265968 1.2950254791 -0.6831081342
| 14> C -3.5979810802 1.0756115734 -0.7721285425
| 15> C -4.1228104286 -0.0668138329 -0.198699592
| 16> C -3.3326352395 -0.9896028373 0.458957551
| 17> C -1.975830187 -0.7378746265 0.5224614539
| 18> F -1.2083028525 -1.6368209038 1.1916972124
| 19> F -5.4591243067 -0.2967128535 -0.2778595774
| 20> C 3.3082311292 -1.1942210317 -0.3697667433
| 21> O 4.5268557348 -1.0518174283 -0.3079347811
| 22> O 2.7659711475 -2.3596231834 -0.6781383617
| 23> O 4.1128756177 1.495611085 0.2824428721
| 24> H -0.176027317 2.7234734767 0.5383046526
| 25> H 2.2460697648 3.1750038179 0.6600612389
| 26> H 0.6519830509 -1.3580247065 -0.4313484443
| 27> H -1.8097243353 2.1739753433 -1.1379498571
| 28> H -4.2477645955 1.7709613442 -1.2766029606
| 29> H -3.754010734 -1.8719962344 0.9104261552
| 30> H 3.440739079 -3.0485917508 -0.8334638814
| 31> H 4.6643757523 0.7003642827 0.1058430968
| 32> *
| 33>
| 34>                          ****END OF INPUT****

CARTESIAN COORDINATES (ANGSTROEM)
---------------------------------
  C      0.529916    1.931935    0.342679
  C      1.877129    2.191212    0.419990
  C      2.816361    1.180039    0.193074
  C      2.352485   -0.113890   -0.117833
  C      0.978550   -0.360344   -0.184486
  C      0.058947    0.647583    0.042079
  C     -1.388365    0.393801   -0.038491
  C     -2.236127    1.295025   -0.683108
  C     -3.597981    1.075612   -0.772129
  C     -4.122810   -0.066814   -0.198700
  C     -3.332635   -0.989603    0.458958
  C     -1.975830   -0.737875    0.522461
  F     -1.208303   -1.636821    1.191697
  F     -5.459124   -0.296713   -0.277860
  C      3.308231   -1.194221   -0.369767
  O      4.526856   -1.051817   -0.307935
  O      2.765971   -2.359623   -0.678138
  O      4.112876    1.495611    0.282443
  H     -0.176027    2.723473    0.538305
  H      2.246070    3.175004    0.660061
  H      0.651983   -1.358025   -0.431348
  H     -1.809724    2.173975   -1.137950
  H     -4.247765    1.770961   -1.276603
  H     -3.754011   -1.871996    0.910426
  H      3.440739   -3.048592   -0.833464
  H      4.664376    0.700364    0.105843

 Total Charge           Charge          ....    0
 Multiplicity           Mult            ....    1
 Number of Electrons    NEL             ....  128
 Basis Dimension        Dim             ....  268

ORBITAL ENERGIES
----------------

  NO   OCC          E(Eh)            E(eV)
   0   2.0000     -24.281109      -660.7226
   1   2.0000     -24.276728      -660.6033
   2   2.0000     -18.815315      -511.9907
   3   2.0000     -18.783319      -511.1201
   4   2.0000     -18.762348      -510.5495
   5   2.0000     -10.033039      -273.0129
   6   2.0000      -9.988138      -271.7910
   7   2.0000      -9.986631      -271.7500
   8   2.0000      -9.972477      -271.3649
   9   2.0000      -9.919181      -269.9146
  10   2.0000      -9.916129      -269.8316
  11   2.0000      -9.916045      -269.8293
  12   2.0000      -9.913405      -269.7575
  13   2.0000      -9.911790      -269.7135
  14   2.0000      -9.909916      -269.6625
  15   2.0000      -9.908823      -269.6328
  16   2.0000      -9.908006      -269.6106
  17   2.0000      -9.900520      -269.4068
  18   2.0000      -1.108041       -30.1513
  19   2.0000      -1.103646       -30.0317
  20   2.0000      -1.027540       -27.9608
  21   2.0000      -0.972852       -26.4727
  22   2.0000      -0.927580       -25.2407
  23   2.0000      -0.807094       -21.9621
  24   2.0000      -0.786765       -21.4090
  25   2.0000      -0.719503       -19.5787
  26   2.0000      -0.703109       -19.1326
  27   2.0000      -0.692172       -18.8350
  28   2.0000      -0.658692       -17.9239
  29   2.0000      -0.618318       -16.8253
  30   2.0000      -0.583631       -15.8814
  31   2.0000      -0.575415       -15.6578
  32   2.0000      -0.567968       -15.4552
  33   2.0000      -0.543055       -14.7773
  34   2.0000      -0.509372       -13.8607
  35   2.0000      -0.503273       -13.6947
  36   2.0000      -0.480465       -13.0741
  37   2.0000      -0.470504       -12.8031
  38   2.0000      -0.450073       -12.2471
  39   2.0000      -0.444623       -12.0988
  40   2.0000      -0.435552       -11.8520
  41   2.0000      -0.432237       -11.7618
  42   2.0000      -0.423556       -11.5256
  43   2.0000      -0.418440       -11.3863
  44   2.0000      -0.408974       -11.1287
  45   2.0000      -0.402533       -10.9535
  46   2.0000      -0.394510       -10.7352
  47   2.0000      -0.388332       -10.5671
  48   2.0000      -0.376008       -10.2317
  49   2.0000      -0.370249       -10.0750
  50   2.0000      -0.356339        -9.6965
  51   2.0000      -0.352145        -9.5824
  52   2.0000      -0.338923        -9.2226
  53   2.0000      -0.326683        -8.8895
  54   2.0000      -0.323479        -8.8023
  55   2.0000      -0.320006        -8.7078
  56   2.0000      -0.306850        -8.3498
  57   2.0000      -0.304667        -8.2904
  58   2.0000      -0.291505        -7.9323
  59   2.0000      -0.247736        -6.7412
  60   2.0000      -0.246589        -6.7100
  61   2.0000      -0.243836        -6.6351
  62   2.0000      -0.235329        -6.4036
  63   2.0000      -0.198373        -5.3980
  64   0.0000      -0.084111        -2.2888
  65   0.0000      -0.059990        -1.6324
  66   0.0000      -0.049019        -1.3339
  67   0.0000      -0.018930        -0.5151
  68   0.0000       0.013023         0.3544

MULLIKEN ATOMIC CHARGES
-----------------------
   0 C :   -0.097245
   1 C :   -0.127099
   2 C :    0.154440
   3 C :   -0.019817
   4 C :   -0.175039
   5 C :    0.149748
   6 C :    0.040251
   7 C :   -0.123588
   8 C :   -0.140002
   9 C :    0.354959
  10 C :   -0.260132
  11 C :    0.259322
  12 F :   -0.163097
  13 F :   -0.173403
  14 C :    0.138077
  15 O :   -0.239095
  16 O :   -0.276591
  17 O :   -0.302406
  18 H :    0.055411
  19 H :    0.050529
  20 H :    0.059467
  21 H :    0.060240
  22 H :    0.060674
  23 H :    0.064044
  24 H :    0.325990
  25 H :    0.324362
Sum of atomic charges:   -0.0000000

LOEWDIN ATOMIC CHARGES
----------------------
   0 C :   -0.088701
   1 C :   -0.142125
   2 C :    0.054170
   3 C :   -0.125707
   4 C :   -0.078417
   5 C :   -0.052177
   6 C :   -0.064431
   7 C :   -0.097963
   8 C :   -0.158925
   9 C :    0.073878
  10 C :   -0.173626
  11 C :    0.082709
  12 F :   -0.044441
  13 F :   -0.053735
  14 C :    0.049498
  15 O :   -0.199681
  16 O :   -0.187550
  17 O :   -0.211281
  18 H :    0.130036
  19 H :    0.135997
  20 H :    0.133887
  21 H :    0.132550
  22 H :    0.138627
  23 H :    0.148489
  24 H :    0.307197
  25 H :    0.291721

  Mayer bond orders larger than 0.100000
B(  0-C ,  1-C ) :   1.3819 B(  0-C ,  5-C ) :   1.3148 B(  0-C , 18-H ) :   0.9606
B(  1-C ,  2-C ) :   1.3257 B(  1-C , 19-H ) :   0.9630 B(  2-C ,  3-C ) :   1.2298
B(  2-C , 17-O ) :   1.3432 B(  3-C ,  4-C ) :   1.3063 B(  3-C , 14-C ) :   0.9836
B(  4-C ,  5-C ) :   1.3508 B(  4-C , 20-H ) :   0.9584 B(  5-C ,  6-C ) :   0.9780
B(  6-C ,  7-C ) :   1.3668 B(  6-C , 11-C ) :   1.3335 B(  7-C ,  8-C ) :   1.3291
B(  7-C , 21-H ) :   0.9565 B(  8-C ,  9-C ) :   1.3438 B(  8-C , 22-H ) :   0.9686
B(  9-C , 10-C ) :   1.2881 B(  9-C , 13-F ) :   1.0869 B( 10-C , 11-C ) :   1.3025
B( 10-C , 23-H ) :   0.9752 B( 11-C , 12-F ) :   1.1062 B( 14-C , 15-O ) :   1.9270
B( 14-C , 16-O ) :   1.3348 B( 15-O , 25-H ) :   0.1380 B( 16-O , 24-H ) :   0.8160
B( 17-O , 25-H ) :   0.7583

Dispersion correction           -0.034722303
FINAL SINGLE POINT ENERGY      -923.765174737976

DIPOLE MOMENT
-------------

Method             : SCF
Type of density    : Electron Density
Multiplicity       :   1
Irrep              :   0
Energy             :  -923.8503333144155931 Eh
Relativity type    :
Basis              : AO
                                X                 Y                 Z
Electronic contribution:     -7.415612370      -6.024041991       1.885596534
Nuclear contribution   :      7.299169765       5.764583546      -2.231277527
                        -----------------------------------------
Total Dipole Moment    :     -0.116442605      -0.259458444      -0.345680993
                        -----------------------------------------
Magnitude (a.u.)       :      0.447630331
Magnitude (Debye)      :      1.137785881

Rotational constants in cm-1:             0.033540             0.006929             0.006027
Rotational constants in MHz :          1005.502472           207.736986           180.698387

                             ****ORCA TERMINATED NORMALLY****
TOTAL RUN TIME: 0 days 0 hours 0 minutes 23 seconds 744 msec
