                         Program Version 6.0.0  -   RELEASE  -
|  1> ! r2scan-3c def2/J RI DEFGRID2 scfconv6 printgap
|  2> %output
|  3>     printlevel normal
|  4> end
|  5> * xyz 0 1
|  6> C -3.6621904119 -0.1126038976 -0.0006475285
|  7> C -2.2853603845 0.5325471947 -0.0006155023
|  8> O -1.32185022 -0.5112327992 0.0010595909
|  9> C 0.0034851242 -0.1919857357 0.0006200289
| 10> C 0.5136369465 1.1014176966 0.0005798127
| 11> C 1.8855034659 1.2989781575 -2.3098e-06
| 12> C 2.7565292136 0.2259949222 -0.0005983483
| 13> C 2.2478821232 -1.0642725294 -0.0004336412
| 14> C 0.8849874444 -1.2748259002 0.0001441102
| 15> H -3.7783386149 -0.7346018589 0.8823517391
| 16> H -4.4265892057 0.6576569881 -0.0018137259
| 17> H -3.7775927789 -0.7366531087 -0.8822594621
| 18> H -2.1558670583 1.157979567 0.8922675875
| 19> H -2.1547100732 1.1561709877 -0.8946714258
| 20> H -0.142312311 1.9572558622 0.000969032
| 21> H 2.269866129 2.3079228487 0.0001825315
| 22> H 3.8226755999 0.3904748216 -0.001179503
| 23> H 2.9175547229 -1.910693286 -0.0011779367
| 24> H 0.4696026502 -2.2703650869 -0.0001275049
| 25> *
| 26>
| 27>                          ****END OF INPUT****

CARTESIAN COORDINATES (ANGSTROEM)
---------------------------------
  C     -3.662190   -0.112604   -0.000648
  C     -2.285360    0.532547   -0.000616
  O     -1.321850   -0.511233    0.001060
  C      0.003485   -0.191986    0.000620
  C      0.513637    1.101418    0.000580
  C      1.885503    1.298978   -0.000002
  C      2.756529    0.225995   -0.000598
  C      2.247882   -1.064273   -0.000434
  C      0.884987   -1.274826    0.000144
  H     -3.778339   -0.734602    0.882352
  H     -4.426589    0.657657   -0.001814
  H     -3.777593   -0.736653   -0.882259
  H     -2.155867    1.157980    0.892268
  H     -2.154710    1.156171   -0.894671
  H     -0.142312    1.957256    0.000969
  H      2.269866    2.307923    0.000183
  H      3.822676    0.390475   -0.001180
  H      2.917555   -1.910693   -0.001178
  H      0.469603   -2.270365   -0.000128

 Total Charge           Charge          ....    0
 Multiplicity           Mult            ....    1
 Number of Electrons    NEL             ....   66
 Basis Dimension        Dim             ....  226

ORBITAL ENERGIES
----------------

  NO   OCC          E(Eh)            E(eV)
   0   2.0000     -18.981636      -516.5166
   1   2.0000     -10.092464      -274.6299
   2   2.0000     -10.091638      -274.6074
   3   2.0000     -10.033579      -273.0276
   4   2.0000     -10.032336      -272.9937
   5   2.0000     -10.030894      -272.9545
   6   2.0000     -10.029489      -272.9163
   7   2.0000     -10.026952      -272.8472
   8   2.0000     -10.024289      -272.7748
   9   2.0000      -1.030360       -28.0375
  10   2.0000      -0.820897       -22.3377
  11   2.0000      -0.746930       -20.3250
  12   2.0000      -0.715822       -19.4785
  13   2.0000      -0.693626       -18.8745
  14   2.0000      -0.612536       -16.6680
  15   2.0000      -0.573306       -15.6004
  16   2.0000      -0.553042       -15.0490
  17   2.0000      -0.509285       -13.8583
  18   2.0000      -0.456798       -12.4301
  19   2.0000      -0.454239       -12.3605
  20   2.0000      -0.437286       -11.8992
  21   2.0000      -0.410582       -11.1725
  22   2.0000      -0.389477       -10.5982
  23   2.0000      -0.372163       -10.1271
  24   2.0000      -0.368908       -10.0385
  25   2.0000      -0.366593        -9.9755
  26   2.0000      -0.334877        -9.1125
  27   2.0000      -0.330219        -8.9857
  28   2.0000      -0.321709        -8.7541
  29   2.0000      -0.292106        -7.9486
  30   2.0000      -0.289498        -7.8776
  31   2.0000      -0.235395        -6.4054
  32   2.0000      -0.200795        -5.4639
  33   0.0000      -0.029315        -0.7977
  34   0.0000      -0.013727        -0.3735
  35   0.0000       0.076722         2.0877
  36   0.0000       0.089474         2.4347
  37   0.0000       0.101890         2.7726

MULLIKEN ATOMIC CHARGES
-----------------------
   0 C :   -0.485737
   1 C :   -0.147812
   2 O :   -0.168060
   3 C :    0.335488
   4 C :   -0.262146
   5 C :   -0.160897
   6 C :   -0.177829
   7 C :   -0.117450
   8 C :   -0.304844
   9 H :    0.156221
  10 H :    0.145177
  11 H :    0.156221
  12 H :    0.144830
  13 H :    0.144895
  14 H :    0.146626
  15 H :    0.144936
  16 H :    0.146106
  17 H :    0.147678
  18 H :    0.156594
Sum of atomic charges:   -0.0000000

LOEWDIN ATOMIC CHARGES
----------------------
   0 C :   -0.385304
   1 C :    0.021781
   2 O :   -0.682513
   3 C :    0.193636
   4 C :   -0.177045
   5 C :   -0.155294
   6 C :   -0.192251
   7 C :   -0.156078
   8 C :   -0.135159
   9 H :    0.160753
  10 H :    0.157478
  11 H :    0.160745
  12 H :    0.167313
  13 H :    0.167352
  14 H :    0.174084
  15 H :    0.167002
  16 H :    0.165842
  17 H :    0.167579
  18 H :    0.180081

  Mayer bond orders larger than 0.100000
B(  0-C ,  1-C ) :   0.9496 B(  0-C ,  9-H ) :   0.9762 B(  0-C , 10-H ) :   0.9697
B(  0-C , 11-H ) :   0.9762 B(  1-C ,  2-O ) :   0.7936 B(  1-C , 12-H ) :   0.9457
B(  1-C , 13-H ) :   0.9457 B(  2-O ,  3-C ) :   1.0327 B(  3-C ,  4-C ) :   1.3975
B(  3-C ,  8-C ) :   1.4054 B(  4-C ,  5-C ) :   1.3760 B(  4-C , 14-H ) :   0.9310
B(  5-C ,  6-C ) :   1.4465 B(  5-C , 15-H ) :   0.9494 B(  6-C ,  7-C ) :   1.3939
B(  6-C , 16-H ) :   0.9472 B(  7-C ,  8-C ) :   1.4032 B(  7-C , 17-H ) :   0.9465
B(  8-C , 18-H ) :   0.9470

Dispersion correction           -0.005754755
FINAL SINGLE POINT ENERGY      -385.985950692293

DIPOLE MOMENT
-------------

Method             : SCF
Type of density    : Electron Density
Multiplicity       :   1
Irrep              :   0
Energy             :  -385.9879811631656139 Eh
Relativity type    :
Basis              : AO
                                X                 Y                 Z
Electronic contribution:      6.130795644      -1.460547664       0.004236654
Nuclear contribution   :     -6.545220367       1.845445329      -0.005105449
                        -----------------------------------------
Total Dipole Moment    :     -0.414424723       0.384897664      -0.000868795
                        -----------------------------------------
Magnitude (a.u.)       :      0.565592449
Magnitude (Debye)      :      1.437621755

Rotational constants in cm-1:             0.164588             0.030716             0.026140
Rotational constants in MHz :          4934.224921           920.843183           783.669872

                             ****ORCA TERMINATED NORMALLY****
TOTAL RUN TIME: 0 days 0 hours 0 minutes 28 seconds 409 msec
