                         Program Version 6.0.0  -   RELEASE  -
|  1> ! r2scan-3c def2/J RI DEFGRID2 scfconv6 printgap
|  2> %output
|  3>     printlevel normal
|  4> end
|  5> %cpcm
|  6>     smd true
|  7>     smdsolvent "water"
|  8> end
|  9> * xyz 0 1
| 10> C -3.6621904119 -0.1126038976 -0.0006475285
| 11> C -2.2853603845 0.5325471947 -0.0006155023
| 12> O -1.32185022 -0.5112327992 0.0010595909
| 13> C 0.0034851242 -0.1919857357 0.0006200289
| 14> C 0.5136369465 1.1014176966 0.0005798127
| 15> C 1.8855034659 1.2989781575 -2.3098e-06
| 16> C 2.7565292136 0.2259949222 -0.0005983483
| 17> C 2.2478821232 -1.0642725294 -0.0004336412
| 18> C 0.8849874444 -1.2748259002 0.0001441102
| 19> H -3.7783386149 -0.7346018589 0.8823517391
| 20> H -4.4265892057 0.6576569881 -0.0018137259
| 21> H -3.7775927789 -0.7366531087 -0.8822594621
| 22> H -2.1558670583 1.157979567 0.8922675875
| 23> H -2.1547100732 1.1561709877 -0.8946714258
| 24> H -0.142312311 1.9572558622 0.000969032
| 25> H 2.269866129 2.3079228487 0.0001825315
| 26> H 3.8226755999 0.3904748216 -0.001179503
| 27> H 2.9175547229 -1.910693286 -0.0011779367
| 28> H 0.4696026502 -2.2703650869 -0.0001275049
| 29> *
| 30>
| 31>                          ****END OF INPUT****

CARTESIAN COORDINATES (ANGSTROEM)
---------------------------------
  C     -3.662190   -0.112604   -0.000648
  C     -2.285360    0.532547   -0.000616
  O     -1.321850   -0.511233    0.001060
  C      0.003485   -0.191986    0.000620
  C      0.513637    1.101418    0.000580
  C      1.885503    1.298978   -0.000002
  C      2.756529    0.225995   -0.000598
  C      2.247882   -1.064273   -0.000434
  C      0.884987   -1.274826    0.000144
  H     -3.778339   -0.734602    0.882352
  H     -4.426589    0.657657   -0.001814
  H     -3.777593   -0.736653   -0.882259
  H     -2.155867    1.157980    0.892268
  H     -2.154710    1.156171   -0.894671
  H     -0.142312    1.957256    0.000969
  H      2.269866    2.307923    0.000183
  H      3.822676    0.390475   -0.001180
  H      2.917555   -1.910693   -0.001178
  H      0.469603   -2.270365   -0.000128

 Total Charge           Charge          ....    0
 Multiplicity           Mult            ....    1
 Number of Electrons    NEL             ....   66
 Basis Dimension        Dim             ....  226

ORBITAL ENERGIES
----------------

  NO   OCC          E(Eh)            E(eV)
   0   2.0000     -18.985677      -516.6265
   1   2.0000     -10.096566      -274.7415
   2   2.0000     -10.080225      -274.2969
   3   2.0000     -10.034872      -273.0628
   4   2.0000     -10.034695      -273.0579
   5   2.0000     -10.031681      -272.9759
   6   2.0000     -10.030570      -272.9457
   7   2.0000     -10.026289      -272.8292
   8   2.0000     -10.016824      -272.5716
   9   2.0000      -1.033671       -28.1276
  10   2.0000      -0.824915       -22.4471
  11   2.0000      -0.742221       -20.1969
  12   2.0000      -0.718331       -19.5468
  13   2.0000      -0.692350       -18.8398
  14   2.0000      -0.607946       -16.5431
  15   2.0000      -0.574602       -15.6357
  16   2.0000      -0.549524       -14.9533
  17   2.0000      -0.507379       -13.8065
  18   2.0000      -0.455701       -12.4003
  19   2.0000      -0.447181       -12.1684
  20   2.0000      -0.439069       -11.9477
  21   2.0000      -0.408686       -11.1209
  22   2.0000      -0.389022       -10.5858
  23   2.0000      -0.372060       -10.1243
  24   2.0000      -0.364551        -9.9200
  25   2.0000      -0.357165        -9.7190
  26   2.0000      -0.331653        -9.0247
  27   2.0000      -0.328472        -8.9382
  28   2.0000      -0.319572        -8.6960
  29   2.0000      -0.292729        -7.9656
  30   2.0000      -0.288853        -7.8601
  31   2.0000      -0.241336        -6.5671
  32   2.0000      -0.206314        -5.6141
  33   0.0000      -0.034404        -0.9362
  34   0.0000      -0.019284        -0.5247
  35   0.0000       0.081210         2.2098
  36   0.0000       0.097730         2.6594
  37   0.0000       0.111761         3.0412

MULLIKEN ATOMIC CHARGES
-----------------------
   0 C :   -0.529638
   1 C :   -0.131599
   2 O :   -0.208015
   3 C :    0.320193
   4 C :   -0.264726
   5 C :   -0.205340
   6 C :   -0.215429
   7 C :   -0.158295
   8 C :   -0.342351
   9 H :    0.164652
  10 H :    0.168304
  11 H :    0.164656
  12 H :    0.164530
  13 H :    0.164545
  14 H :    0.185162
  15 H :    0.179143
  16 H :    0.178589
  17 H :    0.181801
  18 H :    0.183818
Sum of atomic charges:   -0.0000000

LOEWDIN ATOMIC CHARGES
----------------------
   0 C :   -0.391795
   1 C :    0.027457
   2 O :   -0.707816
   3 C :    0.181300
   4 C :   -0.177623
   5 C :   -0.164382
   6 C :   -0.205008
   7 C :   -0.166328
   8 C :   -0.150125
   9 H :    0.161641
  10 H :    0.166632
  11 H :    0.161632
  12 H :    0.176791
  13 H :    0.176814
  14 H :    0.188548
  15 H :    0.178818
  16 H :    0.176187
  17 H :    0.178938
  18 H :    0.188320

  Mayer bond orders larger than 0.100000
B(  0-C ,  1-C ) :   0.9290 B(  0-C ,  9-H ) :   0.9744 B(  0-C , 10-H ) :   0.9638
B(  0-C , 11-H ) :   0.9744 B(  1-C ,  2-O ) :   0.7922 B(  1-C , 12-H ) :   0.9406
B(  1-C , 13-H ) :   0.9406 B(  2-O ,  3-C ) :   1.0133 B(  3-C ,  4-C ) :   1.3749
B(  3-C ,  8-C ) :   1.3502 B(  4-C ,  5-C ) :   1.3434 B(  4-C , 14-H ) :   0.9361
B(  5-C ,  6-C ) :   1.4013 B(  5-C , 15-H ) :   0.9616 B(  6-C ,  7-C ) :   1.3564
B(  6-C , 16-H ) :   0.9562 B(  7-C ,  8-C ) :   1.3852 B(  7-C , 17-H ) :   0.9523
B(  8-C , 18-H ) :   0.9557

Dispersion correction           -0.005754755
FINAL SINGLE POINT ENERGY      -385.989742399251

DIPOLE MOMENT
-------------

Method             : SCF
Type of density    : Electron Density
Multiplicity       :   1
Irrep              :   0
Energy             :  -385.9917728701239525 Eh
Relativity type    :
Basis              : AO
                                X                 Y                 Z
Electronic contribution:      6.067370270      -1.184910216       0.003883273
Nuclear contribution   :     -6.545220367       1.845445329      -0.005105449
                        -----------------------------------------
Total Dipole Moment    :     -0.477850097       0.660535112      -0.001222175
                        -----------------------------------------
Magnitude (a.u.)       :      0.815259985
Magnitude (Debye)      :      2.072226200

Rotational constants in cm-1:             0.164588             0.030716             0.026140
Rotational constants in MHz :          4934.224921           920.843183           783.669872

                             ****ORCA TERMINATED NORMALLY****
TOTAL RUN TIME: 0 days 0 hours 0 minutes 34 seconds 157 msec
