                         Program Version 6.0.0  -   RELEASE  -
|  1> ! r2scan-3c def2/J RI DEFGRID2 scfconv6 printgap
|  2> %output
|  3>     printlevel normal
|  4> end
|  5> * xyz 0 1
|  6> C -0.4617453176 2.3494002228 -0.3603797522
|  7> N -0.1454945657 1.0136943488 -0.8270077946
|  8> C -1.2822842399 0.1874824818 -1.1167951229
|  9> C -1.9601160604 -0.3909805329 0.1331390172
| 10> F -2.5365416599 0.5426902942 0.9126887216
| 11> F -2.9446717773 -1.2543533154 -0.1937908971
| 12> F -1.1175345503 -1.0694597862 0.9299485849
| 13> C 1.0380686203 0.4100624267 -0.3893395286
| 14> C 1.4878028846 -0.780888 -0.9680896555
| 15> C 2.6844603406 -1.350443149 -0.5822570004
| 16> C 3.4732549871 -0.7523513556 0.3861161467
| 17> C 3.0431752137 0.4292187055 0.9614029934
| 18> C 1.8439277749 1.0049978405 0.5837610903
| 19> H -1.2862298553 2.7355811756 -0.9564495085
| 20> H 0.4032318134 2.9897015202 -0.5180629407
| 21> H -0.7503991502 2.3851406007 0.695899446
| 22> H -2.040604638 0.77187086 -1.6444643256
| 23> H -1.0043369582 -0.6669159089 -1.7358419822
| 24> H 0.9140858151 -1.2695658189 -1.7395215742
| 25> H 3.0057666838 -2.2702128432 -1.0481692578
| 26> H 4.4071672621 -1.2014755017 0.6863047419
| 27> H 3.6417143731 0.9097146862 1.7213338566
| 28> H 1.5363633322 1.916206616 1.0687711839
| 29> *
| 30>
| 31>                          ****END OF INPUT****

CARTESIAN COORDINATES (ANGSTROEM)
---------------------------------
  C     -0.461745    2.349400   -0.360380
  N     -0.145495    1.013694   -0.827008
  C     -1.282284    0.187482   -1.116795
  C     -1.960116   -0.390981    0.133139
  F     -2.536542    0.542690    0.912689
  F     -2.944672   -1.254353   -0.193791
  F     -1.117535   -1.069460    0.929949
  C      1.038069    0.410062   -0.389340
  C      1.487803   -0.780888   -0.968090
  C      2.684460   -1.350443   -0.582257
  C      3.473255   -0.752351    0.386116
  C      3.043175    0.429219    0.961403
  C      1.843928    1.004998    0.583761
  H     -1.286230    2.735581   -0.956450
  H      0.403232    2.989702   -0.518063
  H     -0.750399    2.385141    0.695899
  H     -2.040605    0.771871   -1.644464
  H     -1.004337   -0.666916   -1.735842
  H      0.914086   -1.269566   -1.739522
  H      3.005767   -2.270213   -1.048169
  H      4.407167   -1.201476    0.686305
  H      3.641714    0.909715    1.721334
  H      1.536363    1.916207    1.068771

 Total Charge           Charge          ....    0
 Multiplicity           Mult            ....    1
 Number of Electrons    NEL             ....   98
 Basis Dimension        Dim             ....  317

ORBITAL ENERGIES
----------------

  NO   OCC          E(Eh)            E(eV)
   0   2.0000     -24.518308      -667.1771
   1   2.0000     -24.516090      -667.1167
   2   2.0000     -24.514977      -667.0864
   3   2.0000     -14.195903      -386.2902
   4   2.0000     -10.278225      -279.6847
   5   2.0000     -10.101228      -274.8684
   6   2.0000     -10.078589      -274.2524
   7   2.0000     -10.068805      -273.9861
   8   2.0000     -10.033839      -273.0346
   9   2.0000     -10.033439      -273.0237
  10   2.0000     -10.032265      -272.9918
  11   2.0000     -10.030455      -272.9426
  12   2.0000     -10.024831      -272.7895
  13   2.0000      -1.273993       -34.6671
  14   2.0000      -1.184509       -32.2321
  15   2.0000      -1.182753       -32.1843
  16   2.0000      -0.936048       -25.4712
  17   2.0000      -0.820588       -22.3293
  18   2.0000      -0.751490       -20.4491
  19   2.0000      -0.722285       -19.6544
  20   2.0000      -0.711706       -19.3665
  21   2.0000      -0.661375       -17.9969
  22   2.0000      -0.630799       -17.1649
  23   2.0000      -0.577901       -15.7255
  24   2.0000      -0.566079       -15.4038
  25   2.0000      -0.555668       -15.1205
  26   2.0000      -0.552336       -15.0298
  27   2.0000      -0.523651       -14.2493
  28   2.0000      -0.501363       -13.6428
  29   2.0000      -0.462700       -12.5907
  30   2.0000      -0.453770       -12.3477
  31   2.0000      -0.430228       -11.7071
  32   2.0000      -0.428388       -11.6570
  33   2.0000      -0.424702       -11.5567
  34   2.0000      -0.422063       -11.4849
  35   2.0000      -0.402528       -10.9533
  36   2.0000      -0.391813       -10.6618
  37   2.0000      -0.389028       -10.5860
  38   2.0000      -0.382861       -10.4182
  39   2.0000      -0.371871       -10.1191
  40   2.0000      -0.367330        -9.9956
  41   2.0000      -0.365392        -9.9428
  42   2.0000      -0.359621        -9.7858
  43   2.0000      -0.346505        -9.4289
  44   2.0000      -0.327398        -8.9090
  45   2.0000      -0.310765        -8.4563
  46   2.0000      -0.268706        -7.3119
  47   2.0000      -0.236498        -6.4354
  48   2.0000      -0.187363        -5.0984
  49   0.0000      -0.032243        -0.8774
  50   0.0000      -0.019865        -0.5406
  51   0.0000       0.057250         1.5578
  52   0.0000       0.066855         1.8192
  53   0.0000       0.088880         2.4186

MULLIKEN ATOMIC CHARGES
-----------------------
   0 C :   -0.433406
   1 N :    0.095479
   2 C :   -0.388081
   3 C :    0.606491
   4 F :   -0.212773
   5 F :   -0.208855
   6 F :   -0.199042
   7 C :    0.249901
   8 C :   -0.307483
   9 C :   -0.131775
  10 C :   -0.181093
  11 C :   -0.152953
  12 C :   -0.290604
  13 H :    0.145851
  14 H :    0.164232
  15 H :    0.175351
  16 H :    0.185691
  17 H :    0.181707
  18 H :    0.123174
  19 H :    0.144946
  20 H :    0.145623
  21 H :    0.144359
  22 H :    0.143260
Sum of atomic charges:   -0.0000000

LOEWDIN ATOMIC CHARGES
----------------------
   0 C :   -0.122435
   1 N :   -0.887829
   2 C :   -0.002707
   3 C :    0.522771
   4 F :   -0.213198
   5 F :   -0.220657
   6 F :   -0.196914
   7 C :    0.145798
   8 C :   -0.148926
   9 C :   -0.153404
  10 C :   -0.190892
  11 C :   -0.152125
  12 C :   -0.159361
  13 H :    0.180410
  14 H :    0.182771
  15 H :    0.167055
  16 H :    0.203935
  17 H :    0.202336
  18 H :    0.168669
  19 H :    0.167413
  20 H :    0.166070
  21 H :    0.167304
  22 H :    0.173915

  Mayer bond orders larger than 0.100000
B(  0-C ,  1-N ) :   0.8871 B(  0-C , 13-H ) :   0.9569 B(  0-C , 14-H ) :   0.9640
B(  0-C , 15-H ) :   0.9372 B(  1-N ,  2-C ) :   0.9318 B(  1-N ,  7-C ) :   1.1465
B(  2-C ,  3-C ) :   0.9461 B(  2-C , 16-H ) :   0.9551 B(  2-C , 17-H ) :   0.9542
B(  3-C ,  4-F ) :   1.0091 B(  3-C ,  5-F ) :   1.0202 B(  3-C ,  6-F ) :   1.0309
B(  7-C ,  8-C ) :   1.3410 B(  7-C , 12-C ) :   1.3263 B(  8-C ,  9-C ) :   1.4319
B(  8-C , 18-H ) :   0.9408 B(  9-C , 10-C ) :   1.4020 B(  9-C , 19-H ) :   0.9453
B( 10-C , 11-C ) :   1.4296 B( 10-C , 20-H ) :   0.9477 B( 11-C , 12-C ) :   1.3970
B( 11-C , 21-H ) :   0.9498 B( 12-C , 22-H ) :   0.9494

Dispersion correction           -0.008662436
FINAL SINGLE POINT ENERGY      -703.152738231258

DIPOLE MOMENT
-------------

Method             : SCF
Type of density    : Electron Density
Multiplicity       :   1
Irrep              :   0
Energy             :  -703.1625649086138310 Eh
Relativity type    :
Basis              : AO
                                X                 Y                 Z
Electronic contribution:    -14.350175041      -7.000917376       4.216459170
Nuclear contribution   :     14.394097039       7.566348999      -4.787882253
                        -----------------------------------------
Total Dipole Moment    :      0.043921998       0.565431623      -0.571423083
                        -----------------------------------------
Magnitude (a.u.)       :      0.805087822
Magnitude (Debye)      :      2.046370616

Rotational constants in cm-1:             0.049823             0.017468             0.015550
Rotational constants in MHz :          1493.647873           523.689069           466.179412

                             ****ORCA TERMINATED NORMALLY****
TOTAL RUN TIME: 0 days 0 hours 0 minutes 46 seconds 485 msec
