                         Program Version 6.0.0  -   RELEASE  -
|  1> ! r2scan-3c def2/J RI DEFGRID2 scfconv6 printgap
|  2> %output
|  3>     printlevel normal
|  4> end
|  5> %cpcm
|  6>     smd true
|  7>     smdsolvent "water"
|  8> end
|  9> * xyz 0 1
| 10> C -0.4617453176 2.3494002228 -0.3603797522
| 11> N -0.1454945657 1.0136943488 -0.8270077946
| 12> C -1.2822842399 0.1874824818 -1.1167951229
| 13> C -1.9601160604 -0.3909805329 0.1331390172
| 14> F -2.5365416599 0.5426902942 0.9126887216
| 15> F -2.9446717773 -1.2543533154 -0.1937908971
| 16> F -1.1175345503 -1.0694597862 0.9299485849
| 17> C 1.0380686203 0.4100624267 -0.3893395286
| 18> C 1.4878028846 -0.780888 -0.9680896555
| 19> C 2.6844603406 -1.350443149 -0.5822570004
| 20> C 3.4732549871 -0.7523513556 0.3861161467
| 21> C 3.0431752137 0.4292187055 0.9614029934
| 22> C 1.8439277749 1.0049978405 0.5837610903
| 23> H -1.2862298553 2.7355811756 -0.9564495085
| 24> H 0.4032318134 2.9897015202 -0.5180629407
| 25> H -0.7503991502 2.3851406007 0.695899446
| 26> H -2.040604638 0.77187086 -1.6444643256
| 27> H -1.0043369582 -0.6669159089 -1.7358419822
| 28> H 0.9140858151 -1.2695658189 -1.7395215742
| 29> H 3.0057666838 -2.2702128432 -1.0481692578
| 30> H 4.4071672621 -1.2014755017 0.6863047419
| 31> H 3.6417143731 0.9097146862 1.7213338566
| 32> H 1.5363633322 1.916206616 1.0687711839
| 33> *
| 34>
| 35>                          ****END OF INPUT****

CARTESIAN COORDINATES (ANGSTROEM)
---------------------------------
  C     -0.461745    2.349400   -0.360380
  N     -0.145495    1.013694   -0.827008
  C     -1.282284    0.187482   -1.116795
  C     -1.960116   -0.390981    0.133139
  F     -2.536542    0.542690    0.912689
  F     -2.944672   -1.254353   -0.193791
  F     -1.117535   -1.069460    0.929949
  C      1.038069    0.410062   -0.389340
  C      1.487803   -0.780888   -0.968090
  C      2.684460   -1.350443   -0.582257
  C      3.473255   -0.752351    0.386116
  C      3.043175    0.429219    0.961403
  C      1.843928    1.004998    0.583761
  H     -1.286230    2.735581   -0.956450
  H      0.403232    2.989702   -0.518063
  H     -0.750399    2.385141    0.695899
  H     -2.040605    0.771871   -1.644464
  H     -1.004337   -0.666916   -1.735842
  H      0.914086   -1.269566   -1.739522
  H      3.005767   -2.270213   -1.048169
  H      4.407167   -1.201476    0.686305
  H      3.641714    0.909715    1.721334
  H      1.536363    1.916207    1.068771

 Total Charge           Charge          ....    0
 Multiplicity           Mult            ....    1
 Number of Electrons    NEL             ....   98
 Basis Dimension        Dim             ....  317

ORBITAL ENERGIES
----------------

  NO   OCC          E(Eh)            E(eV)
   0   2.0000     -24.518902      -667.1932
   1   2.0000     -24.518030      -667.1695
   2   2.0000     -24.517145      -667.1454
   3   2.0000     -14.186397      -386.0315
   4   2.0000     -10.277198      -279.6568
   5   2.0000     -10.083418      -274.3838
   6   2.0000     -10.075698      -274.1737
   7   2.0000     -10.049270      -273.4545
   8   2.0000     -10.031322      -272.9662
   9   2.0000     -10.031229      -272.9636
  10   2.0000     -10.028071      -272.8777
  11   2.0000     -10.026716      -272.8408
  12   2.0000     -10.022418      -272.7239
  13   2.0000      -1.276131       -34.7253
  14   2.0000      -1.187030       -32.3007
  15   2.0000      -1.185135       -32.2492
  16   2.0000      -0.925825       -25.1930
  17   2.0000      -0.818986       -22.2857
  18   2.0000      -0.742253       -20.1977
  19   2.0000      -0.717783       -19.5319
  20   2.0000      -0.706795       -19.2329
  21   2.0000      -0.654836       -17.8190
  22   2.0000      -0.625265       -17.0143
  23   2.0000      -0.573701       -15.6112
  24   2.0000      -0.562125       -15.2962
  25   2.0000      -0.557720       -15.1763
  26   2.0000      -0.551668       -15.0116
  27   2.0000      -0.517750       -14.0887
  28   2.0000      -0.490950       -13.3594
  29   2.0000      -0.451316       -12.2809
  30   2.0000      -0.445950       -12.1349
  31   2.0000      -0.430189       -11.7060
  32   2.0000      -0.429455       -11.6861
  33   2.0000      -0.420643       -11.4463
  34   2.0000      -0.414115       -11.2686
  35   2.0000      -0.397247       -10.8096
  36   2.0000      -0.387029       -10.5316
  37   2.0000      -0.384278       -10.4567
  38   2.0000      -0.379922       -10.3382
  39   2.0000      -0.369184       -10.0460
  40   2.0000      -0.361931        -9.8486
  41   2.0000      -0.356215        -9.6931
  42   2.0000      -0.348074        -9.4716
  43   2.0000      -0.344594        -9.3769
  44   2.0000      -0.322466        -8.7747
  45   2.0000      -0.304456        -8.2847
  46   2.0000      -0.265870        -7.2347
  47   2.0000      -0.238349        -6.4858
  48   2.0000      -0.183135        -4.9834
  49   0.0000      -0.032625        -0.8878
  50   0.0000      -0.019935        -0.5425
  51   0.0000       0.067990         1.8501
  52   0.0000       0.083021         2.2591
  53   0.0000       0.099571         2.7095

MULLIKEN ATOMIC CHARGES
-----------------------
   0 C :   -0.452432
   1 N :    0.090824
   2 C :   -0.386355
   3 C :    0.586415
   4 F :   -0.217641
   5 F :   -0.215600
   6 F :   -0.212555
   7 C :    0.188477
   8 C :   -0.327953
   9 C :   -0.174722
  10 C :   -0.224202
  11 C :   -0.202028
  12 C :   -0.305116
  13 H :    0.177294
  14 H :    0.176711
  15 H :    0.178910
  16 H :    0.224428
  17 H :    0.219865
  18 H :    0.167682
  19 H :    0.177148
  20 H :    0.176076
  21 H :    0.176115
  22 H :    0.178659
Sum of atomic charges:   -0.0000000

LOEWDIN ATOMIC CHARGES
----------------------
   0 C :   -0.121895
   1 N :   -0.889364
   2 C :    0.003472
   3 C :    0.522304
   4 F :   -0.217745
   5 F :   -0.225651
   6 F :   -0.209333
   7 C :    0.134132
   8 C :   -0.158867
   9 C :   -0.169403
  10 C :   -0.212405
  11 C :   -0.167831
  12 C :   -0.170304
  13 H :    0.191006
  14 H :    0.187627
  15 H :    0.169786
  16 H :    0.219694
  17 H :    0.215374
  18 H :    0.183883
  19 H :    0.177532
  20 H :    0.174734
  21 H :    0.177385
  22 H :    0.185870

  Mayer bond orders larger than 0.100000
B(  0-C ,  1-N ) :   0.8871 B(  0-C , 13-H ) :   0.9519 B(  0-C , 14-H ) :   0.9585
B(  0-C , 15-H ) :   0.9348 B(  1-N ,  2-C ) :   0.9297 B(  1-N ,  7-C ) :   1.1471
B(  2-C ,  3-C ) :   0.9398 B(  2-C , 16-H ) :   0.9367 B(  2-C , 17-H ) :   0.9463
B(  3-C ,  4-F ) :   1.0115 B(  3-C ,  5-F ) :   1.0195 B(  3-C ,  6-F ) :   1.0206
B(  7-C ,  8-C ) :   1.3187 B(  7-C , 12-C ) :   1.2944 B(  8-C ,  9-C ) :   1.3985
B(  8-C , 18-H ) :   0.9499 B(  9-C , 10-C ) :   1.3518 B(  9-C , 19-H ) :   0.9584
B( 10-C , 11-C ) :   1.3833 B( 10-C , 20-H ) :   0.9584 B( 11-C , 12-C ) :   1.3650
B( 11-C , 21-H ) :   0.9630 B( 12-C , 22-H ) :   0.9570

Dispersion correction           -0.008662436
FINAL SINGLE POINT ENERGY      -703.159991552967

DIPOLE MOMENT
-------------

Method             : SCF
Type of density    : Electron Density
Multiplicity       :   1
Irrep              :   0
Energy             :  -703.1698182303232443 Eh
Relativity type    :
Basis              : AO
                                X                 Y                 Z
Electronic contribution:    -14.573370233      -6.798580551       3.945193331
Nuclear contribution   :     14.394097039       7.566348999      -4.787882253
                        -----------------------------------------
Total Dipole Moment    :     -0.179273194       0.767768448      -0.842688923
                        -----------------------------------------
Magnitude (a.u.)       :      1.154006884
Magnitude (Debye)      :      2.933252389

Rotational constants in cm-1:             0.049823             0.017468             0.015550
Rotational constants in MHz :          1493.647873           523.689069           466.179412

                             ****ORCA TERMINATED NORMALLY****
TOTAL RUN TIME: 0 days 0 hours 1 minutes 1 seconds 927 msec
