                         Program Version 6.0.0  -   RELEASE  -
|  1> ! r2scan-3c def2/J RI DEFGRID2 scfconv6 printgap
|  2> %output
|  3>     printlevel normal
|  4> end
|  5> * xyz 0 1
|  6> C -1.1041042351 -0.1539176323 0.7087013438
|  7> C 0.2147101088 0.5554194937 0.3585534923
|  8> C 1.1246504417 -0.368285209 -0.4671050496
|  9> O 1.6895410109 -1.398890319 0.3025593795
| 10> O -0.0345952793 1.708069035 -0.4209649691
| 11> O -1.8717206686 -0.4157152389 -0.4417814181
| 12> H -1.6830381846 0.4605894051 1.4138438984
| 13> H -0.8860253704 -1.11804091 1.1715495057
| 14> H 0.7317753678 0.8221164966 1.2912676414
| 15> H 1.8946589947 0.2430595811 -0.9525481008
| 16> H 0.5284584427 -0.8573384482 -1.2408774244
| 17> H 2.3291951951 -1.025872523 0.9256154491
| 18> H -0.4335026804 2.3936922147 0.1334047156
| 19> H -1.8439163111 0.3770732273 -1.0016591457
| 20> *
| 21>
| 22>                          ****END OF INPUT****

CARTESIAN COORDINATES (ANGSTROEM)
---------------------------------
  C     -1.104104   -0.153918    0.708701
  C      0.214710    0.555419    0.358553
  C      1.124650   -0.368285   -0.467105
  O      1.689541   -1.398890    0.302559
  O     -0.034595    1.708069   -0.420965
  O     -1.871721   -0.415715   -0.441781
  H     -1.683038    0.460589    1.413844
  H     -0.886025   -1.118041    1.171550
  H      0.731775    0.822116    1.291268
  H      1.894659    0.243060   -0.952548
  H      0.528458   -0.857338   -1.240877
  H      2.329195   -1.025873    0.925615
  H     -0.433503    2.393692    0.133405
  H     -1.843916    0.377073   -1.001659

 Total Charge           Charge          ....    0
 Multiplicity           Mult            ....    1
 Number of Electrons    NEL             ....   50
 Basis Dimension        Dim             ....  169

ORBITAL ENERGIES
----------------

  NO   OCC          E(Eh)            E(eV)
   0   2.0000     -18.971258      -516.2342
   1   2.0000     -18.957792      -515.8678
   2   2.0000     -18.946131      -515.5504
   3   2.0000     -10.091764      -274.6109
   4   2.0000     -10.076941      -274.2075
   5   2.0000     -10.075945      -274.1804
   6   2.0000      -1.014740       -27.6125
   7   2.0000      -0.993151       -27.0250
   8   2.0000      -0.979405       -26.6510
   9   2.0000      -0.726357       -19.7652
  10   2.0000      -0.646217       -17.5844
  11   2.0000      -0.577210       -15.7067
  12   2.0000      -0.506536       -13.7835
  13   2.0000      -0.480757       -13.0821
  14   2.0000      -0.456951       -12.4343
  15   2.0000      -0.447925       -12.1887
  16   2.0000      -0.410555       -11.1718
  17   2.0000      -0.391363       -10.6495
  18   2.0000      -0.368355       -10.0235
  19   2.0000      -0.332342        -9.0435
  20   2.0000      -0.309806        -8.4303
  21   2.0000      -0.296023        -8.0552
  22   2.0000      -0.265179        -7.2159
  23   2.0000      -0.249634        -6.7929
  24   2.0000      -0.230513        -6.2726
  25   0.0000       0.033704         0.9171
  26   0.0000       0.053495         1.4557
  27   0.0000       0.081490         2.2175
  28   0.0000       0.121319         3.3013
  29   0.0000       0.133171         3.6238

MULLIKEN ATOMIC CHARGES
-----------------------
   0 C :   -0.174440
   1 C :    0.089264
   2 C :   -0.238143
   3 O :   -0.416784
   4 O :   -0.453200
   5 O :   -0.429734
   6 H :    0.131205
   7 H :    0.153512
   8 H :    0.118868
   9 H :    0.143316
  10 H :    0.165183
  11 H :    0.296689
  12 H :    0.302112
  13 H :    0.312153
Sum of atomic charges:   -0.0000000

LOEWDIN ATOMIC CHARGES
----------------------
   0 C :    0.015606
   1 C :    0.069619
   2 C :    0.038860
   3 O :   -0.602823
   4 O :   -0.602922
   5 O :   -0.605686
   6 H :    0.155987
   7 H :    0.189917
   8 H :    0.166612
   9 H :    0.167850
  10 H :    0.193236
  11 H :    0.266158
  12 H :    0.273022
  13 H :    0.274563

  Mayer bond orders larger than 0.100000
B(  0-C ,  1-C ) :   0.9455 B(  0-C ,  5-O ) :   0.9703 B(  0-C ,  6-H ) :   0.9737
B(  0-C ,  7-H ) :   0.9561 B(  1-C ,  2-C ) :   0.9129 B(  1-C ,  4-O ) :   0.9012
B(  1-C ,  8-H ) :   0.9354 B(  2-C ,  3-O ) :   0.9918 B(  2-C ,  9-H ) :   0.9769
B(  2-C , 10-H ) :   0.9678 B(  3-O , 11-H ) :   0.8949 B(  4-O , 12-H ) :   0.8935
B(  5-O , 13-H ) :   0.8688

Dispersion correction           -0.003059313
FINAL SINGLE POINT ENERGY      -344.722733653110

DIPOLE MOMENT
-------------

Method             : SCF
Type of density    : Electron Density
Multiplicity       :   1
Irrep              :   0
Energy             :  -344.7302362285035429 Eh
Relativity type    :
Basis              : AO
                                X                 Y                 Z
Electronic contribution:     -0.221316097      -0.135506775      -0.894101433
Nuclear contribution   :      0.594965064       1.213614104       1.624661807
                        -----------------------------------------
Total Dipole Moment    :      0.373648968       1.078107329       0.730560375
                        -----------------------------------------
Magnitude (a.u.)       :      1.354860666
Magnitude (Debye)      :      3.443782132

Rotational constants in cm-1:             0.155810             0.088951             0.068080
Rotational constants in MHz :          4671.078439          2666.692416          2040.998362

                             ****ORCA TERMINATED NORMALLY****
TOTAL RUN TIME: 0 days 0 hours 0 minutes 20 seconds 859 msec
