                         Program Version 6.0.0  -   RELEASE  -
|  1> ! r2scan-3c def2/J RI DEFGRID2 scfconv6 printgap
|  2> %output
|  3>     printlevel normal
|  4> end
|  5> %cpcm
|  6>     smd true
|  7>     smdsolvent "water"
|  8> end
|  9> * xyz 0 1
| 10> C -1.1041042351 -0.1539176323 0.7087013438
| 11> C 0.2147101088 0.5554194937 0.3585534923
| 12> C 1.1246504417 -0.368285209 -0.4671050496
| 13> O 1.6895410109 -1.398890319 0.3025593795
| 14> O -0.0345952793 1.708069035 -0.4209649691
| 15> O -1.8717206686 -0.4157152389 -0.4417814181
| 16> H -1.6830381846 0.4605894051 1.4138438984
| 17> H -0.8860253704 -1.11804091 1.1715495057
| 18> H 0.7317753678 0.8221164966 1.2912676414
| 19> H 1.8946589947 0.2430595811 -0.9525481008
| 20> H 0.5284584427 -0.8573384482 -1.2408774244
| 21> H 2.3291951951 -1.025872523 0.9256154491
| 22> H -0.4335026804 2.3936922147 0.1334047156
| 23> H -1.8439163111 0.3770732273 -1.0016591457
| 24> *
| 25>
| 26>                          ****END OF INPUT****

CARTESIAN COORDINATES (ANGSTROEM)
---------------------------------
  C     -1.104104   -0.153918    0.708701
  C      0.214710    0.555419    0.358553
  C      1.124650   -0.368285   -0.467105
  O      1.689541   -1.398890    0.302559
  O     -0.034595    1.708069   -0.420965
  O     -1.871721   -0.415715   -0.441781
  H     -1.683038    0.460589    1.413844
  H     -0.886025   -1.118041    1.171550
  H      0.731775    0.822116    1.291268
  H      1.894659    0.243060   -0.952548
  H      0.528458   -0.857338   -1.240877
  H      2.329195   -1.025873    0.925615
  H     -0.433503    2.393692    0.133405
  H     -1.843916    0.377073   -1.001659

 Total Charge           Charge          ....    0
 Multiplicity           Mult            ....    1
 Number of Electrons    NEL             ....   50
 Basis Dimension        Dim             ....  169

ORBITAL ENERGIES
----------------

  NO   OCC          E(Eh)            E(eV)
   0   2.0000     -18.959494      -515.9141
   1   2.0000     -18.956711      -515.8383
   2   2.0000     -18.951992      -515.7099
   3   2.0000     -10.079782      -274.2848
   4   2.0000     -10.071425      -274.0574
   5   2.0000     -10.069144      -273.9953
   6   2.0000      -1.006766       -27.3955
   7   2.0000      -0.990792       -26.9608
   8   2.0000      -0.979875       -26.6637
   9   2.0000      -0.717937       -19.5361
  10   2.0000      -0.640830       -17.4379
  11   2.0000      -0.569674       -15.5016
  12   2.0000      -0.498132       -13.5549
  13   2.0000      -0.472793       -12.8653
  14   2.0000      -0.452349       -12.3090
  15   2.0000      -0.441188       -12.0053
  16   2.0000      -0.406560       -11.0631
  17   2.0000      -0.390645       -10.6300
  18   2.0000      -0.365472        -9.9450
  19   2.0000      -0.332112        -9.0372
  20   2.0000      -0.309860        -8.4317
  21   2.0000      -0.294598        -8.0164
  22   2.0000      -0.259154        -7.0520
  23   2.0000      -0.252149        -6.8613
  24   2.0000      -0.230497        -6.2722
  25   0.0000       0.054429         1.4811
  26   0.0000       0.071250         1.9388
  27   0.0000       0.102125         2.7790
  28   0.0000       0.134989         3.6733
  29   0.0000       0.145419         3.9571

MULLIKEN ATOMIC CHARGES
-----------------------
   0 C :   -0.179894
   1 C :    0.097433
   2 C :   -0.233672
   3 O :   -0.495025
   4 O :   -0.514840
   5 O :   -0.509461
   6 H :    0.152010
   7 H :    0.154837
   8 H :    0.154568
   9 H :    0.151713
  10 H :    0.164078
  11 H :    0.354748
  12 H :    0.353466
  13 H :    0.350038
Sum of atomic charges:   -0.0000000

LOEWDIN ATOMIC CHARGES
----------------------
   0 C :    0.016615
   1 C :    0.078523
   2 C :    0.034313
   3 O :   -0.633663
   4 O :   -0.620018
   5 O :   -0.645826
   6 H :    0.168512
   7 H :    0.188866
   8 H :    0.183247
   9 H :    0.173628
  10 H :    0.189041
  11 H :    0.287044
  12 H :    0.292717
  13 H :    0.287002

  Mayer bond orders larger than 0.100000
B(  0-C ,  1-C ) :   0.9502 B(  0-C ,  5-O ) :   0.9523 B(  0-C ,  6-H ) :   0.9642
B(  0-C ,  7-H ) :   0.9571 B(  1-C ,  2-C ) :   0.9126 B(  1-C ,  4-O ) :   0.8983
B(  1-C ,  8-H ) :   0.9325 B(  2-C ,  3-O ) :   0.9843 B(  2-C ,  9-H ) :   0.9676
B(  2-C , 10-H ) :   0.9718 B(  3-O , 11-H ) :   0.8651 B(  4-O , 12-H ) :   0.8673
B(  5-O , 13-H ) :   0.8504

Dispersion correction           -0.003059313
FINAL SINGLE POINT ENERGY      -344.744095496402

DIPOLE MOMENT
-------------

Method             : SCF
Type of density    : Electron Density
Multiplicity       :   1
Irrep              :   0
Energy             :  -344.7515980717962520 Eh
Relativity type    :
Basis              : AO
                                X                 Y                 Z
Electronic contribution:     -0.093503543       0.322047040      -0.538230844
Nuclear contribution   :      0.594965064       1.213614104       1.624661807
                        -----------------------------------------
Total Dipole Moment    :      0.501461522       1.535661144       1.086430964
                        -----------------------------------------
Magnitude (a.u.)       :      1.946805344
Magnitude (Debye)      :      4.948385929

Rotational constants in cm-1:             0.155810             0.088951             0.068080
Rotational constants in MHz :          4671.078439          2666.692416          2040.998362

                             ****ORCA TERMINATED NORMALLY****
TOTAL RUN TIME: 0 days 0 hours 0 minutes 23 seconds 525 msec
