                         Program Version 6.0.0  -   RELEASE  -
|  1> ! r2scan-3c def2/J RI DEFGRID2 scfconv6 printgap
|  2> %output
|  3>     printlevel normal
|  4> end
|  5> * xyz 0 1
|  6> C -3.1483862574 1.0957855571 -0.5152773761
|  7> C -2.465707869 -0.2687488476 -0.5123712003
|  8> C -1.5030767227 -0.4566712685 0.6718634227
|  9> C -0.047337265 -0.2552382988 0.3439011082
| 10> C 0.9088294877 -1.0721497979 0.938196196
| 11> C 2.2564993144 -0.9040930718 0.6752496304
| 12> C 2.675216397 0.0874840232 -0.1952368947
| 13> C 1.734566922 0.9067913036 -0.7946416927
| 14> C 0.3874630636 0.7382122865 -0.5252903865
| 15> H -3.790597662 1.195740356 -1.3876289646
| 16> H -3.7621300652 1.2124564521 0.3755451973
| 17> H -2.4207761327 1.903285228 -0.5314163192
| 18> H -1.922756131 -0.4131972274 -1.4484941104
| 19> H -3.2401385362 -1.0368967544 -0.4657655878
| 20> H -1.6197749295 -1.4624535313 1.0800425533
| 21> H -1.777841253 0.2430707299 1.4666988187
| 22> H 0.5926446985 -1.8517921367 1.6169839787
| 23> H 2.9811811607 -1.5506554318 1.1481889009
| 24> H 3.7260999229 0.2199791605 -0.4051826031
| 25> H 2.0508998789 1.6837009948 -1.4754024736
| 26> H -0.3272619737 1.3896049816 -1.0031001013
| 27> *
| 28>
| 29>                          ****END OF INPUT****

CARTESIAN COORDINATES (ANGSTROEM)
---------------------------------
  C     -3.148386    1.095786   -0.515277
  C     -2.465708   -0.268749   -0.512371
  C     -1.503077   -0.456671    0.671863
  C     -0.047337   -0.255238    0.343901
  C      0.908829   -1.072150    0.938196
  C      2.256499   -0.904093    0.675250
  C      2.675216    0.087484   -0.195237
  C      1.734567    0.906791   -0.794642
  C      0.387463    0.738212   -0.525290
  H     -3.790598    1.195740   -1.387629
  H     -3.762130    1.212456    0.375545
  H     -2.420776    1.903285   -0.531416
  H     -1.922756   -0.413197   -1.448494
  H     -3.240139   -1.036897   -0.465766
  H     -1.619775   -1.462454    1.080043
  H     -1.777841    0.243071    1.466699
  H      0.592645   -1.851792    1.616984
  H      2.981181   -1.550655    1.148189
  H      3.726100    0.219979   -0.405183
  H      2.050900    1.683701   -1.475402
  H     -0.327262    1.389605   -1.003100

 Total Charge           Charge          ....    0
 Multiplicity           Mult            ....    1
 Number of Electrons    NEL             ....   66
 Basis Dimension        Dim             ....  231

ORBITAL ENERGIES
----------------

  NO   OCC          E(Eh)            E(eV)
   0   2.0000     -10.040515      -273.2163
   1   2.0000     -10.031775      -272.9785
   2   2.0000     -10.031297      -272.9655
   3   2.0000     -10.030786      -272.9516
   4   2.0000     -10.029002      -272.9030
   5   2.0000     -10.028899      -272.9002
   6   2.0000     -10.028528      -272.8901
   7   2.0000     -10.028344      -272.8851
   8   2.0000     -10.019523      -272.6451
   9   2.0000      -0.826892       -22.5009
  10   2.0000      -0.765014       -20.8171
  11   2.0000      -0.715679       -19.4746
  12   2.0000      -0.711082       -19.3495
  13   2.0000      -0.647816       -17.6280
  14   2.0000      -0.576982       -15.7005
  15   2.0000      -0.568736       -15.4761
  16   2.0000      -0.539209       -14.6726
  17   2.0000      -0.482252       -13.1228
  18   2.0000      -0.436708       -11.8834
  19   2.0000      -0.424768       -11.5585
  20   2.0000      -0.414497       -11.2790
  21   2.0000      -0.397175       -10.8077
  22   2.0000      -0.384809       -10.4712
  23   2.0000      -0.382291       -10.4027
  24   2.0000      -0.364550        -9.9199
  25   2.0000      -0.339636        -9.2420
  26   2.0000      -0.328663        -8.9434
  27   2.0000      -0.313311        -8.5256
  28   2.0000      -0.310606        -8.4520
  29   2.0000      -0.295627        -8.0444
  30   2.0000      -0.290929        -7.9166
  31   2.0000      -0.233779        -6.3614
  32   2.0000      -0.223149        -6.0722
  33   0.0000      -0.029633        -0.8063
  34   0.0000      -0.025627        -0.6973
  35   0.0000       0.077916         2.1202
  36   0.0000       0.096662         2.6303
  37   0.0000       0.099669         2.7121

MULLIKEN ATOMIC CHARGES
-----------------------
   0 C :   -0.484026
   1 C :   -0.255179
   2 C :   -0.288820
   3 C :    0.158349
   4 C :   -0.237004
   5 C :   -0.150066
   6 C :   -0.157179
   7 C :   -0.169304
   8 C :   -0.198735
   9 H :    0.147001
  10 H :    0.149262
  11 H :    0.140244
  12 H :    0.162084
  13 H :    0.146581
  14 H :    0.146167
  15 H :    0.167756
  16 H :    0.144828
  17 H :    0.144515
  18 H :    0.145453
  19 H :    0.144138
  20 H :    0.143936
Sum of atomic charges:   -0.0000000

LOEWDIN ATOMIC CHARGES
----------------------
   0 C :   -0.425531
   1 C :   -0.311291
   2 C :   -0.278898
   3 C :   -0.085822
   4 C :   -0.165141
   5 C :   -0.162266
   6 C :   -0.174710
   7 C :   -0.161546
   8 C :   -0.165832
   9 H :    0.151144
  10 H :    0.149518
  11 H :    0.146720
  12 H :    0.159608
  13 H :    0.154042
  14 H :    0.163233
  15 H :    0.171096
  16 H :    0.167509
  17 H :    0.166347
  18 H :    0.165983
  19 H :    0.166089
  20 H :    0.169747

  Mayer bond orders larger than 0.100000
B(  0-C ,  1-C ) :   0.8931 B(  0-C ,  9-H ) :   0.9726 B(  0-C , 10-H ) :   0.9839
B(  0-C , 11-H ) :   0.9812 B(  1-C ,  2-C ) :   0.8249 B(  1-C , 12-H ) :   0.9876
B(  1-C , 13-H ) :   0.9665 B(  2-C ,  3-C ) :   0.8089 B(  2-C , 14-H ) :   1.0015
B(  2-C , 15-H ) :   0.9752 B(  3-C ,  4-C ) :   1.4108 B(  3-C ,  8-C ) :   1.4105
B(  4-C ,  5-C ) :   1.4448 B(  4-C , 16-H ) :   0.9462 B(  5-C ,  6-C ) :   1.4283
B(  5-C , 17-H ) :   0.9473 B(  6-C ,  7-C ) :   1.4223 B(  6-C , 18-H ) :   0.9495
B(  7-C ,  8-C ) :   1.4544 B(  7-C , 19-H ) :   0.9489 B(  8-C , 20-H ) :   0.9446

Dispersion correction           -0.006786771
FINAL SINGLE POINT ENERGY      -350.074120662163

DIPOLE MOMENT
-------------

Method             : SCF
Type of density    : Electron Density
Multiplicity       :   1
Irrep              :   0
Energy             :  -350.0742331293847656 Eh
Relativity type    :
Basis              : AO
                                X                 Y                 Z
Electronic contribution:      8.718262305      -1.468730316       0.985910740
Nuclear contribution   :     -8.922391778       1.438062627      -0.965871790
                        -----------------------------------------
Total Dipole Moment    :     -0.204129473      -0.030667689       0.020038950
                        -----------------------------------------
Magnitude (a.u.)       :      0.207390715
Magnitude (Debye)      :      0.527145303

Rotational constants in cm-1:             0.132220             0.032602             0.027203
Rotational constants in MHz :          3963.853019           977.373313           815.511185

                             ****ORCA TERMINATED NORMALLY****
TOTAL RUN TIME: 0 days 0 hours 0 minutes 26 seconds 803 msec
