                         Program Version 6.0.0  -   RELEASE  -
|  1> ! r2scan-3c def2/J RI DEFGRID2 scfconv6 printgap
|  2> %output
|  3>     printlevel normal
|  4> end
|  5> %cpcm
|  6>     smd true
|  7>     smdsolvent "water"
|  8> end
|  9> * xyz 0 1
| 10> C -3.1483862574 1.0957855571 -0.5152773761
| 11> C -2.465707869 -0.2687488476 -0.5123712003
| 12> C -1.5030767227 -0.4566712685 0.6718634227
| 13> C -0.047337265 -0.2552382988 0.3439011082
| 14> C 0.9088294877 -1.0721497979 0.938196196
| 15> C 2.2564993144 -0.9040930718 0.6752496304
| 16> C 2.675216397 0.0874840232 -0.1952368947
| 17> C 1.734566922 0.9067913036 -0.7946416927
| 18> C 0.3874630636 0.7382122865 -0.5252903865
| 19> H -3.790597662 1.195740356 -1.3876289646
| 20> H -3.7621300652 1.2124564521 0.3755451973
| 21> H -2.4207761327 1.903285228 -0.5314163192
| 22> H -1.922756131 -0.4131972274 -1.4484941104
| 23> H -3.2401385362 -1.0368967544 -0.4657655878
| 24> H -1.6197749295 -1.4624535313 1.0800425533
| 25> H -1.777841253 0.2430707299 1.4666988187
| 26> H 0.5926446985 -1.8517921367 1.6169839787
| 27> H 2.9811811607 -1.5506554318 1.1481889009
| 28> H 3.7260999229 0.2199791605 -0.4051826031
| 29> H 2.0508998789 1.6837009948 -1.4754024736
| 30> H -0.3272619737 1.3896049816 -1.0031001013
| 31> *
| 32>
| 33>                          ****END OF INPUT****

CARTESIAN COORDINATES (ANGSTROEM)
---------------------------------
  C     -3.148386    1.095786   -0.515277
  C     -2.465708   -0.268749   -0.512371
  C     -1.503077   -0.456671    0.671863
  C     -0.047337   -0.255238    0.343901
  C      0.908829   -1.072150    0.938196
  C      2.256499   -0.904093    0.675250
  C      2.675216    0.087484   -0.195237
  C      1.734567    0.906791   -0.794642
  C      0.387463    0.738212   -0.525290
  H     -3.790598    1.195740   -1.387629
  H     -3.762130    1.212456    0.375545
  H     -2.420776    1.903285   -0.531416
  H     -1.922756   -0.413197   -1.448494
  H     -3.240139   -1.036897   -0.465766
  H     -1.619775   -1.462454    1.080043
  H     -1.777841    0.243071    1.466699
  H      0.592645   -1.851792    1.616984
  H      2.981181   -1.550655    1.148189
  H      3.726100    0.219979   -0.405183
  H      2.050900    1.683701   -1.475402
  H     -0.327262    1.389605   -1.003100

 Total Charge           Charge          ....    0
 Multiplicity           Mult            ....    1
 Number of Electrons    NEL             ....   66
 Basis Dimension        Dim             ....  231

ORBITAL ENERGIES
----------------

  NO   OCC          E(Eh)            E(eV)
   0   2.0000     -10.040015      -273.2027
   1   2.0000     -10.030430      -272.9419
   2   2.0000     -10.030055      -272.9317
   3   2.0000     -10.027748      -272.8689
   4   2.0000     -10.027383      -272.8590
   5   2.0000     -10.027016      -272.8490
   6   2.0000     -10.023534      -272.7542
   7   2.0000     -10.020041      -272.6592
   8   2.0000     -10.008665      -272.3496
   9   2.0000      -0.827495       -22.5173
  10   2.0000      -0.759200       -20.6589
  11   2.0000      -0.713674       -19.4201
  12   2.0000      -0.708670       -19.2839
  13   2.0000      -0.641585       -17.4584
  14   2.0000      -0.573269       -15.5994
  15   2.0000      -0.564908       -15.3719
  16   2.0000      -0.534157       -14.5351
  17   2.0000      -0.478490       -13.0204
  18   2.0000      -0.432161       -11.7597
  19   2.0000      -0.419028       -11.4023
  20   2.0000      -0.408208       -11.1079
  21   2.0000      -0.392084       -10.6691
  22   2.0000      -0.380392       -10.3510
  23   2.0000      -0.376188       -10.2366
  24   2.0000      -0.358321        -9.7504
  25   2.0000      -0.339410        -9.2358
  26   2.0000      -0.322973        -8.7885
  27   2.0000      -0.307387        -8.3644
  28   2.0000      -0.303796        -8.2667
  29   2.0000      -0.287776        -7.8308
  30   2.0000      -0.284838        -7.7508
  31   2.0000      -0.237201        -6.4546
  32   2.0000      -0.225058        -6.1241
  33   0.0000      -0.031693        -0.8624
  34   0.0000      -0.027561        -0.7500
  35   0.0000       0.087511         2.3813
  36   0.0000       0.103883         2.8268
  37   0.0000       0.108101         2.9416

MULLIKEN ATOMIC CHARGES
-----------------------
   0 C :   -0.522708
   1 C :   -0.260814
   2 C :   -0.279113
   3 C :    0.106571
   4 C :   -0.262564
   5 C :   -0.187428
   6 C :   -0.192100
   7 C :   -0.210458
   8 C :   -0.215118
   9 H :    0.155516
  10 H :    0.160454
  11 H :    0.154870
  12 H :    0.163808
  13 H :    0.158879
  14 H :    0.166856
  15 H :    0.181464
  16 H :    0.176319
  17 H :    0.176203
  18 H :    0.177188
  19 H :    0.175649
  20 H :    0.176526
Sum of atomic charges:    0.0000000

LOEWDIN ATOMIC CHARGES
----------------------
   0 C :   -0.432395
   1 C :   -0.311821
   2 C :   -0.280444
   3 C :   -0.093517
   4 C :   -0.175972
   5 C :   -0.175232
   6 C :   -0.189231
   7 C :   -0.174115
   8 C :   -0.174332
   9 H :    0.152938
  10 H :    0.152260
  11 H :    0.150831
  12 H :    0.159289
  13 H :    0.157542
  14 H :    0.169698
  15 H :    0.176572
  16 H :    0.178345
  17 H :    0.176637
  18 H :    0.175888
  19 H :    0.176425
  20 H :    0.180635

  Mayer bond orders larger than 0.100000
B(  0-C ,  1-C ) :   0.8862 B(  0-C ,  9-H ) :   0.9704 B(  0-C , 10-H ) :   0.9815
B(  0-C , 11-H ) :   0.9785 B(  1-C ,  2-C ) :   0.8084 B(  1-C , 12-H ) :   0.9890
B(  1-C , 13-H ) :   0.9663 B(  2-C ,  3-C ) :   0.8147 B(  2-C , 14-H ) :   0.9994
B(  2-C , 15-H ) :   0.9703 B(  3-C ,  4-C ) :   1.3829 B(  3-C ,  8-C ) :   1.3786
B(  4-C ,  5-C ) :   1.4083 B(  4-C , 16-H ) :   0.9562 B(  5-C ,  6-C ) :   1.3866
B(  5-C , 17-H ) :   0.9576 B(  6-C ,  7-C ) :   1.3819 B(  6-C , 18-H ) :   0.9575
B(  7-C ,  8-C ) :   1.4195 B(  7-C , 19-H ) :   0.9600 B(  8-C , 20-H ) :   0.9488

Dispersion correction           -0.006786771
FINAL SINGLE POINT ENERGY      -350.075398425032

DIPOLE MOMENT
-------------

Method             : SCF
Type of density    : Electron Density
Multiplicity       :   1
Irrep              :   0
Energy             :  -350.0755108922530212 Eh
Relativity type    :
Basis              : AO
                                X                 Y                 Z
Electronic contribution:      8.621960750      -1.470496177       1.013826915
Nuclear contribution   :     -8.922391778       1.438062627      -0.965871790
                        -----------------------------------------
Total Dipole Moment    :     -0.300431028      -0.032433549       0.047955125
                        -----------------------------------------
Magnitude (a.u.)       :      0.305958219
Magnitude (Debye)      :      0.777683989

Rotational constants in cm-1:             0.132220             0.032602             0.027203
Rotational constants in MHz :          3963.853019           977.373313           815.511185

                             ****ORCA TERMINATED NORMALLY****
TOTAL RUN TIME: 0 days 0 hours 0 minutes 28 seconds 578 msec
