                         Program Version 6.0.0  -   RELEASE  -
|  1> ! pbe def2-sv(p) def2/J RI DEFGRID1 loosescf d4 GCP(DFT/SV(P)) printgap
|  2> %output
|  3>     printlevel normal
|  4> end
|  5> * xyz 0 1
|  6> C 1.7771037401 1.3089611032 0.7407430826
|  7> C 1.2766317056 -0.1199794109 0.4877271797
|  8> C 2.3283213898 -0.9381014506 -0.2556184928
|  9> C -4.99961e-05 0.0008577323 -0.3221452057
| 10> O -3.34349e-05 0.003412956 -1.5357640774
| 11> C -1.2767244491 0.1183042581 0.4881974166
| 12> C -1.7762999873 -1.3117593828 0.7366621482
| 13> C -2.328967998 0.9381933268 -0.252402718
| 14> H 1.9863425901 1.8010822919 -0.2065670874
| 15> H 2.6907503845 1.278962912 1.3278738007
| 16> H 1.0345651958 1.8930796384 1.2784928942
| 17> H 1.0488049974 -0.5886208925 1.4487570223
| 18> H 2.5022663971 -0.5094847487 -1.2399293215
| 19> H 3.263186402 -0.9454585056 0.2976590861
| 20> H 1.9887249859 -1.9629086016 -0.3874475537
| 21> H -1.049070398 0.5840071504 1.4507023452
| 22> H -1.0336689562 -1.8969794106 1.2730774695
| 23> H -2.6902979573 -1.2841577491 1.3233589319
| 24> H -1.9846682745 -1.8011934174 -0.2122365412
| 25> H -1.989367614 1.9632470439 -0.3823051912
| 26> H -2.5039012567 0.5117893453 -1.2374944117
| 27> H -3.2633074134 0.9444506014 0.3017645338
| 28> *
| 29>
| 30>                          ****END OF INPUT****

CARTESIAN COORDINATES (ANGSTROEM)
---------------------------------
  C      1.777104    1.308961    0.740743
  C      1.276632   -0.119979    0.487727
  C      2.328321   -0.938101   -0.255618
  C     -0.000050    0.000858   -0.322145
  O     -0.000033    0.003413   -1.535764
  C     -1.276724    0.118304    0.488197
  C     -1.776300   -1.311759    0.736662
  C     -2.328968    0.938193   -0.252403
  H      1.986343    1.801082   -0.206567
  H      2.690750    1.278963    1.327874
  H      1.034565    1.893080    1.278493
  H      1.048805   -0.588621    1.448757
  H      2.502266   -0.509485   -1.239929
  H      3.263186   -0.945459    0.297659
  H      1.988725   -1.962909   -0.387448
  H     -1.049070    0.584007    1.450702
  H     -1.033669   -1.896979    1.273077
  H     -2.690298   -1.284158    1.323359
  H     -1.984668   -1.801193   -0.212237
  H     -1.989368    1.963247   -0.382305
  H     -2.503901    0.511789   -1.237494
  H     -3.263307    0.944451    0.301765

 Total Charge           Charge          ....    0
 Multiplicity           Mult            ....    1
 Number of Electrons    NEL             ....   64
 Basis Dimension        Dim             ....  140

ORBITAL ENERGIES
----------------

  NO   OCC          E(Eh)            E(eV)
   0   2.0000     -18.737004      -509.8598
   1   2.0000      -9.965219      -271.1674
   2   2.0000      -9.901706      -269.4391
   3   2.0000      -9.901675      -269.4383
   4   2.0000      -9.887221      -269.0450
   5   2.0000      -9.887207      -269.0446
   6   2.0000      -9.873792      -268.6795
   7   2.0000      -9.873779      -268.6792
   8   2.0000      -0.935342       -25.4520
   9   2.0000      -0.736202       -20.0331
  10   2.0000      -0.714248       -19.4357
  11   2.0000      -0.619607       -16.8604
  12   2.0000      -0.615391       -16.7457
  13   2.0000      -0.584474       -15.9044
  14   2.0000      -0.520258       -14.1569
  15   2.0000      -0.456198       -12.4138
  16   2.0000      -0.446125       -12.1397
  17   2.0000      -0.412683       -11.2297
  18   2.0000      -0.399485       -10.8705
  19   2.0000      -0.384274       -10.4566
  20   2.0000      -0.378323       -10.2947
  21   2.0000      -0.360622        -9.8130
  22   2.0000      -0.348763        -9.4903
  23   2.0000      -0.343165        -9.3380
  24   2.0000      -0.334521        -9.1028
  25   2.0000      -0.321613        -8.7515
  26   2.0000      -0.315309        -8.5800
  27   2.0000      -0.302953        -8.2438
  28   2.0000      -0.297495        -8.0953
  29   2.0000      -0.295782        -8.0486
  30   2.0000      -0.291821        -7.9409
  31   2.0000      -0.192360        -5.2344
  32   0.0000      -0.047568        -1.2944
  33   0.0000       0.022145         0.6026
  34   0.0000       0.060292         1.6406
  35   0.0000       0.064024         1.7422
  36   0.0000       0.071136         1.9357

MULLIKEN ATOMIC CHARGES
-----------------------
   0 C :   -0.253856
   1 C :   -0.177450
   2 C :   -0.228518
   3 C :    0.051955
   4 O :   -0.171080
   5 C :   -0.177502
   6 C :   -0.253865
   7 C :   -0.228475
   8 H :    0.113110
   9 H :    0.113325
  10 H :    0.106046
  11 H :    0.076370
  12 H :    0.113521
  13 H :    0.095346
  14 H :    0.101655
  15 H :    0.076407
  16 H :    0.106070
  17 H :    0.113331
  18 H :    0.113102
  19 H :    0.101675
  20 H :    0.113483
  21 H :    0.095350
Sum of atomic charges:   -0.0000000

LOEWDIN ATOMIC CHARGES
----------------------
   0 C :   -0.317537
   1 C :   -0.181427
   2 C :   -0.326533
   3 C :    0.069874
   4 O :   -0.127044
   5 C :   -0.181432
   6 C :   -0.317543
   7 C :   -0.326529
   8 H :    0.126154
   9 H :    0.124135
  10 H :    0.118976
  11 H :    0.120536
  12 H :    0.126100
  13 H :    0.117538
  14 H :    0.120625
  15 H :    0.120560
  16 H :    0.118980
  17 H :    0.124144
  18 H :    0.126150
  19 H :    0.120638
  20 H :    0.126095
  21 H :    0.117540

  Mayer bond orders larger than 0.100000
B(  0-C ,  1-C ) :   1.0879 B(  0-C ,  8-H ) :   0.9462 B(  0-C ,  9-H ) :   0.9475
B(  0-C , 10-H ) :   0.9463 B(  1-C ,  2-C ) :   1.1075 B(  1-C ,  3-C ) :   0.9519
B(  1-C , 11-H ) :   0.8847 B(  2-C , 12-H ) :   0.9395 B(  2-C , 13-H ) :   0.9493
B(  2-C , 14-H ) :   0.9542 B(  3-C ,  4-O ) :   2.1800 B(  3-C ,  5-C ) :   0.9519
B(  5-C ,  6-C ) :   1.0879 B(  5-C ,  7-C ) :   1.1075 B(  5-C , 15-H ) :   0.8847
B(  6-C , 16-H ) :   0.9463 B(  6-C , 17-H ) :   0.9475 B(  6-C , 18-H ) :   0.9461
B(  7-C , 19-H ) :   0.9542 B(  7-C , 20-H ) :   0.9396 B(  7-C , 21-H ) :   0.9493

Dispersion correction           -0.018822999
FINAL SINGLE POINT ENERGY      -349.571184405261

DIPOLE MOMENT
-------------

Method             : SCF
Type of density    : Electron Density
Multiplicity       :   1
Irrep              :   0
Energy             :  -349.6448486126553234 Eh
Relativity type    :
Basis              : AO
                                X                 Y                 Z
Electronic contribution:     -0.000426032       0.009352772      -3.743936478
Nuclear contribution   :      0.000336383      -0.011380290       4.701538986
                        -----------------------------------------
Total Dipole Moment    :     -0.000089649      -0.002027518       0.957602508
                        -----------------------------------------
Magnitude (a.u.)       :      0.957604659
Magnitude (Debye)      :      2.434037607

Rotational constants in cm-1:             0.102359             0.043412             0.041640
Rotational constants in MHz :          3068.648694          1301.461821          1248.331810

                             ****ORCA TERMINATED NORMALLY****
TOTAL RUN TIME: 0 days 0 hours 0 minutes 10 seconds 880 msec
