                         Program Version 6.0.0  -   RELEASE  -
|  1> ! r2scan-3c def2/J RI DEFGRID2 scfconv6 printgap
|  2> %output
|  3>     printlevel normal
|  4> end
|  5> * xyz 0 1
|  6> C -2.7150206504 0.7111129114 0.7725998231
|  7> C -2.1191345463 0.2281621287 -0.54465696
|  8> C -0.8921393102 -0.6466595338 -0.3227963385
|  9> O 0.1583351232 0.1556110418 0.2374772957
| 10> C 1.4163733107 -0.1509661232 -0.0454413339
| 11> O 1.7356379829 -1.0851412059 -0.7541374495
| 12> C 2.3786587483 0.7880153399 0.6181383502
| 13> H -3.5667611709 1.3588257838 0.5857931386
| 14> H -3.0460023398 -0.1332709027 1.3720107945
| 15> H -1.9713539629 1.2660661195 1.3379571749
| 16> H -1.8318690076 1.0843248524 -1.1566832011
| 17> H -2.8542116039 -0.3578843081 -1.0965888807
| 18> H -1.1092061236 -1.4546254945 0.3829697122
| 19> H -0.5311924573 -1.0847184475 -1.259127853
| 20> H 2.8821518923 0.2564403475 1.4224395906
| 21> H 1.8466087613 1.6434658179 1.019100111
| 22> H 3.1314936662 1.0980524082 -0.1008027283
| 23> *
| 24>
| 25>                          ****END OF INPUT****

CARTESIAN COORDINATES (ANGSTROEM)
---------------------------------
  C     -2.715021    0.711113    0.772600
  C     -2.119135    0.228162   -0.544657
  C     -0.892139   -0.646660   -0.322796
  O      0.158335    0.155611    0.237477
  C      1.416373   -0.150966   -0.045441
  O      1.735638   -1.085141   -0.754137
  C      2.378659    0.788015    0.618138
  H     -3.566761    1.358826    0.585793
  H     -3.046002   -0.133271    1.372011
  H     -1.971354    1.266066    1.337957
  H     -1.831869    1.084325   -1.156683
  H     -2.854212   -0.357884   -1.096589
  H     -1.109206   -1.454625    0.382970
  H     -0.531192   -1.084718   -1.259128
  H      2.882152    0.256440    1.422440
  H      1.846609    1.643466    1.019100
  H      3.131494    1.098052   -0.100803

 Total Charge           Charge          ....    0
 Multiplicity           Mult            ....    1
 Number of Electrons    NEL             ....   56
 Basis Dimension        Dim             ....  193

ORBITAL ENERGIES
----------------

  NO   OCC          E(Eh)            E(eV)
   0   2.0000     -18.997944      -516.9603
   1   2.0000     -18.926377      -515.0129
   2   2.0000     -10.155492      -276.3450
   3   2.0000     -10.087898      -274.5057
   4   2.0000     -10.038941      -273.1735
   5   2.0000     -10.038892      -273.1721
   6   2.0000     -10.022642      -272.7299
   7   2.0000      -1.072682       -29.1892
   8   2.0000      -0.974433       -26.5157
   9   2.0000      -0.770346       -20.9622
  10   2.0000      -0.721288       -19.6273
  11   2.0000      -0.660348       -17.9690
  12   2.0000      -0.583684       -15.8829
  13   2.0000      -0.529452       -14.4071
  14   2.0000      -0.467151       -12.7118
  15   2.0000      -0.455524       -12.3954
  16   2.0000      -0.440179       -11.9779
  17   2.0000      -0.418085       -11.3767
  18   2.0000      -0.401376       -10.9220
  19   2.0000      -0.393616       -10.7108
  20   2.0000      -0.376117       -10.2347
  21   2.0000      -0.351375        -9.5614
  22   2.0000      -0.342952        -9.3322
  23   2.0000      -0.323922        -8.8144
  24   2.0000      -0.317545        -8.6408
  25   2.0000      -0.302968        -8.2442
  26   2.0000      -0.270452        -7.3594
  27   2.0000      -0.235717        -6.4142
  28   0.0000      -0.013490        -0.3671
  29   0.0000       0.073575         2.0021
  30   0.0000       0.095856         2.6084
  31   0.0000       0.111476         3.0334
  32   0.0000       0.121780         3.3138

MULLIKEN ATOMIC CHARGES
-----------------------
   0 C :   -0.473434
   1 C :   -0.226995
   2 C :   -0.165764
   3 O :   -0.174051
   4 C :    0.415255
   5 O :   -0.428626
   6 C :   -0.517311
   7 H :    0.147093
   8 H :    0.142098
   9 H :    0.159231
  10 H :    0.144888
  11 H :    0.140086
  12 H :    0.142539
  13 H :    0.178737
  14 H :    0.174058
  15 H :    0.168935
  16 H :    0.173261
Sum of atomic charges:    0.0000000

LOEWDIN ATOMIC CHARGES
----------------------
   0 C :   -0.419414
   1 C :   -0.285556
   2 C :    0.039061
   3 O :   -0.604293
   4 C :    0.354550
   5 O :   -0.437481
   6 C :   -0.336024
   7 H :    0.151338
   8 H :    0.151146
   9 H :    0.159027
  10 H :    0.162269
  11 H :    0.159949
  12 H :    0.177865
  13 H :    0.194887
  14 H :    0.180922
  15 H :    0.173286
  16 H :    0.178470

  Mayer bond orders larger than 0.100000
B(  0-C ,  1-C ) :   0.9128 B(  0-C ,  7-H ) :   0.9714 B(  0-C ,  8-H ) :   0.9778
B(  0-C ,  9-H ) :   0.9800 B(  1-C ,  2-C ) :   0.9554 B(  1-C , 10-H ) :   0.9708
B(  1-C , 11-H ) :   0.9624 B(  2-C ,  3-O ) :   0.7889 B(  2-C , 12-H ) :   0.9463
B(  2-C , 13-H ) :   0.9566 B(  3-O ,  4-C ) :   1.0725 B(  4-C ,  5-O ) :   1.8322
B(  4-C ,  6-C ) :   0.9466 B(  6-C , 14-H ) :   0.9441 B(  6-C , 15-H ) :   0.9844
B(  6-C , 16-H ) :   0.9621

Dispersion correction           -0.003898528
FINAL SINGLE POINT ENERGY      -346.935696012686

DIPOLE MOMENT
-------------

Method             : SCF
Type of density    : Electron Density
Multiplicity       :   1
Irrep              :   0
Energy             :  -346.9422824147444544 Eh
Relativity type    :
Basis              : AO
                                X                 Y                 Z
Electronic contribution:      6.024792840      -2.866117190      -1.953798213
Nuclear contribution   :     -6.586319606       3.435555639       2.344388753
                        -----------------------------------------
Total Dipole Moment    :     -0.561526767       0.569438450       0.390590539
                        -----------------------------------------
Magnitude (a.u.)       :      0.890018779
Magnitude (Debye)      :      2.262247953

Rotational constants in cm-1:             0.197426             0.045690             0.039152
Rotational constants in MHz :          5918.686167          1369.737833          1173.757051

                             ****ORCA TERMINATED NORMALLY****
TOTAL RUN TIME: 0 days 0 hours 0 minutes 21 seconds 606 msec
