                         Program Version 6.0.0  -   RELEASE  -
|  1> ! r2scan-3c def2/J RI DEFGRID2 scfconv6 printgap
|  2> %output
|  3>     printlevel normal
|  4> end
|  5> %cpcm
|  6>     smd true
|  7>     smdsolvent "water"
|  8> end
|  9> * xyz 0 1
| 10> C -2.7150206504 0.7111129114 0.7725998231
| 11> C -2.1191345463 0.2281621287 -0.54465696
| 12> C -0.8921393102 -0.6466595338 -0.3227963385
| 13> O 0.1583351232 0.1556110418 0.2374772957
| 14> C 1.4163733107 -0.1509661232 -0.0454413339
| 15> O 1.7356379829 -1.0851412059 -0.7541374495
| 16> C 2.3786587483 0.7880153399 0.6181383502
| 17> H -3.5667611709 1.3588257838 0.5857931386
| 18> H -3.0460023398 -0.1332709027 1.3720107945
| 19> H -1.9713539629 1.2660661195 1.3379571749
| 20> H -1.8318690076 1.0843248524 -1.1566832011
| 21> H -2.8542116039 -0.3578843081 -1.0965888807
| 22> H -1.1092061236 -1.4546254945 0.3829697122
| 23> H -0.5311924573 -1.0847184475 -1.259127853
| 24> H 2.8821518923 0.2564403475 1.4224395906
| 25> H 1.8466087613 1.6434658179 1.019100111
| 26> H 3.1314936662 1.0980524082 -0.1008027283
| 27> *
| 28>
| 29>                          ****END OF INPUT****

CARTESIAN COORDINATES (ANGSTROEM)
---------------------------------
  C     -2.715021    0.711113    0.772600
  C     -2.119135    0.228162   -0.544657
  C     -0.892139   -0.646660   -0.322796
  O      0.158335    0.155611    0.237477
  C      1.416373   -0.150966   -0.045441
  O      1.735638   -1.085141   -0.754137
  C      2.378659    0.788015    0.618138
  H     -3.566761    1.358826    0.585793
  H     -3.046002   -0.133271    1.372011
  H     -1.971354    1.266066    1.337957
  H     -1.831869    1.084325   -1.156683
  H     -2.854212   -0.357884   -1.096589
  H     -1.109206   -1.454625    0.382970
  H     -0.531192   -1.084718   -1.259128
  H      2.882152    0.256440    1.422440
  H      1.846609    1.643466    1.019100
  H      3.131494    1.098052   -0.100803

 Total Charge           Charge          ....    0
 Multiplicity           Mult            ....    1
 Number of Electrons    NEL             ....   56
 Basis Dimension        Dim             ....  193

ORBITAL ENERGIES
----------------

  NO   OCC          E(Eh)            E(eV)
   0   2.0000     -19.003025      -517.0986
   1   2.0000     -18.942072      -515.4400
   2   2.0000     -10.165473      -276.6166
   3   2.0000     -10.080184      -274.2957
   4   2.0000     -10.030129      -272.9337
   5   2.0000     -10.026463      -272.8339
   6   2.0000     -10.010864      -272.4095
   7   2.0000      -1.079341       -29.3704
   8   2.0000      -0.988135       -26.8885
   9   2.0000      -0.762682       -20.7536
  10   2.0000      -0.714677       -19.4474
  11   2.0000      -0.652530       -17.7562
  12   2.0000      -0.575775       -15.6676
  13   2.0000      -0.525762       -14.3067
  14   2.0000      -0.466363       -12.6904
  15   2.0000      -0.461284       -12.5522
  16   2.0000      -0.445070       -12.1110
  17   2.0000      -0.411115       -11.1870
  18   2.0000      -0.397044       -10.8041
  19   2.0000      -0.383631       -10.4391
  20   2.0000      -0.370192       -10.0734
  21   2.0000      -0.347274        -9.4498
  22   2.0000      -0.341069        -9.2810
  23   2.0000      -0.318405        -8.6643
  24   2.0000      -0.306701        -8.3458
  25   2.0000      -0.298710        -8.1283
  26   2.0000      -0.276005        -7.5105
  27   2.0000      -0.252573        -6.8729
  28   0.0000      -0.020743        -0.5645
  29   0.0000       0.078437         2.1344
  30   0.0000       0.106260         2.8915
  31   0.0000       0.119855         3.2614
  32   0.0000       0.132102         3.5947

MULLIKEN ATOMIC CHARGES
-----------------------
   0 C :   -0.508917
   1 C :   -0.246434
   2 C :   -0.168297
   3 O :   -0.189823
   4 C :    0.464154
   5 O :   -0.518583
   6 C :   -0.553961
   7 H :    0.160060
   8 H :    0.158186
   9 H :    0.158763
  10 H :    0.157723
  11 H :    0.158926
  12 H :    0.169723
  13 H :    0.176183
  14 H :    0.202570
  15 H :    0.187022
  16 H :    0.192706
Sum of atomic charges:    0.0000000

LOEWDIN ATOMIC CHARGES
----------------------
   0 C :   -0.426323
   1 C :   -0.283680
   2 C :    0.041698
   3 O :   -0.604239
   4 C :    0.365770
   5 O :   -0.502010
   6 C :   -0.334282
   7 H :    0.155139
   8 H :    0.155706
   9 H :    0.157222
  10 H :    0.165170
  11 H :    0.167648
  12 H :    0.187513
  13 H :    0.194660
  14 H :    0.191941
  15 H :    0.181944
  16 H :    0.186124

  Mayer bond orders larger than 0.100000
B(  0-C ,  1-C ) :   0.9047 B(  0-C ,  7-H ) :   0.9688 B(  0-C ,  8-H ) :   0.9749
B(  0-C ,  9-H ) :   0.9790 B(  1-C ,  2-C ) :   0.9561 B(  1-C , 10-H ) :   0.9735
B(  1-C , 11-H ) :   0.9576 B(  2-C ,  3-O ) :   0.7763 B(  2-C , 12-H ) :   0.9376
B(  2-C , 13-H ) :   0.9521 B(  3-O ,  4-C ) :   1.1016 B(  4-C ,  5-O ) :   1.7573
B(  4-C ,  6-C ) :   0.9467 B(  6-C , 14-H ) :   0.9320 B(  6-C , 15-H ) :   0.9739
B(  6-C , 16-H ) :   0.9533

Dispersion correction           -0.003898528
FINAL SINGLE POINT ENERGY      -346.941134989559

DIPOLE MOMENT
-------------

Method             : SCF
Type of density    : Electron Density
Multiplicity       :   1
Irrep              :   0
Energy             :  -346.9477213916168807 Eh
Relativity type    :
Basis              : AO
                                X                 Y                 Z
Electronic contribution:      5.832089042      -2.668704476      -1.795762273
Nuclear contribution   :     -6.586319606       3.435555639       2.344388753
                        -----------------------------------------
Total Dipole Moment    :     -0.754230564       0.766851164       0.548626479
                        -----------------------------------------
Magnitude (a.u.)       :      1.207441703
Magnitude (Debye)      :      3.069072905

Rotational constants in cm-1:             0.197426             0.045690             0.039152
Rotational constants in MHz :          5918.686167          1369.737833          1173.757051

                             ****ORCA TERMINATED NORMALLY****
TOTAL RUN TIME: 0 days 0 hours 0 minutes 28 seconds 14 msec
