                         Program Version 6.0.0  -   RELEASE  -
|  1> ! pbe def2-sv(p) def2/J RI DEFGRID1 loosescf d4 GCP(DFT/SV(P)) printgap
|  2> %output
|  3>     printlevel normal
|  4> end
|  5> * xyz 0 1
|  6> C 2.0991280228 -0.7014406083 -0.7599733124
|  7> C 1.465755383 -0.4964285328 0.6120750266
|  8> C 0.1998037218 0.374647477 0.5702349855
|  9> H -0.1998480823 0.4429583774 1.5974741158
| 10> C -0.918732396 -0.1718499771 -0.3343701781
| 11> C -1.2942709026 -1.6081111681 0.0194514058
| 12> C -2.1485330333 0.7297871409 -0.2220344228
| 13> O 0.5071895443 1.6808534645 0.106044331
| 14> H 2.1969475397 0.2539339126 -1.2705412339
| 15> H 1.4925806267 -1.3587931501 -1.3767474706
| 16> H 3.0864152973 -1.1443314712 -0.6556097307
| 17> H 1.2240606299 -1.456457029 1.0669077078
| 18> H 2.1882823095 0.0008207879 1.2653119732
| 19> H -0.5581728942 -0.1279757574 -1.3659307398
| 20> H -0.4857833032 -2.2997399669 -0.1975831943
| 21> H -1.5446471963 -1.6834903809 1.0755670186
| 22> H -2.1626242293 -1.9102681409 -0.5606255997
| 23> H -2.9137260448 0.4144203571 -0.9266281048
| 24> H -1.8764222069 1.7593342631 -0.4383209463
| 25> H -2.5608033703 0.6824310832 0.7839599612
| 26> H 1.1751829285 2.0702848603 0.6852873835
| 27> *
| 28>
| 29>                          ****END OF INPUT****

CARTESIAN COORDINATES (ANGSTROEM)
---------------------------------
  C      2.099128   -0.701441   -0.759973
  C      1.465755   -0.496429    0.612075
  C      0.199804    0.374647    0.570235
  H     -0.199848    0.442958    1.597474
  C     -0.918732   -0.171850   -0.334370
  C     -1.294271   -1.608111    0.019451
  C     -2.148533    0.729787   -0.222034
  O      0.507190    1.680853    0.106044
  H      2.196948    0.253934   -1.270541
  H      1.492581   -1.358793   -1.376747
  H      3.086415   -1.144331   -0.655610
  H      1.224061   -1.456457    1.066908
  H      2.188282    0.000821    1.265312
  H     -0.558173   -0.127976   -1.365931
  H     -0.485783   -2.299740   -0.197583
  H     -1.544647   -1.683490    1.075567
  H     -2.162624   -1.910268   -0.560626
  H     -2.913726    0.414420   -0.926628
  H     -1.876422    1.759334   -0.438321
  H     -2.560803    0.682431    0.783960
  H      1.175183    2.070285    0.685287

 Total Charge           Charge          ....    0
 Multiplicity           Mult            ....    1
 Number of Electrons    NEL             ....   58
 Basis Dimension        Dim             ....  126

ORBITAL ENERGIES
----------------

  NO   OCC          E(Eh)            E(eV)
   0   2.0000     -18.740232      -509.9476
   1   2.0000      -9.932554      -270.2785
   2   2.0000      -9.888806      -269.0881
   3   2.0000      -9.883550      -268.9451
   4   2.0000      -9.872731      -268.6507
   5   2.0000      -9.870439      -268.5883
   6   2.0000      -9.861747      -268.3518
   7   2.0000      -0.917939       -24.9784
   8   2.0000      -0.724794       -19.7226
   9   2.0000      -0.681978       -18.5576
  10   2.0000      -0.605970       -16.4893
  11   2.0000      -0.597385       -16.2557
  12   2.0000      -0.542038       -14.7496
  13   2.0000      -0.485814       -13.2197
  14   2.0000      -0.451946       -12.2981
  15   2.0000      -0.414023       -11.2661
  16   2.0000      -0.410839       -11.1795
  17   2.0000      -0.385684       -10.4950
  18   2.0000      -0.369534       -10.0555
  19   2.0000      -0.344398        -9.3715
  20   2.0000      -0.335955        -9.1418
  21   2.0000      -0.321514        -8.7488
  22   2.0000      -0.320656        -8.7255
  23   2.0000      -0.311766        -8.4836
  24   2.0000      -0.291703        -7.9376
  25   2.0000      -0.287347        -7.8191
  26   2.0000      -0.281189        -7.6515
  27   2.0000      -0.256319        -6.9748
  28   2.0000      -0.212294        -5.7768
  29   0.0000       0.023439         0.6378
  30   0.0000       0.046056         1.2533
  31   0.0000       0.062524         1.7014
  32   0.0000       0.074529         2.0280
  33   0.0000       0.090299         2.4572

MULLIKEN ATOMIC CHARGES
-----------------------
   0 C :   -0.284049
   1 C :   -0.167941
   2 C :    0.052732
   3 H :    0.047255
   4 C :   -0.176208
   5 C :   -0.254455
   6 C :   -0.234996
   7 O :   -0.419438
   8 H :    0.104288
   9 H :    0.109503
  10 H :    0.100597
  11 H :    0.086684
  12 H :    0.068654
  13 H :    0.079503
  14 H :    0.107819
  15 H :    0.094023
  16 H :    0.100891
  17 H :    0.094189
  18 H :    0.113735
  19 H :    0.082286
  20 H :    0.294928
Sum of atomic charges:   -0.0000000

LOEWDIN ATOMIC CHARGES
----------------------
   0 C :   -0.345865
   1 C :   -0.247669
   2 C :   -0.044082
   3 H :    0.092656
   4 C :   -0.161144
   5 C :   -0.329005
   6 C :   -0.330561
   7 O :   -0.326487
   8 H :    0.119380
   9 H :    0.117735
  10 H :    0.119013
  11 H :    0.118768
  12 H :    0.109381
  13 H :    0.120024
  14 H :    0.116296
  15 H :    0.117009
  16 H :    0.120953
  17 H :    0.114765
  18 H :    0.123368
  19 H :    0.112755
  20 H :    0.282709

  Mayer bond orders larger than 0.100000
B(  0-C ,  1-C ) :   1.1476 B(  0-C ,  8-H ) :   0.9446 B(  0-C ,  9-H ) :   0.9462
B(  0-C , 10-H ) :   0.9510 B(  1-C ,  2-C ) :   1.0786 B(  1-C , 11-H ) :   0.9051
B(  1-C , 12-H ) :   0.9186 B(  2-C ,  3-H ) :   0.8966 B(  2-C ,  4-C ) :   1.0387
B(  2-C ,  7-O ) :   1.0413 B(  4-C ,  5-C ) :   1.1061 B(  4-C ,  6-C ) :   1.1185
B(  4-C , 13-H ) :   0.8840 B(  5-C , 14-H ) :   0.9389 B(  5-C , 15-H ) :   0.9472
B(  5-C , 16-H ) :   0.9492 B(  6-C , 17-H ) :   0.9513 B(  6-C , 18-H ) :   0.9420
B(  6-C , 19-H ) :   0.9490 B(  7-O , 20-H ) :   0.8493

Dispersion correction           -0.017019414
FINAL SINGLE POINT ENERGY      -311.518542309170

DIPOLE MOMENT
-------------

Method             : SCF
Type of density    : Electron Density
Multiplicity       :   1
Irrep              :   0
Energy             :  -311.5983738112473134 Eh
Relativity type    :
Basis              : AO
                                X                 Y                 Z
Electronic contribution:      1.189808195       3.906661841       0.708828223
Nuclear contribution   :     -0.872993813      -4.062513563      -0.296273314
                        -----------------------------------------
Total Dipole Moment    :      0.316814383      -0.155851722       0.412554910
                        -----------------------------------------
Magnitude (a.u.)       :      0.543012583
Magnitude (Debye)      :      1.380228298

Rotational constants in cm-1:             0.111652             0.066960             0.049591
Rotational constants in MHz :          3347.236198          2007.411508          1486.700157

                             ****ORCA TERMINATED NORMALLY****
TOTAL RUN TIME: 0 days 0 hours 0 minutes 9 seconds 301 msec
