                         Program Version 6.0.0  -   RELEASE  -
|  1> ! r2scan-3c def2/J RI DEFGRID2 scfconv6 printgap
|  2> %output
|  3>     printlevel normal
|  4> end
|  5> * xyz 0 1
|  6> C 2.1198455501 -0.3159027497 -0.5799035823
|  7> C 1.3641728858 0.4930455366 0.4686796646
|  8> C -0.0504066988 -0.0270560342 0.7281925947
|  9> C -0.9960570725 0.1635390544 -0.4562563205
| 10> C -2.4165613089 -0.2725301938 -0.1159683016
| 11> H 3.1418991546 0.0447560663 -0.6689049893
| 12> H 1.6454800313 -0.2320883016 -1.5539853521
| 13> H 2.149680559 -1.3664675982 -0.2993878123
| 14> H 1.9231849857 0.4612137141 1.4069125306
| 15> H 1.3105978551 1.537193062 0.1519111916
| 16> H -0.4634332177 0.5008730655 1.5915806453
| 17> H -0.0021941724 -1.0883711706 0.983487952
| 18> H -0.999710872 1.2168252475 -0.7466460027
| 19> H -0.6406993401 -0.4166537588 -1.3091500012
| 20> H -2.8060098599 0.3105549686 0.7158145774
| 21> H -2.434366698 -1.3231154363 0.1656355968
| 22> H -3.07460324 -0.1344503975 -0.9704768314
| 23> *
| 24>
| 25>                          ****END OF INPUT****

CARTESIAN COORDINATES (ANGSTROEM)
---------------------------------
  C      2.119846   -0.315903   -0.579904
  C      1.364173    0.493046    0.468680
  C     -0.050407   -0.027056    0.728193
  C     -0.996057    0.163539   -0.456256
  C     -2.416561   -0.272530   -0.115968
  H      3.141899    0.044756   -0.668905
  H      1.645480   -0.232088   -1.553985
  H      2.149681   -1.366468   -0.299388
  H      1.923185    0.461214    1.406913
  H      1.310598    1.537193    0.151911
  H     -0.463433    0.500873    1.591581
  H     -0.002194   -1.088371    0.983488
  H     -0.999711    1.216825   -0.746646
  H     -0.640699   -0.416654   -1.309150
  H     -2.806010    0.310555    0.715815
  H     -2.434367   -1.323115    0.165636
  H     -3.074603   -0.134450   -0.970477

 Total Charge           Charge          ....    0
 Multiplicity           Mult            ....    1
 Number of Electrons    NEL             ....   42
 Basis Dimension        Dim             ....  155

ORBITAL ENERGIES
----------------

  NO   OCC          E(Eh)            E(eV)
   0   2.0000     -10.020920      -272.6831
   1   2.0000     -10.020569      -272.6735
   2   2.0000     -10.018766      -272.6245
   3   2.0000     -10.013203      -272.4731
   4   2.0000     -10.012806      -272.4623
   5   2.0000      -0.767500       -20.8847
   6   2.0000      -0.714204       -19.4345
   7   2.0000      -0.640468       -17.4280
   8   2.0000      -0.572886       -15.5890
   9   2.0000      -0.529333       -14.4039
  10   2.0000      -0.435635       -11.8542
  11   2.0000      -0.414430       -11.2772
  12   2.0000      -0.401357       -10.9215
  13   2.0000      -0.378091       -10.2884
  14   2.0000      -0.354104        -9.6357
  15   2.0000      -0.339221        -9.2307
  16   2.0000      -0.324025        -8.8172
  17   2.0000      -0.309190        -8.4135
  18   2.0000      -0.290511        -7.9052
  19   2.0000      -0.287157        -7.8139
  20   2.0000      -0.278498        -7.5783
  21   0.0000       0.094099         2.5606
  22   0.0000       0.107328         2.9206
  23   0.0000       0.122608         3.3363
  24   0.0000       0.133922         3.6442
  25   0.0000       0.142190         3.8692

MULLIKEN ATOMIC CHARGES
-----------------------
   0 C :   -0.489113
   1 C :   -0.212226
   2 C :   -0.251881
   3 C :   -0.257466
   4 C :   -0.466384
   5 H :    0.145010
   6 H :    0.148069
   7 H :    0.141859
   8 H :    0.140082
   9 H :    0.130201
  10 H :    0.137018
  11 H :    0.132688
  12 H :    0.136259
  13 H :    0.139905
  14 H :    0.141135
  15 H :    0.140162
  16 H :    0.144682
Sum of atomic charges:    0.0000000

LOEWDIN ATOMIC CHARGES
----------------------
   0 C :   -0.428112
   1 C :   -0.318759
   2 C :   -0.315234
   3 C :   -0.318491
   4 C :   -0.425345
   5 H :    0.150202
   6 H :    0.148623
   7 H :    0.149590
   8 H :    0.151002
   9 H :    0.150837
  10 H :    0.153759
  11 H :    0.152752
  12 H :    0.150630
  13 H :    0.150647
  14 H :    0.149100
  15 H :    0.149485
  16 H :    0.149315

  Mayer bond orders larger than 0.100000
B(  0-C ,  1-C ) :   0.8939 B(  0-C ,  5-H ) :   0.9702 B(  0-C ,  6-H ) :   0.9843
B(  0-C ,  7-H ) :   0.9814 B(  1-C ,  2-C ) :   0.9065 B(  1-C ,  8-H ) :   0.9728
B(  1-C ,  9-H ) :   0.9805 B(  2-C ,  3-C ) :   0.9156 B(  2-C , 10-H ) :   0.9721
B(  2-C , 11-H ) :   0.9791 B(  3-C ,  4-C ) :   0.9055 B(  3-C , 12-H ) :   0.9732
B(  3-C , 13-H ) :   0.9707 B(  4-C , 14-H ) :   0.9848 B(  4-C , 15-H ) :   0.9820
B(  4-C , 16-H ) :   0.9748

Dispersion correction           -0.003682740
FINAL SINGLE POINT ENERGY      -197.687244280213

DIPOLE MOMENT
-------------

Method             : SCF
Type of density    : Electron Density
Multiplicity       :   1
Irrep              :   0
Energy             :  -197.6914765680037931 Eh
Relativity type    :
Basis              : AO
                                X                 Y                 Z
Electronic contribution:      0.246099514       0.479256359       0.510431708
Nuclear contribution   :     -0.234704207      -0.459446001      -0.500235315
                        -----------------------------------------
Total Dipole Moment    :      0.011395307       0.019810359       0.010196392
                        -----------------------------------------
Magnitude (a.u.)       :      0.025025382
Magnitude (Debye)      :      0.063609466

Rotational constants in cm-1:             0.395697             0.076871             0.071296
Rotational constants in MHz :         11862.683178          2304.532741          2137.407659

                             ****ORCA TERMINATED NORMALLY****
TOTAL RUN TIME: 0 days 0 hours 0 minutes 12 seconds 675 msec
