                         Program Version 6.0.0  -   RELEASE  -
|  1> ! r2scan-3c def2/J RI DEFGRID2 scfconv6 printgap
|  2> %output
|  3>     printlevel normal
|  4> end
|  5> %cpcm
|  6>     smd true
|  7>     smdsolvent "water"
|  8> end
|  9> * xyz 0 1
| 10> C 2.1198455501 -0.3159027497 -0.5799035823
| 11> C 1.3641728858 0.4930455366 0.4686796646
| 12> C -0.0504066988 -0.0270560342 0.7281925947
| 13> C -0.9960570725 0.1635390544 -0.4562563205
| 14> C -2.4165613089 -0.2725301938 -0.1159683016
| 15> H 3.1418991546 0.0447560663 -0.6689049893
| 16> H 1.6454800313 -0.2320883016 -1.5539853521
| 17> H 2.149680559 -1.3664675982 -0.2993878123
| 18> H 1.9231849857 0.4612137141 1.4069125306
| 19> H 1.3105978551 1.537193062 0.1519111916
| 20> H -0.4634332177 0.5008730655 1.5915806453
| 21> H -0.0021941724 -1.0883711706 0.983487952
| 22> H -0.999710872 1.2168252475 -0.7466460027
| 23> H -0.6406993401 -0.4166537588 -1.3091500012
| 24> H -2.8060098599 0.3105549686 0.7158145774
| 25> H -2.434366698 -1.3231154363 0.1656355968
| 26> H -3.07460324 -0.1344503975 -0.9704768314
| 27> *
| 28>
| 29>                          ****END OF INPUT****

CARTESIAN COORDINATES (ANGSTROEM)
---------------------------------
  C      2.119846   -0.315903   -0.579904
  C      1.364173    0.493046    0.468680
  C     -0.050407   -0.027056    0.728193
  C     -0.996057    0.163539   -0.456256
  C     -2.416561   -0.272530   -0.115968
  H      3.141899    0.044756   -0.668905
  H      1.645480   -0.232088   -1.553985
  H      2.149681   -1.366468   -0.299388
  H      1.923185    0.461214    1.406913
  H      1.310598    1.537193    0.151911
  H     -0.463433    0.500873    1.591581
  H     -0.002194   -1.088371    0.983488
  H     -0.999711    1.216825   -0.746646
  H     -0.640699   -0.416654   -1.309150
  H     -2.806010    0.310555    0.715815
  H     -2.434367   -1.323115    0.165636
  H     -3.074603   -0.134450   -0.970477

 Total Charge           Charge          ....    0
 Multiplicity           Mult            ....    1
 Number of Electrons    NEL             ....   42
 Basis Dimension        Dim             ....  155

ORBITAL ENERGIES
----------------

  NO   OCC          E(Eh)            E(eV)
   0   2.0000     -10.014198      -272.5002
   1   2.0000     -10.013413      -272.4788
   2   2.0000     -10.011601      -272.4295
   3   2.0000     -10.006664      -272.2952
   4   2.0000     -10.006055      -272.2786
   5   2.0000      -0.760790       -20.7021
   6   2.0000      -0.707883       -19.2625
   7   2.0000      -0.634262       -17.2592
   8   2.0000      -0.566617       -15.4184
   9   2.0000      -0.522777       -14.2255
  10   2.0000      -0.428604       -11.6629
  11   2.0000      -0.407842       -11.0980
  12   2.0000      -0.394912       -10.7461
  13   2.0000      -0.371714       -10.1149
  14   2.0000      -0.347609        -9.4589
  15   2.0000      -0.332794        -9.0558
  16   2.0000      -0.317454        -8.6384
  17   2.0000      -0.302519        -8.2320
  18   2.0000      -0.283396        -7.7116
  19   2.0000      -0.280285        -7.6269
  20   2.0000      -0.271757        -7.3949
  21   0.0000       0.101274         2.7558
  22   0.0000       0.113677         3.0933
  23   0.0000       0.128130         3.4866
  24   0.0000       0.140356         3.8193
  25   0.0000       0.148918         4.0523

MULLIKEN ATOMIC CHARGES
-----------------------
   0 C :   -0.524491
   1 C :   -0.228276
   2 C :   -0.265999
   3 C :   -0.265141
   4 C :   -0.507352
   5 H :    0.154378
   6 H :    0.158566
   7 H :    0.152691
   8 H :    0.147493
   9 H :    0.139086
  10 H :    0.145077
  11 H :    0.142145
  12 H :    0.144573
  13 H :    0.149490
  14 H :    0.152386
  15 H :    0.151194
  16 H :    0.154180
Sum of atomic charges:    0.0000000

LOEWDIN ATOMIC CHARGES
----------------------
   0 C :   -0.436411
   1 C :   -0.321693
   2 C :   -0.318340
   3 C :   -0.320654
   4 C :   -0.434418
   5 H :    0.152041
   6 H :    0.151205
   7 H :    0.152213
   8 H :    0.152617
   9 H :    0.152751
  10 H :    0.155423
  11 H :    0.154897
  12 H :    0.152660
  13 H :    0.153019
  14 H :    0.151483
  15 H :    0.151766
  16 H :    0.151441

  Mayer bond orders larger than 0.100000
B(  0-C ,  1-C ) :   0.8884 B(  0-C ,  5-H ) :   0.9682 B(  0-C ,  6-H ) :   0.9807
B(  0-C ,  7-H ) :   0.9787 B(  1-C ,  2-C ) :   0.9022 B(  1-C ,  8-H ) :   0.9730
B(  1-C ,  9-H ) :   0.9812 B(  2-C ,  3-C ) :   0.9112 B(  2-C , 10-H ) :   0.9718
B(  2-C , 11-H ) :   0.9777 B(  3-C ,  4-C ) :   0.8953 B(  3-C , 12-H ) :   0.9726
B(  3-C , 13-H ) :   0.9696 B(  4-C , 14-H ) :   0.9825 B(  4-C , 15-H ) :   0.9801
B(  4-C , 16-H ) :   0.9721

Dispersion correction           -0.003682740
FINAL SINGLE POINT ENERGY      -197.684269932000

DIPOLE MOMENT
-------------

Method             : SCF
Type of density    : Electron Density
Multiplicity       :   1
Irrep              :   0
Energy             :  -197.6885022197907062 Eh
Relativity type    :
Basis              : AO
                                X                 Y                 Z
Electronic contribution:      0.249172899       0.481552376       0.509386715
Nuclear contribution   :     -0.234704207      -0.459446001      -0.500235315
                        -----------------------------------------
Total Dipole Moment    :      0.014468692       0.022106375       0.009151400
                        -----------------------------------------
Magnitude (a.u.)       :      0.027960382
Magnitude (Debye)      :      0.071069644

Rotational constants in cm-1:             0.395697             0.076871             0.071296
Rotational constants in MHz :         11862.683178          2304.532741          2137.407659

                             ****ORCA TERMINATED NORMALLY****
TOTAL RUN TIME: 0 days 0 hours 0 minutes 15 seconds 723 msec
