                         Program Version 6.0.0  -   RELEASE  -
|  1> ! pbe def2-sv(p) def2/J RI DEFGRID1 loosescf d4 GCP(DFT/SV(P)) printgap
|  2> %output
|  3>     printlevel normal
|  4> end
|  5> * xyz 0 1
|  6> C 3.5737716126 -0.6716003349 0.0229424998
|  7> C 2.2336391148 -0.1907513823 0.487602481
|  8> C 1.8642298859 -0.2342434426 1.7574142796
|  9> C 1.3176579784 0.3088881274 -0.6088830449
| 10> H 1.9396283074 0.6023957769 -1.458356696
| 11> C 0.3801616754 -0.8358124365 -1.0523806688
| 12> C -1.0488066915 -0.3521468728 -1.3205402685
| 13> C -1.5550659929 0.3273503323 -0.0853034486
| 14> C -0.7538842454 1.2418258756 0.4902852573
| 15> C 0.5350558986 1.569109808 -0.1618076688
| 16> C -2.8293033808 -0.0399984499 0.4866800169
| 17> O -3.5955967002 -0.878536966 0.0435431581
| 18> H 4.1336623185 0.1498316126 -0.4219212438
| 19> H 4.1501894288 -1.0814913952 0.8473535246
| 20> H 3.4498308359 -1.440824692 -0.7376578918
| 21> H 0.8935849861 0.1020931258 2.0816853464
| 22> H 2.5147273317 -0.6171807412 2.525166993
| 23> H 0.7753483221 -1.3162705749 -1.947022381
| 24> H 0.3361469202 -1.5888433069 -0.2625124977
| 25> H -1.0495683709 0.3506950281 -2.1571628672
| 26> H -1.698774481 -1.1906230413 -1.5737907316
| 27> H -1.0425190162 1.7543252757 1.3961775599
| 28> H 0.3049076177 2.1471599325 -1.0619423537
| 29> H 1.1650011255 2.1819565253 0.4809879919
| 30> H -3.0960689175 0.5145518578 1.4070092096
| 31> *
| 32>
| 33>                          ****END OF INPUT****

CARTESIAN COORDINATES (ANGSTROEM)
---------------------------------
  C      3.573772   -0.671600    0.022942
  C      2.233639   -0.190751    0.487602
  C      1.864230   -0.234243    1.757414
  C      1.317658    0.308888   -0.608883
  H      1.939628    0.602396   -1.458357
  C      0.380162   -0.835812   -1.052381
  C     -1.048807   -0.352147   -1.320540
  C     -1.555066    0.327350   -0.085303
  C     -0.753884    1.241826    0.490285
  C      0.535056    1.569110   -0.161808
  C     -2.829303   -0.039998    0.486680
  O     -3.595597   -0.878537    0.043543
  H      4.133662    0.149832   -0.421921
  H      4.150189   -1.081491    0.847354
  H      3.449831   -1.440825   -0.737658
  H      0.893585    0.102093    2.081685
  H      2.514727   -0.617181    2.525167
  H      0.775348   -1.316271   -1.947022
  H      0.336147   -1.588843   -0.262512
  H     -1.049568    0.350695   -2.157163
  H     -1.698774   -1.190623   -1.573791
  H     -1.042519    1.754325    1.396178
  H      0.304908    2.147160   -1.061942
  H      1.165001    2.181957    0.480988
  H     -3.096069    0.514552    1.407009

 Total Charge           Charge          ....    0
 Multiplicity           Mult            ....    1
 Number of Electrons    NEL             ....   82
 Basis Dimension        Dim             ....  182

ORBITAL ENERGIES
----------------

  NO   OCC          E(Eh)            E(eV)
   0   2.0000     -18.736580      -509.8483
   1   2.0000      -9.961312      -271.0611
   2   2.0000      -9.915196      -269.8062
   3   2.0000      -9.911507      -269.7058
   4   2.0000      -9.904868      -269.5251
   5   2.0000      -9.904813      -269.5237
   6   2.0000      -9.904664      -269.5196
   7   2.0000      -9.896599      -269.3001
   8   2.0000      -9.894957      -269.2555
   9   2.0000      -9.887060      -269.0406
  10   2.0000      -9.873899      -268.6825
  11   2.0000      -0.928487       -25.2654
  12   2.0000      -0.785877       -21.3848
  13   2.0000      -0.733959       -19.9720
  14   2.0000      -0.682804       -18.5800
  15   2.0000      -0.675606       -18.3842
  16   2.0000      -0.618557       -16.8318
  17   2.0000      -0.594907       -16.1882
  18   2.0000      -0.560762       -15.2591
  19   2.0000      -0.521615       -14.1939
  20   2.0000      -0.481623       -13.1056
  21   2.0000      -0.464359       -12.6359
  22   2.0000      -0.450204       -12.2507
  23   2.0000      -0.439310       -11.9542
  24   2.0000      -0.403222       -10.9722
  25   2.0000      -0.398963       -10.8563
  26   2.0000      -0.390054       -10.6139
  27   2.0000      -0.378144       -10.2898
  28   2.0000      -0.363518        -9.8918
  29   2.0000      -0.359791        -9.7904
  30   2.0000      -0.353531        -9.6201
  31   2.0000      -0.351821        -9.5735
  32   2.0000      -0.341961        -9.3052
  33   2.0000      -0.333617        -9.0782
  34   2.0000      -0.325109        -8.8467
  35   2.0000      -0.297532        -8.0963
  36   2.0000      -0.287156        -7.8139
  37   2.0000      -0.281939        -7.6719
  38   2.0000      -0.237726        -6.4689
  39   2.0000      -0.218557        -5.9472
  40   2.0000      -0.198251        -5.3947
  41   0.0000      -0.089248        -2.4286
  42   0.0000      -0.018618        -0.5066
  43   0.0000       0.020859         0.5676
  44   0.0000       0.026263         0.7147
  45   0.0000       0.050278         1.3681

MULLIKEN ATOMIC CHARGES
-----------------------
   0 C :   -0.208508
   1 C :   -0.077544
   2 C :   -0.233038
   3 C :   -0.138358
   4 H :    0.056282
   5 C :   -0.115945
   6 C :   -0.056057
   7 C :   -0.052532
   8 C :   -0.182412
   9 C :   -0.025935
  10 C :    0.031373
  11 O :   -0.174419
  12 H :    0.110782
  13 H :    0.100160
  14 H :    0.109526
  15 H :    0.095688
  16 H :    0.084481
  17 H :    0.087486
  18 H :    0.098942
  19 H :    0.087604
  20 H :    0.096144
  21 H :    0.070456
  22 H :    0.104200
  23 H :    0.100020
  24 H :    0.031604
Sum of atomic charges:   -0.0000000

LOEWDIN ATOMIC CHARGES
----------------------
   0 C :   -0.321356
   1 C :   -0.047981
   2 C :   -0.270591
   3 C :   -0.125194
   4 H :    0.120132
   5 C :   -0.203747
   6 C :   -0.209918
   7 C :   -0.103539
   8 C :   -0.088674
   9 C :   -0.210929
  10 C :   -0.008372
  11 O :   -0.135773
  12 H :    0.129367
  13 H :    0.124645
  14 H :    0.129089
  15 H :    0.119312
  16 H :    0.120080
  17 H :    0.121625
  18 H :    0.127552
  19 H :    0.128231
  20 H :    0.130997
  21 H :    0.125612
  22 H :    0.141413
  23 H :    0.130008
  24 H :    0.078011

  Mayer bond orders larger than 0.100000
B(  0-C ,  1-C ) :   1.1314 B(  0-C , 12-H ) :   0.9272 B(  0-C , 13-H ) :   0.9413
B(  0-C , 14-H ) :   0.9306 B(  1-C ,  2-C ) :   2.0481 B(  1-C ,  3-C ) :   1.0000
B(  2-C , 15-H ) :   0.8945 B(  2-C , 16-H ) :   0.9029 B(  3-C ,  4-H ) :   0.8770
B(  3-C ,  5-C ) :   1.0749 B(  3-C ,  9-C ) :   1.0946 B(  5-C ,  6-C ) :   1.1510
B(  5-C , 17-H ) :   0.9102 B(  5-C , 18-H ) :   0.9122 B(  6-C ,  7-C ) :   1.1075
B(  6-C , 19-H ) :   0.8749 B(  6-C , 20-H ) :   0.8903 B(  7-C ,  8-C ) :   1.7000
B(  7-C , 10-C ) :   1.0424 B(  8-C ,  9-C ) :   1.1051 B(  8-C , 11-O ) :   0.1044
B(  8-C , 21-H ) :   0.9388 B(  9-C , 22-H ) :   0.8647 B(  9-C , 23-H ) :   0.9102
B( 10-C , 11-O ) :   2.0969 B( 10-C , 24-H ) :   0.9179

Dispersion correction           -0.027174169
FINAL SINGLE POINT ENERGY      -463.620333587291

DIPOLE MOMENT
-------------

Method             : SCF
Type of density    : Electron Density
Multiplicity       :   1
Irrep              :   0
Energy             :  -463.6957062390974897 Eh
Relativity type    :
Basis              : AO
                                X                 Y                 Z
Electronic contribution:    -10.676012805       0.168409352       0.680723526
Nuclear contribution   :     11.932818267       0.519644799      -0.826805282
                        -----------------------------------------
Total Dipole Moment    :      1.256805462       0.688054151      -0.146081756
                        -----------------------------------------
Magnitude (a.u.)       :      1.440249410
Magnitude (Debye)      :      3.660823071

Rotational constants in cm-1:             0.078210             0.021022             0.020233
Rotational constants in MHz :          2344.664349           630.233723           606.568769

                             ****ORCA TERMINATED NORMALLY****
TOTAL RUN TIME: 0 days 0 hours 0 minutes 16 seconds 508 msec
