                         Program Version 6.0.0  -   RELEASE  -
|  1> ! pbe def2-sv(p) def2/J RI DEFGRID1 loosescf d4 GCP(DFT/SV(P)) printgap
|  2> %output
|  3>     printlevel normal
|  4> end
|  5> * xyz 0 1
|  6> C 0.5443185944 1.4334198014 1.0463598112
|  7> C 1.8919335205 1.6634706253 1.213683168
|  8> C 2.8454320008 0.8862969745 0.554446596
|  9> C 2.4021627289 -0.1428244243 -0.2986323507
| 10> C 1.0346227769 -0.3556474538 -0.4627961893
| 11> C 0.0943085042 0.4166839633 0.2019043653
| 12> C -1.3414579722 0.1635508723 0.0033547117
| 13> C -1.8507058833 -0.0976738162 -1.2690862373
| 14> C -3.1954923921 -0.338401685 -1.478743267
| 15> C -4.048130605 -0.3220376444 -0.3913294514
| 16> C -3.5992284841 -0.0761865453 0.8916742233
| 17> C -2.2493082045 0.1640437952 1.060047017
| 18> F -1.811609426 0.3815629018 2.327635367
| 19> F -5.3725584579 -0.5563910622 -0.5813763451
| 20> C 3.3659791511 -1.0003794358 -1.0109956244
| 21> O 4.5738333233 -0.9760145522 -0.8716080642
| 22> O 2.7851870459 -1.8487398179 -1.8601096805
| 23> O 4.1587651517 1.1034562857 0.7080565261
| 24> H -0.1659265359 2.0578949679 1.5650880352
| 25> H 2.2197809249 2.4586004024 1.8662200043
| 26> H 0.7168000445 -1.1599776047 -1.1062835872
| 27> H -1.1744468382 -0.0939828987 -2.1080777616
| 28> H -3.5846090222 -0.5341460695 -2.4638221626
| 29> H -4.271194786 -0.0751002405 1.7333514874
| 30> H 3.4451521088 -2.4064014742 -2.3136128066
| 31> H 4.3245084597 1.8397029583 1.3209733606
| 32> *
| 33>
| 34>                          ****END OF INPUT****

CARTESIAN COORDINATES (ANGSTROEM)
---------------------------------
  C      0.544319    1.433420    1.046360
  C      1.891934    1.663471    1.213683
  C      2.845432    0.886297    0.554447
  C      2.402163   -0.142824   -0.298632
  C      1.034623   -0.355647   -0.462796
  C      0.094309    0.416684    0.201904
  C     -1.341458    0.163551    0.003355
  C     -1.850706   -0.097674   -1.269086
  C     -3.195492   -0.338402   -1.478743
  C     -4.048131   -0.322038   -0.391329
  C     -3.599228   -0.076187    0.891674
  C     -2.249308    0.164044    1.060047
  F     -1.811609    0.381563    2.327635
  F     -5.372558   -0.556391   -0.581376
  C      3.365979   -1.000379   -1.010996
  O      4.573833   -0.976015   -0.871608
  O      2.785187   -1.848740   -1.860110
  O      4.158765    1.103456    0.708057
  H     -0.165927    2.057895    1.565088
  H      2.219781    2.458600    1.866220
  H      0.716800   -1.159978   -1.106284
  H     -1.174447   -0.093983   -2.108078
  H     -3.584609   -0.534146   -2.463822
  H     -4.271195   -0.075100    1.733351
  H      3.445152   -2.406401   -2.313613
  H      4.324508    1.839703    1.320973

 Total Charge           Charge          ....    0
 Multiplicity           Mult            ....    1
 Number of Electrons    NEL             ....  128
 Basis Dimension        Dim             ....  268

ORBITAL ENERGIES
----------------

  NO   OCC          E(Eh)            E(eV)
   0   2.0000     -24.281967      -660.7459
   1   2.0000     -24.276643      -660.6010
   2   2.0000     -18.798450      -511.5318
   3   2.0000     -18.793338      -511.3927
   4   2.0000     -18.728995      -509.6419
   5   2.0000     -10.009418      -272.3701
   6   2.0000      -9.988040      -271.7884
   7   2.0000      -9.986389      -271.7435
   8   2.0000      -9.974577      -271.4220
   9   2.0000      -9.918730      -269.9024
  10   2.0000      -9.915210      -269.8066
  11   2.0000      -9.913370      -269.7565
  12   2.0000      -9.912934      -269.7446
  13   2.0000      -9.910529      -269.6792
  14   2.0000      -9.909793      -269.6592
  15   2.0000      -9.907496      -269.5967
  16   2.0000      -9.907411      -269.5944
  17   2.0000      -9.906390      -269.5666
  18   2.0000      -1.108756       -30.1708
  19   2.0000      -1.103439       -30.0261
  20   2.0000      -1.002779       -27.2870
  21   2.0000      -0.984047       -26.7773
  22   2.0000      -0.901823       -24.5399
  23   2.0000      -0.806839       -21.9552
  24   2.0000      -0.786878       -21.4120
  25   2.0000      -0.718497       -19.5513
  26   2.0000      -0.701865       -19.0987
  27   2.0000      -0.691050       -18.8044
  28   2.0000      -0.659315       -17.9409
  29   2.0000      -0.607987       -16.5442
  30   2.0000      -0.592315       -16.1177
  31   2.0000      -0.572213       -15.5707
  32   2.0000      -0.563998       -15.3472
  33   2.0000      -0.537950       -14.6384
  34   2.0000      -0.509757       -13.8712
  35   2.0000      -0.508504       -13.8371
  36   2.0000      -0.478562       -13.0223
  37   2.0000      -0.472011       -12.8441
  38   2.0000      -0.452148       -12.3036
  39   2.0000      -0.437417       -11.9027
  40   2.0000      -0.429697       -11.6926
  41   2.0000      -0.418518       -11.3885
  42   2.0000      -0.409364       -11.1394
  43   2.0000      -0.409216       -11.1353
  44   2.0000      -0.405667       -11.0388
  45   2.0000      -0.400545       -10.8994
  46   2.0000      -0.394592       -10.7374
  47   2.0000      -0.389758       -10.6059
  48   2.0000      -0.376196       -10.2368
  49   2.0000      -0.370096       -10.0708
  50   2.0000      -0.358306        -9.7500
  51   2.0000      -0.339003        -9.2247
  52   2.0000      -0.329468        -8.9653
  53   2.0000      -0.326220        -8.8769
  54   2.0000      -0.320312        -8.7161
  55   2.0000      -0.319675        -8.6988
  56   2.0000      -0.310231        -8.4418
  57   2.0000      -0.307380        -8.3642
  58   2.0000      -0.267844        -7.2884
  59   2.0000      -0.245188        -6.6719
  60   2.0000      -0.244009        -6.6398
  61   2.0000      -0.236173        -6.4266
  62   2.0000      -0.212067        -5.7706
  63   2.0000      -0.199625        -5.4321
  64   0.0000      -0.075587        -2.0568
  65   0.0000      -0.060228        -1.6389
  66   0.0000      -0.048594        -1.3223
  67   0.0000      -0.018296        -0.4979
  68   0.0000       0.012903         0.3511

MULLIKEN ATOMIC CHARGES
-----------------------
   0 C :   -0.092314
   1 C :   -0.166139
   2 C :    0.182463
   3 C :   -0.021586
   4 C :   -0.190173
   5 C :    0.155095
   6 C :    0.040784
   7 C :   -0.122769
   8 C :   -0.139433
   9 C :    0.355335
  10 C :   -0.260145
  11 C :    0.256342
  12 F :   -0.164784
  13 F :   -0.173536
  14 C :    0.109346
  15 O :   -0.164689
  16 O :   -0.299353
  17 O :   -0.275354
  18 H :    0.054567
  19 H :    0.030025
  20 H :    0.061560
  21 H :    0.063562
  22 H :    0.060875
  23 H :    0.063849
  24 H :    0.315512
  25 H :    0.320959
Sum of atomic charges:   -0.0000000

LOEWDIN ATOMIC CHARGES
----------------------
   0 C :   -0.088266
   1 C :   -0.169815
   2 C :    0.047127
   3 C :   -0.101915
   4 C :   -0.082049
   5 C :   -0.050134
   6 C :   -0.064285
   7 C :   -0.096347
   8 C :   -0.158658
   9 C :    0.074148
  10 C :   -0.173952
  11 C :    0.082069
  12 F :   -0.045733
  13 F :   -0.053825
  14 C :    0.033015
  15 O :   -0.161636
  16 O :   -0.214409
  17 O :   -0.186763
  18 H :    0.129590
  19 H :    0.124827
  20 H :    0.135695
  21 H :    0.134190
  22 H :    0.138812
  23 H :    0.148399
  24 H :    0.298729
  25 H :    0.301188

  Mayer bond orders larger than 0.100000
B(  0-C ,  1-C ) :   1.3750 B(  0-C ,  5-C ) :   1.3376 B(  0-C , 18-H ) :   0.9588
B(  1-C ,  2-C ) :   1.2833 B(  1-C , 19-H ) :   0.9554 B(  2-C ,  3-C ) :   1.3356
B(  2-C , 17-O ) :   1.2938 B(  3-C ,  4-C ) :   1.3517 B(  3-C , 14-C ) :   0.9391
B(  4-C ,  5-C ) :   1.3280 B(  4-C , 20-H ) :   0.9539 B(  5-C ,  6-C ) :   0.9789
B(  6-C ,  7-C ) :   1.3683 B(  6-C , 11-C ) :   1.3316 B(  7-C ,  8-C ) :   1.3290
B(  7-C , 21-H ) :   0.9557 B(  8-C ,  9-C ) :   1.3425 B(  8-C , 22-H ) :   0.9687
B(  9-C , 10-C ) :   1.2884 B(  9-C , 13-F ) :   1.0867 B( 10-C , 11-C ) :   1.3024
B( 10-C , 23-H ) :   0.9753 B( 11-C , 12-F ) :   1.1043 B( 14-C , 15-O ) :   2.1289
B( 14-C , 16-O ) :   1.2867 B( 16-O , 24-H ) :   0.8207 B( 17-O , 25-H ) :   0.8329

Dispersion correction           -0.034616468
FINAL SINGLE POINT ENERGY      -923.747654894812

DIPOLE MOMENT
-------------

Method             : SCF
Type of density    : Electron Density
Multiplicity       :   1
Irrep              :   0
Energy             :  -923.8299693758258400 Eh
Relativity type    :
Basis              : AO
                                X                 Y                 Z
Electronic contribution:     -8.378316877      -1.568380742       3.074211078
Nuclear contribution   :      8.243456965       2.094094953      -3.060942604
                        -----------------------------------------
Total Dipole Moment    :     -0.134859912       0.525714211       0.013268474
                        -----------------------------------------
Magnitude (a.u.)       :      0.542898406
Magnitude (Debye)      :      1.379938084

Rotational constants in cm-1:             0.031393             0.006908             0.005904
Rotational constants in MHz :           941.126669           207.086170           176.999702

                             ****ORCA TERMINATED NORMALLY****
TOTAL RUN TIME: 0 days 0 hours 0 minutes 23 seconds 715 msec
