                         Program Version 6.0.0  -   RELEASE  -
|  1> ! r2scan-3c def2/J RI DEFGRID2 scfconv6 printgap
|  2> %output
|  3>     printlevel normal
|  4> end
|  5> * xyz 0 1
|  6> C -2.0655286653 0.3676682697 0.7055590535
|  7> C -1.524238601 0.2038833246 -0.7096779888
|  8> C -0.2459034091 -0.6349112947 -0.7411903635
|  9> C 0.9374048135 -0.0504996749 -0.010444908
| 10> C 1.1771325146 1.2464532935 0.0991682532
| 11> C 1.8690766173 -1.0734055872 0.5688377768
| 12> H -2.9729556498 0.966684248 0.7006223064
| 13> H -1.3297945866 0.8582033609 1.3382539431
| 14> H -2.2968805548 -0.6032951987 1.1379735456
| 15> H -2.2769268249 -0.2920578525 -1.3268199202
| 16> H -1.3384590445 1.1849120935 -1.1487559911
| 17> H -0.4644989028 -1.6177239723 -0.316416012
| 18> H 0.0471554772 -0.7934217587 -1.7841496328
| 19> H 2.0481676857 1.6146033905 0.6154142711
| 20> H 0.5263615353 1.9976939649 -0.3124363701
| 21> H 2.7534588447 -0.6050397277 0.9924884352
| 22> H 1.3637522121 -1.6378548808 1.3517441438
| 23> H 2.1776010403 -1.7780425344 -0.2022362599
| 24> *
| 25>
| 26>                          ****END OF INPUT****

CARTESIAN COORDINATES (ANGSTROEM)
---------------------------------
  C     -2.065529    0.367668    0.705559
  C     -1.524239    0.203883   -0.709678
  C     -0.245903   -0.634911   -0.741190
  C      0.937405   -0.050500   -0.010445
  C      1.177133    1.246453    0.099168
  C      1.869077   -1.073406    0.568838
  H     -2.972956    0.966684    0.700622
  H     -1.329795    0.858203    1.338254
  H     -2.296881   -0.603295    1.137974
  H     -2.276927   -0.292058   -1.326820
  H     -1.338459    1.184912   -1.148756
  H     -0.464499   -1.617724   -0.316416
  H      0.047155   -0.793422   -1.784150
  H      2.048168    1.614603    0.615414
  H      0.526362    1.997694   -0.312436
  H      2.753459   -0.605040    0.992488
  H      1.363752   -1.637855    1.351744
  H      2.177601   -1.778043   -0.202236

 Total Charge           Charge          ....    0
 Multiplicity           Mult            ....    1
 Number of Electrons    NEL             ....   48
 Basis Dimension        Dim             ....  174

ORBITAL ENERGIES
----------------

  NO   OCC          E(Eh)            E(eV)
   0   2.0000     -10.037660      -273.1386
   1   2.0000     -10.028622      -272.8927
   2   2.0000     -10.025535      -272.8087
   3   2.0000     -10.022288      -272.7203
   4   2.0000     -10.011147      -272.4171
   5   2.0000     -10.007358      -272.3140
   6   2.0000      -0.786259       -21.3952
   7   2.0000      -0.728852       -19.8331
   8   2.0000      -0.650473       -17.7003
   9   2.0000      -0.647123       -17.6091
  10   2.0000      -0.561537       -15.2802
  11   2.0000      -0.483706       -13.1623
  12   2.0000      -0.440229       -11.9792
  13   2.0000      -0.421479       -11.4690
  14   2.0000      -0.407239       -11.0815
  15   2.0000      -0.388349       -10.5675
  16   2.0000      -0.377329       -10.2677
  17   2.0000      -0.350325        -9.5328
  18   2.0000      -0.336441        -9.1550
  19   2.0000      -0.326074        -8.8729
  20   2.0000      -0.308837        -8.4039
  21   2.0000      -0.297893        -8.1061
  22   2.0000      -0.286014        -7.7828
  23   2.0000      -0.221369        -6.0238
  24   0.0000      -0.006396        -0.1740
  25   0.0000       0.086756         2.3607
  26   0.0000       0.107581         2.9274
  27   0.0000       0.121482         3.3057
  28   0.0000       0.134186         3.6514

MULLIKEN ATOMIC CHARGES
-----------------------
   0 C :   -0.469051
   1 C :   -0.237820
   2 C :   -0.285885
   3 C :    0.117260
   4 C :   -0.379109
   5 C :   -0.511680
   6 H :    0.143829
   7 H :    0.164250
   8 H :    0.138232
   9 H :    0.140837
  10 H :    0.131657
  11 H :    0.144047
  12 H :    0.163880
  13 H :    0.141616
  14 H :    0.138270
  15 H :    0.147744
  16 H :    0.160739
  17 H :    0.151186
Sum of atomic charges:    0.0000000

LOEWDIN ATOMIC CHARGES
----------------------
   0 C :   -0.423566
   1 C :   -0.309961
   2 C :   -0.292181
   3 C :   -0.130160
   4 C :   -0.335729
   5 C :   -0.396969
   6 H :    0.150149
   7 H :    0.158603
   8 H :    0.148711
   9 H :    0.152876
  10 H :    0.151601
  11 H :    0.160805
  12 H :    0.171404
  13 H :    0.157391
  14 H :    0.157238
  15 H :    0.157620
  16 H :    0.161050
  17 H :    0.161119

  Mayer bond orders larger than 0.100000
B(  0-C ,  1-C ) :   0.9114 B(  0-C ,  6-H ) :   0.9699 B(  0-C ,  7-H ) :   0.9760
B(  0-C ,  8-H ) :   0.9821 B(  1-C ,  2-C ) :   0.9170 B(  1-C ,  9-H ) :   0.9674
B(  1-C , 10-H ) :   0.9606 B(  2-C ,  3-C ) :   0.8533 B(  2-C , 11-H ) :   1.0147
B(  2-C , 12-H ) :   0.9496 B(  3-C ,  4-C ) :   1.8748 B(  3-C ,  5-C ) :   0.8753
B(  4-C , 13-H ) :   0.9743 B(  4-C , 14-H ) :   0.9819 B(  5-C , 15-H ) :   0.9910
B(  5-C , 16-H ) :   0.9767 B(  5-C , 17-H ) :   0.9691

Dispersion correction           -0.004626509
FINAL SINGLE POINT ENERGY      -235.760660589501

DIPOLE MOMENT
-------------

Method             : SCF
Type of density    : Electron Density
Multiplicity       :   1
Irrep              :   0
Energy             :  -235.7637039446710787 Eh
Relativity type    :
Basis              : AO
                                X                 Y                 Z
Electronic contribution:      1.600272524       0.442317946      -1.035089727
Nuclear contribution   :     -1.653999046      -0.661722856       0.981020634
                        -----------------------------------------
Total Dipole Moment    :     -0.053726522      -0.219404910      -0.054069092
                        -----------------------------------------
Magnitude (a.u.)       :      0.232268208
Magnitude (Debye)      :      0.590378865

Rotational constants in cm-1:             0.188242             0.073055             0.066798
Rotational constants in MHz :          5643.338284          2190.139315          2002.543950

                             ****ORCA TERMINATED NORMALLY****
TOTAL RUN TIME: 0 days 0 hours 0 minutes 18 seconds 700 msec
