                         Program Version 6.0.0  -   RELEASE  -
|  1> ! r2scan-3c def2/J RI DEFGRID2 scfconv6 printgap
|  2> %output
|  3>     printlevel normal
|  4> end
|  5> %cpcm
|  6>     smd true
|  7>     smdsolvent "water"
|  8> end
|  9> * xyz 0 1
| 10> C -2.0655286653 0.3676682697 0.7055590535
| 11> C -1.524238601 0.2038833246 -0.7096779888
| 12> C -0.2459034091 -0.6349112947 -0.7411903635
| 13> C 0.9374048135 -0.0504996749 -0.010444908
| 14> C 1.1771325146 1.2464532935 0.0991682532
| 15> C 1.8690766173 -1.0734055872 0.5688377768
| 16> H -2.9729556498 0.966684248 0.7006223064
| 17> H -1.3297945866 0.8582033609 1.3382539431
| 18> H -2.2968805548 -0.6032951987 1.1379735456
| 19> H -2.2769268249 -0.2920578525 -1.3268199202
| 20> H -1.3384590445 1.1849120935 -1.1487559911
| 21> H -0.4644989028 -1.6177239723 -0.316416012
| 22> H 0.0471554772 -0.7934217587 -1.7841496328
| 23> H 2.0481676857 1.6146033905 0.6154142711
| 24> H 0.5263615353 1.9976939649 -0.3124363701
| 25> H 2.7534588447 -0.6050397277 0.9924884352
| 26> H 1.3637522121 -1.6378548808 1.3517441438
| 27> H 2.1776010403 -1.7780425344 -0.2022362599
| 28> *
| 29>
| 30>                          ****END OF INPUT****

CARTESIAN COORDINATES (ANGSTROEM)
---------------------------------
  C     -2.065529    0.367668    0.705559
  C     -1.524239    0.203883   -0.709678
  C     -0.245903   -0.634911   -0.741190
  C      0.937405   -0.050500   -0.010445
  C      1.177133    1.246453    0.099168
  C      1.869077   -1.073406    0.568838
  H     -2.972956    0.966684    0.700622
  H     -1.329795    0.858203    1.338254
  H     -2.296881   -0.603295    1.137974
  H     -2.276927   -0.292058   -1.326820
  H     -1.338459    1.184912   -1.148756
  H     -0.464499   -1.617724   -0.316416
  H      0.047155   -0.793422   -1.784150
  H      2.048168    1.614603    0.615414
  H      0.526362    1.997694   -0.312436
  H      2.753459   -0.605040    0.992488
  H      1.363752   -1.637855    1.351744
  H      2.177601   -1.778043   -0.202236

 Total Charge           Charge          ....    0
 Multiplicity           Mult            ....    1
 Number of Electrons    NEL             ....   48
 Basis Dimension        Dim             ....  174

ORBITAL ENERGIES
----------------

  NO   OCC          E(Eh)            E(eV)
   0   2.0000     -10.036178      -273.0983
   1   2.0000     -10.020705      -272.6772
   2   2.0000     -10.017987      -272.6033
   3   2.0000     -10.014287      -272.5026
   4   2.0000     -10.006099      -272.2798
   5   2.0000     -10.003773      -272.2165
   6   2.0000      -0.781622       -21.2690
   7   2.0000      -0.723450       -19.6861
   8   2.0000      -0.645460       -17.5639
   9   2.0000      -0.641859       -17.4659
  10   2.0000      -0.555445       -15.1144
  11   2.0000      -0.478800       -13.0288
  12   2.0000      -0.434531       -11.8242
  13   2.0000      -0.415135       -11.2964
  14   2.0000      -0.401168       -10.9163
  15   2.0000      -0.383266       -10.4292
  16   2.0000      -0.370582       -10.0840
  17   2.0000      -0.343771        -9.3545
  18   2.0000      -0.330479        -8.9928
  19   2.0000      -0.320736        -8.7277
  20   2.0000      -0.302510        -8.2317
  21   2.0000      -0.290446        -7.9034
  22   2.0000      -0.280073        -7.6212
  23   2.0000      -0.221348        -6.0232
  24   0.0000      -0.005809        -0.1581
  25   0.0000       0.092850         2.5266
  26   0.0000       0.115351         3.1389
  27   0.0000       0.127702         3.4750
  28   0.0000       0.139080         3.7846

MULLIKEN ATOMIC CHARGES
-----------------------
   0 C :   -0.504220
   1 C :   -0.243980
   2 C :   -0.288753
   3 C :    0.099524
   4 C :   -0.459899
   5 C :   -0.540985
   6 H :    0.155301
   7 H :    0.160129
   8 H :    0.152847
   9 H :    0.151802
  10 H :    0.143408
  11 H :    0.160182
  12 H :    0.178117
  13 H :    0.165598
  14 H :    0.162460
  15 H :    0.162710
  16 H :    0.177419
  17 H :    0.168339
Sum of atomic charges:    0.0000000

LOEWDIN ATOMIC CHARGES
----------------------
   0 C :   -0.431172
   1 C :   -0.311864
   2 C :   -0.293842
   3 C :   -0.130191
   4 C :   -0.365081
   5 C :   -0.404409
   6 H :    0.152904
   7 H :    0.155223
   8 H :    0.152496
   9 H :    0.156413
  10 H :    0.154762
  11 H :    0.166764
  12 H :    0.176478
  13 H :    0.162658
  14 H :    0.162907
  15 H :    0.161042
  16 H :    0.167499
  17 H :    0.167413

  Mayer bond orders larger than 0.100000
B(  0-C ,  1-C ) :   0.9029 B(  0-C ,  6-H ) :   0.9677 B(  0-C ,  7-H ) :   0.9774
B(  0-C ,  8-H ) :   0.9789 B(  1-C ,  2-C ) :   0.9085 B(  1-C ,  9-H ) :   0.9659
B(  1-C , 10-H ) :   0.9607 B(  2-C ,  3-C ) :   0.8459 B(  2-C , 11-H ) :   1.0104
B(  2-C , 12-H ) :   0.9490 B(  3-C ,  4-C ) :   1.8461 B(  3-C ,  5-C ) :   0.8768
B(  4-C , 13-H ) :   0.9743 B(  4-C , 14-H ) :   0.9803 B(  5-C , 15-H ) :   0.9879
B(  5-C , 16-H ) :   0.9688 B(  5-C , 17-H ) :   0.9633

Dispersion correction           -0.004626509
FINAL SINGLE POINT ENERGY      -235.758580965094

DIPOLE MOMENT
-------------

Method             : SCF
Type of density    : Electron Density
Multiplicity       :   1
Irrep              :   0
Energy             :  -235.7616243202635360 Eh
Relativity type    :
Basis              : AO
                                X                 Y                 Z
Electronic contribution:      1.553950783       0.304568033      -1.072592219
Nuclear contribution   :     -1.653999046      -0.661722856       0.981020634
                        -----------------------------------------
Total Dipole Moment    :     -0.100048263      -0.357154822      -0.091571585
                        -----------------------------------------
Magnitude (a.u.)       :      0.382040021
Magnitude (Debye)      :      0.971068561

Rotational constants in cm-1:             0.188242             0.073055             0.066798
Rotational constants in MHz :          5643.338284          2190.139315          2002.543950

                             ****ORCA TERMINATED NORMALLY****
TOTAL RUN TIME: 0 days 0 hours 0 minutes 22 seconds 994 msec
