                         Program Version 6.0.0  -   RELEASE  -
|  1> ! r2scan-3c def2/J RI DEFGRID2 scfconv6 printgap
|  2> %output
|  3>     printlevel normal
|  4> end
|  5> * xyz 0 1
|  6> C -2.3982737929 -0.7488955386 -0.109339614
|  7> C -1.7412778719 0.5571648517 0.321227142
|  8> C -0.4421510127 0.902590765 -0.4126903519
|  9> C 0.7965472109 0.0501991801 -0.0540268132
| 10> C 2.0598722868 0.8880077921 -0.3091114513
| 11> C 0.8794630537 -1.2265613743 -0.9015194197
| 12> O 0.7093179521 -0.2760301922 1.3288075564
| 13> H -2.4639683172 -0.808513657 -1.1936359162
| 14> H -3.4046205329 -0.8084020779 0.2997172886
| 15> H -1.8395319523 -1.6044066424 0.2588893739
| 16> H -2.4417831206 1.3755512569 0.1378088485
| 17> H -1.5385506886 0.5240119921 1.3922020283
| 18> H -0.6028885803 0.8415289066 -1.4899013214
| 19> H -0.2070141873 1.9406648519 -0.1683541742
| 20> H 2.9553237446 0.2913295079 -0.1467932602
| 21> H 2.0824699483 1.7393742115 0.3674016096
| 22> H 2.0663678249 1.2515686854 -1.3325164465
| 23> H 0.8883669304 -0.9721534332 -1.9572762006
| 24> H 0.0342969336 -1.8774528971 -0.7051030558
| 25> H 1.7939867379 -1.7703053976 -0.6709078504
| 26> H 1.4973526722 -0.7760329461 1.5786670569
| 27> *
| 28>
| 29>                          ****END OF INPUT****

CARTESIAN COORDINATES (ANGSTROEM)
---------------------------------
  C     -2.398274   -0.748896   -0.109340
  C     -1.741278    0.557165    0.321227
  C     -0.442151    0.902591   -0.412690
  C      0.796547    0.050199   -0.054027
  C      2.059872    0.888008   -0.309111
  C      0.879463   -1.226561   -0.901519
  O      0.709318   -0.276030    1.328808
  H     -2.463968   -0.808514   -1.193636
  H     -3.404621   -0.808402    0.299717
  H     -1.839532   -1.604407    0.258889
  H     -2.441783    1.375551    0.137809
  H     -1.538551    0.524012    1.392202
  H     -0.602889    0.841529   -1.489901
  H     -0.207014    1.940665   -0.168354
  H      2.955324    0.291330   -0.146793
  H      2.082470    1.739374    0.367402
  H      2.066368    1.251569   -1.332516
  H      0.888367   -0.972153   -1.957276
  H      0.034297   -1.877453   -0.705103
  H      1.793987   -1.770305   -0.670908
  H      1.497353   -0.776033    1.578667

 Total Charge           Charge          ....    0
 Multiplicity           Mult            ....    1
 Number of Electrons    NEL             ....   58
 Basis Dimension        Dim             ....  208

ORBITAL ENERGIES
----------------

  NO   OCC          E(Eh)            E(eV)
   0   2.0000     -18.944032      -515.4933
   1   2.0000     -10.087858      -274.5046
   2   2.0000     -10.020315      -272.6666
   3   2.0000     -10.016917      -272.5742
   4   2.0000     -10.016005      -272.5493
   5   2.0000     -10.015636      -272.5393
   6   2.0000     -10.008275      -272.3390
   7   2.0000      -0.984007       -26.7762
   8   2.0000      -0.764915       -20.8144
   9   2.0000      -0.721878       -19.6433
  10   2.0000      -0.657531       -17.8923
  11   2.0000      -0.645091       -17.5538
  12   2.0000      -0.562768       -15.3137
  13   2.0000      -0.527812       -14.3625
  14   2.0000      -0.454126       -12.3574
  15   2.0000      -0.426126       -11.5955
  16   2.0000      -0.421895       -11.4804
  17   2.0000      -0.397637       -10.8203
  18   2.0000      -0.380408       -10.3514
  19   2.0000      -0.376796       -10.2531
  20   2.0000      -0.360186        -9.8012
  21   2.0000      -0.349944        -9.5224
  22   2.0000      -0.335149        -9.1199
  23   2.0000      -0.321898        -8.7593
  24   2.0000      -0.308118        -8.3843
  25   2.0000      -0.291782        -7.9398
  26   2.0000      -0.290471        -7.9041
  27   2.0000      -0.270124        -7.3505
  28   2.0000      -0.232697        -6.3320
  29   0.0000       0.057031         1.5519
  30   0.0000       0.104044         2.8312
  31   0.0000       0.110446         3.0054
  32   0.0000       0.121603         3.3090
  33   0.0000       0.127921         3.4809

MULLIKEN ATOMIC CHARGES
-----------------------
   0 C :   -0.527765
   1 C :   -0.217557
   2 C :   -0.294748
   3 C :    0.187870
   4 C :   -0.484619
   5 C :   -0.493856
   6 O :   -0.412893
   7 H :    0.145212
   8 H :    0.143446
   9 H :    0.156756
  10 H :    0.137508
  11 H :    0.169799
  12 H :    0.144915
  13 H :    0.149026
  14 H :    0.139021
  15 H :    0.165098
  16 H :    0.151115
  17 H :    0.157674
  18 H :    0.160461
  19 H :    0.138320
  20 H :    0.285216
Sum of atomic charges:   -0.0000000

LOEWDIN ATOMIC CHARGES
----------------------
   0 C :   -0.426800
   1 C :   -0.301616
   2 C :   -0.263575
   3 C :    0.061752
   4 C :   -0.392514
   5 C :   -0.390463
   6 O :   -0.610031
   7 H :    0.147559
   8 H :    0.150078
   9 H :    0.150053
  10 H :    0.149948
  11 H :    0.171688
  12 H :    0.162132
  13 H :    0.165359
  14 H :    0.152716
  15 H :    0.163691
  16 H :    0.161343
  17 H :    0.160000
  18 H :    0.163949
  19 H :    0.153333
  20 H :    0.271397

  Mayer bond orders larger than 0.100000
B(  0-C ,  1-C ) :   0.8531 B(  0-C ,  7-H ) :   0.9835 B(  0-C ,  8-H ) :   0.9688
B(  0-C ,  9-H ) :   0.9873 B(  1-C ,  2-C ) :   0.8985 B(  1-C , 10-H ) :   0.9701
B(  1-C , 11-H ) :   0.9907 B(  2-C ,  3-C ) :   0.9085 B(  2-C , 12-H ) :   0.9751
B(  2-C , 13-H ) :   0.9713 B(  3-C ,  4-C ) :   0.9377 B(  3-C ,  5-C ) :   0.9518
B(  3-C ,  6-O ) :   0.8191 B(  4-C , 14-H ) :   0.9677 B(  4-C , 15-H ) :   0.9801
B(  4-C , 16-H ) :   0.9732 B(  5-C , 17-H ) :   0.9786 B(  5-C , 18-H ) :   0.9619
B(  5-C , 19-H ) :   0.9677 B(  6-O , 20-H ) :   0.9024

Dispersion correction           -0.005763274
FINAL SINGLE POINT ENERGY      -312.202951065743

DIPOLE MOMENT
-------------

Method             : SCF
Type of density    : Electron Density
Multiplicity       :   1
Irrep              :   0
Energy             :  -312.2082873130046892 Eh
Relativity type    :
Basis              : AO
                                X                 Y                 Z
Electronic contribution:      1.512741264       0.509470189       3.078396292
Nuclear contribution   :     -1.096686836      -0.616940242      -3.385627405
                        -----------------------------------------
Total Dipole Moment    :      0.416054427      -0.107470053      -0.307231114
                        -----------------------------------------
Magnitude (a.u.)       :      0.528244315
Magnitude (Debye)      :      1.342690343

Rotational constants in cm-1:             0.131094             0.057127             0.053997
Rotational constants in MHz :          3930.093673          1712.626127          1618.782632

                             ****ORCA TERMINATED NORMALLY****
TOTAL RUN TIME: 0 days 0 hours 0 minutes 27 seconds 631 msec
