                         Program Version 6.0.0  -   RELEASE  -
|  1> ! pbe def2-sv(p) def2/J RI DEFGRID1 loosescf d4 GCP(DFT/SV(P)) printgap
|  2> %output
|  3>     printlevel normal
|  4> end
|  5> * xyz 0 1
|  6> C 2.3720642869 -0.266121007 -0.6791436604
|  7> C 1.6135011261 0.2724742241 0.5293750088
|  8> C 0.2634565959 -0.4161277323 0.7456544925
|  9> C -0.8150004893 -0.0411042684 -0.2804450926
| 10> H -0.4009796766 -0.1110850299 -1.2985141832
| 11> C -2.013540173 -0.9799742985 -0.1754283597
| 12> O -1.3050707293 1.2762535056 -0.0736751745
| 13> H 3.3394501885 0.2228668826 -0.7640192676
| 14> H 1.822399928 -0.091889242 -1.6005989523
| 15> H 2.5356445246 -1.3362769053 -0.5762547997
| 16> H 2.2223476183 0.1171994346 1.4225268044
| 17> H 1.4725494756 1.3502384933 0.4197099067
| 18> H 0.4085287315 -1.4967632361 0.7128163386
| 19> H -0.1214413565 -0.1573291698 1.7348531562
| 20> H -1.7194122866 -1.9953342334 -0.4216892673
| 21> H -2.412958008 -0.9529109462 0.8349954965
| 22> H -2.7909797669 -0.6544981431 -0.8613263209
| 23> H -0.5661354092 1.897811098 -0.1014871171
| 24> *
| 25>
| 26>                          ****END OF INPUT****

CARTESIAN COORDINATES (ANGSTROEM)
---------------------------------
  C      2.372064   -0.266121   -0.679144
  C      1.613501    0.272474    0.529375
  C      0.263457   -0.416128    0.745654
  C     -0.815000   -0.041104   -0.280445
  H     -0.400980   -0.111085   -1.298514
  C     -2.013540   -0.979974   -0.175428
  O     -1.305071    1.276254   -0.073675
  H      3.339450    0.222867   -0.764019
  H      1.822400   -0.091889   -1.600599
  H      2.535645   -1.336277   -0.576255
  H      2.222348    0.117199    1.422527
  H      1.472549    1.350238    0.419710
  H      0.408529   -1.496763    0.712816
  H     -0.121441   -0.157329    1.734853
  H     -1.719412   -1.995334   -0.421689
  H     -2.412958   -0.952911    0.834995
  H     -2.790980   -0.654498   -0.861326
  H     -0.566135    1.897811   -0.101487

 Total Charge           Charge          ....    0
 Multiplicity           Mult            ....    1
 Number of Electrons    NEL             ....   50
 Basis Dimension        Dim             ....  108

ORBITAL ENERGIES
----------------

  NO   OCC          E(Eh)            E(eV)
   0   2.0000     -18.736106      -509.8354
   1   2.0000      -9.933710      -270.3100
   2   2.0000      -9.891223      -269.1539
   3   2.0000      -9.881165      -268.8802
   4   2.0000      -9.878302      -268.8023
   5   2.0000      -9.868489      -268.5352
   6   2.0000      -0.913277       -24.8515
   7   2.0000      -0.719110       -19.5680
   8   2.0000      -0.671408       -18.2700
   9   2.0000      -0.609195       -16.5771
  10   2.0000      -0.542056       -14.7501
  11   2.0000      -0.509354       -13.8602
  12   2.0000      -0.461223       -12.5505
  13   2.0000      -0.421906       -11.4806
  14   2.0000      -0.396525       -10.7900
  15   2.0000      -0.375340       -10.2135
  16   2.0000      -0.363559        -9.8929
  17   2.0000      -0.338281        -9.2051
  18   2.0000      -0.336196        -9.1484
  19   2.0000      -0.323098        -8.7919
  20   2.0000      -0.302738        -8.2379
  21   2.0000      -0.295193        -8.0326
  22   2.0000      -0.288510        -7.8508
  23   2.0000      -0.264837        -7.2066
  24   2.0000      -0.208820        -5.6823
  25   0.0000       0.018879         0.5137
  26   0.0000       0.053530         1.4566
  27   0.0000       0.061113         1.6630
  28   0.0000       0.067573         1.8387
  29   0.0000       0.084931         2.3111

MULLIKEN ATOMIC CHARGES
-----------------------
   0 C :   -0.290795
   1 C :   -0.171862
   2 C :   -0.160206
   3 C :   -0.006216
   4 H :    0.062168
   5 C :   -0.229895
   6 O :   -0.430164
   7 H :    0.105053
   8 H :    0.108715
   9 H :    0.101183
  10 H :    0.091530
  11 H :    0.063784
  12 H :    0.076129
  13 H :    0.085608
  14 H :    0.095406
  15 H :    0.098492
  16 H :    0.107113
  17 H :    0.293958
Sum of atomic charges:   -0.0000000

LOEWDIN ATOMIC CHARGES
----------------------
   0 C :   -0.343675
   1 C :   -0.237107
   2 C :   -0.242588
   3 C :   -0.056413
   4 H :    0.094467
   5 C :   -0.338421
   6 O :   -0.335905
   7 H :    0.120498
   8 H :    0.115864
   9 H :    0.118718
  10 H :    0.120058
  11 H :    0.103258
  12 H :    0.117878
  13 H :    0.119738
  14 H :    0.120556
  15 H :    0.121969
  16 H :    0.123860
  17 H :    0.277246

  Mayer bond orders larger than 0.100000
B(  0-C ,  1-C ) :   1.1521 B(  0-C ,  7-H ) :   0.9507 B(  0-C ,  8-H ) :   0.9497
B(  0-C ,  9-H ) :   0.9541 B(  1-C ,  2-C ) :   1.1158 B(  1-C , 10-H ) :   0.9260
B(  1-C , 11-H ) :   0.9158 B(  2-C ,  3-C ) :   1.0670 B(  2-C , 12-H ) :   0.9120
B(  2-C , 13-H ) :   0.9061 B(  3-C ,  4-H ) :   0.9057 B(  3-C ,  5-C ) :   1.1201
B(  3-C ,  6-O ) :   1.0528 B(  5-C , 14-H ) :   0.9461 B(  5-C , 15-H ) :   0.9445
B(  5-C , 16-H ) :   0.9451 B(  6-O , 17-H ) :   0.8490

Dispersion correction           -0.012578568
FINAL SINGLE POINT ENERGY      -272.304655067109

DIPOLE MOMENT
-------------

Method             : SCF
Type of density    : Electron Density
Multiplicity       :   1
Irrep              :   0
Energy             :  -272.3745199535998154 Eh
Relativity type    :
Basis              : AO
                                X                 Y                 Z
Electronic contribution:     -2.915422689       2.893651497       0.417498105
Nuclear contribution   :      3.535347247      -2.990661532      -0.469225958
                        -----------------------------------------
Total Dipole Moment    :      0.619924559      -0.097010034      -0.051727853
                        -----------------------------------------
Magnitude (a.u.)       :      0.629597630
Magnitude (Debye)      :      1.600309997

Rotational constants in cm-1:             0.195967             0.065159             0.058996
Rotational constants in MHz :          5874.930978          1953.411615          1768.670491

                             ****ORCA TERMINATED NORMALLY****
TOTAL RUN TIME: 0 days 0 hours 0 minutes 7 seconds 395 msec
