                         Program Version 6.0.0  -   RELEASE  -
|  1> ! r2scan-3c def2/J RI DEFGRID2 scfconv6 printgap
|  2> %output
|  3>     printlevel normal
|  4> end
|  5> * xyz 0 1
|  6> C -2.410877689 1.0479756903 -0.3264109845
|  7> C -1.7996146264 0.0400233458 0.6515520965
|  8> C -0.5358331388 -0.524738983 0.0572060028
|  9> O -0.4572899047 -1.5822135287 -0.5354282088
| 10> O 0.4931820512 0.2901672493 0.2314157066
| 11> C 1.7642774005 -0.0934321653 -0.3196133648
| 12> C 2.8339435566 0.7881077774 0.295863214
| 13> H -2.6340038591 0.565598241 -1.2751912119
| 14> H -3.3315629477 1.447521586 0.0877102494
| 15> H -1.71889458 1.8671572341 -0.5033480063
| 16> H -2.493821843 -0.7802871269 0.8293873763
| 17> H -1.5551799931 0.5378309177 1.5888181714
| 18> H 1.9306036786 -1.1536273674 -0.1020222014
| 19> H 1.7168408241 0.0298418126 -1.4064276983
| 20> H 2.6241899221 1.8313466889 0.0796428645
| 21> H 2.8564253962 0.6513017356 1.3730332553
| 22> H 3.8005917214 0.5226137958 -0.1190584067
| 23> *
| 24>
| 25>                          ****END OF INPUT****

CARTESIAN COORDINATES (ANGSTROEM)
---------------------------------
  C     -2.410878    1.047976   -0.326411
  C     -1.799615    0.040023    0.651552
  C     -0.535833   -0.524739    0.057206
  O     -0.457290   -1.582214   -0.535428
  O      0.493182    0.290167    0.231416
  C      1.764277   -0.093432   -0.319613
  C      2.833944    0.788108    0.295863
  H     -2.634004    0.565598   -1.275191
  H     -3.331563    1.447522    0.087710
  H     -1.718895    1.867157   -0.503348
  H     -2.493822   -0.780287    0.829387
  H     -1.555180    0.537831    1.588818
  H      1.930604   -1.153627   -0.102022
  H      1.716841    0.029842   -1.406428
  H      2.624190    1.831347    0.079643
  H      2.856425    0.651302    1.373033
  H      3.800592    0.522614   -0.119058

 Total Charge           Charge          ....    0
 Multiplicity           Mult            ....    1
 Number of Electrons    NEL             ....   56
 Basis Dimension        Dim             ....  193

ORBITAL ENERGIES
----------------

  NO   OCC          E(Eh)            E(eV)
   0   2.0000     -18.996505      -516.9212
   1   2.0000     -18.925831      -514.9980
   2   2.0000     -10.149939      -276.1939
   3   2.0000     -10.091660      -274.6080
   4   2.0000     -10.043079      -273.2861
   5   2.0000     -10.032514      -272.9986
   6   2.0000     -10.031805      -272.9793
   7   2.0000      -1.071726       -29.1632
   8   2.0000      -0.972982       -26.4762
   9   2.0000      -0.767221       -20.8771
  10   2.0000      -0.733457       -19.9584
  11   2.0000      -0.638526       -17.3752
  12   2.0000      -0.594368       -16.1736
  13   2.0000      -0.534446       -14.5430
  14   2.0000      -0.471578       -12.8323
  15   2.0000      -0.453884       -12.3508
  16   2.0000      -0.439808       -11.9678
  17   2.0000      -0.410494       -11.1701
  18   2.0000      -0.407010       -11.0753
  19   2.0000      -0.375691       -10.2231
  20   2.0000      -0.371783       -10.1167
  21   2.0000      -0.356314        -9.6958
  22   2.0000      -0.340950        -9.2777
  23   2.0000      -0.327319        -8.9068
  24   2.0000      -0.321279        -8.7425
  25   2.0000      -0.312775        -8.5110
  26   2.0000      -0.270804        -7.3690
  27   2.0000      -0.231282        -6.2935
  28   0.0000      -0.013638        -0.3711
  29   0.0000       0.072576         1.9749
  30   0.0000       0.095730         2.6049
  31   0.0000       0.118907         3.2356
  32   0.0000       0.124534         3.3887

MULLIKEN ATOMIC CHARGES
-----------------------
   0 C :   -0.472027
   1 C :   -0.295837
   2 C :    0.403667
   3 O :   -0.424900
   4 O :   -0.171678
   5 C :   -0.149089
   6 C :   -0.441227
   7 H :    0.158656
   8 H :    0.153373
   9 H :    0.156684
  10 H :    0.162726
  11 H :    0.152325
  12 H :    0.167135
  13 H :    0.148911
  14 H :    0.151360
  15 H :    0.152822
  16 H :    0.147097
Sum of atomic charges:   -0.0000000

LOEWDIN ATOMIC CHARGES
----------------------
   0 C :   -0.392795
   1 C :   -0.237002
   2 C :    0.353368
   3 O :   -0.427490
   4 O :   -0.599576
   5 C :    0.033921
   6 C :   -0.386868
   7 H :    0.159153
   8 H :    0.153035
   9 H :    0.157865
  10 H :    0.174527
  11 H :    0.173679
  12 H :    0.184772
  13 H :    0.175689
  14 H :    0.158940
  15 H :    0.159223
  16 H :    0.159557

  Mayer bond orders larger than 0.100000
B(  0-C ,  1-C ) :   0.8974 B(  0-C ,  7-H ) :   0.9741 B(  0-C ,  8-H ) :   0.9706
B(  0-C ,  9-H ) :   0.9775 B(  1-C ,  2-C ) :   0.9537 B(  1-C , 10-H ) :   0.9757
B(  1-C , 11-H ) :   0.9722 B(  2-C ,  3-O ) :   1.8277 B(  2-C ,  4-O ) :   1.0601
B(  4-O ,  5-C ) :   0.8017 B(  5-C ,  6-C ) :   0.9441 B(  5-C , 12-H ) :   0.9611
B(  5-C , 13-H ) :   0.9459 B(  6-C , 14-H ) :   0.9693 B(  6-C , 15-H ) :   0.9743
B(  6-C , 16-H ) :   0.9679

Dispersion correction           -0.003897378
FINAL SINGLE POINT ENERGY      -346.935802318897

DIPOLE MOMENT
-------------

Method             : SCF
Type of density    : Electron Density
Multiplicity       :   1
Irrep              :   0
Energy             :  -346.9422260572997629 Eh
Relativity type    :
Basis              : AO
                                X                 Y                 Z
Electronic contribution:     -0.837130574      -4.358649021      -0.219589695
Nuclear contribution   :      1.121818624       5.158867825       0.513871689
                        -----------------------------------------
Total Dipole Moment    :      0.284688050       0.800218804       0.294281994
                        -----------------------------------------
Magnitude (a.u.)       :      0.898887820
Magnitude (Debye)      :      2.284791262

Rotational constants in cm-1:             0.167648             0.049571             0.042098
Rotational constants in MHz :          5025.974324          1486.095049          1262.055668

                             ****ORCA TERMINATED NORMALLY****
TOTAL RUN TIME: 0 days 0 hours 0 minutes 21 seconds 23 msec
