                         Program Version 6.0.0  -   RELEASE  -
|  1> ! r2scan-3c def2/J RI DEFGRID2 scfconv6 printgap
|  2> %output
|  3>     printlevel normal
|  4> end
|  5> %cpcm
|  6>     smd true
|  7>     smdsolvent "water"
|  8> end
|  9> * xyz 0 1
| 10> C -2.410877689 1.0479756903 -0.3264109845
| 11> C -1.7996146264 0.0400233458 0.6515520965
| 12> C -0.5358331388 -0.524738983 0.0572060028
| 13> O -0.4572899047 -1.5822135287 -0.5354282088
| 14> O 0.4931820512 0.2901672493 0.2314157066
| 15> C 1.7642774005 -0.0934321653 -0.3196133648
| 16> C 2.8339435566 0.7881077774 0.295863214
| 17> H -2.6340038591 0.565598241 -1.2751912119
| 18> H -3.3315629477 1.447521586 0.0877102494
| 19> H -1.71889458 1.8671572341 -0.5033480063
| 20> H -2.493821843 -0.7802871269 0.8293873763
| 21> H -1.5551799931 0.5378309177 1.5888181714
| 22> H 1.9306036786 -1.1536273674 -0.1020222014
| 23> H 1.7168408241 0.0298418126 -1.4064276983
| 24> H 2.6241899221 1.8313466889 0.0796428645
| 25> H 2.8564253962 0.6513017356 1.3730332553
| 26> H 3.8005917214 0.5226137958 -0.1190584067
| 27> *
| 28>
| 29>                          ****END OF INPUT****

CARTESIAN COORDINATES (ANGSTROEM)
---------------------------------
  C     -2.410878    1.047976   -0.326411
  C     -1.799615    0.040023    0.651552
  C     -0.535833   -0.524739    0.057206
  O     -0.457290   -1.582214   -0.535428
  O      0.493182    0.290167    0.231416
  C      1.764277   -0.093432   -0.319613
  C      2.833944    0.788108    0.295863
  H     -2.634004    0.565598   -1.275191
  H     -3.331563    1.447522    0.087710
  H     -1.718895    1.867157   -0.503348
  H     -2.493822   -0.780287    0.829387
  H     -1.555180    0.537831    1.588818
  H      1.930604   -1.153627   -0.102022
  H      1.716841    0.029842   -1.406428
  H      2.624190    1.831347    0.079643
  H      2.856425    0.651302    1.373033
  H      3.800592    0.522614   -0.119058

 Total Charge           Charge          ....    0
 Multiplicity           Mult            ....    1
 Number of Electrons    NEL             ....   56
 Basis Dimension        Dim             ....  193

ORBITAL ENERGIES
----------------

  NO   OCC          E(Eh)            E(eV)
   0   2.0000     -19.002454      -517.0831
   1   2.0000     -18.943261      -515.4723
   2   2.0000     -10.161607      -276.5114
   3   2.0000     -10.083906      -274.3970
   4   2.0000     -10.037543      -273.1354
   5   2.0000     -10.022297      -272.7206
   6   2.0000     -10.018809      -272.6256
   7   2.0000      -1.079568       -29.3765
   8   2.0000      -0.988070       -26.8868
   9   2.0000      -0.762847       -20.7581
  10   2.0000      -0.724948       -19.7268
  11   2.0000      -0.632225       -17.2037
  12   2.0000      -0.587323       -15.9819
  13   2.0000      -0.533046       -14.5049
  14   2.0000      -0.471686       -12.8352
  15   2.0000      -0.458637       -12.4801
  16   2.0000      -0.443578       -12.0704
  17   2.0000      -0.410995       -11.1837
  18   2.0000      -0.403203       -10.9717
  19   2.0000      -0.372236       -10.1290
  20   2.0000      -0.360483        -9.8092
  21   2.0000      -0.348791        -9.4911
  22   2.0000      -0.333731        -9.0813
  23   2.0000      -0.321664        -8.7529
  24   2.0000      -0.319167        -8.6850
  25   2.0000      -0.313585        -8.5331
  26   2.0000      -0.277053        -7.5390
  27   2.0000      -0.248796        -6.7701
  28   0.0000      -0.022680        -0.6172
  29   0.0000       0.076318         2.0767
  30   0.0000       0.105119         2.8604
  31   0.0000       0.127398         3.4667
  32   0.0000       0.133339         3.6283

MULLIKEN ATOMIC CHARGES
-----------------------
   0 C :   -0.492392
   1 C :   -0.311400
   2 C :    0.446570
   3 O :   -0.514308
   4 O :   -0.184857
   5 C :   -0.150378
   6 C :   -0.488998
   7 H :    0.164541
   8 H :    0.172603
   9 H :    0.166371
  10 H :    0.174089
  11 H :    0.175435
  12 H :    0.171916
  13 H :    0.172128
  14 H :    0.164302
  15 H :    0.165770
  16 H :    0.168608
Sum of atomic charges:   -0.0000000

LOEWDIN ATOMIC CHARGES
----------------------
   0 C :   -0.393854
   1 C :   -0.234115
   2 C :    0.363246
   3 O :   -0.491407
   4 O :   -0.599086
   5 C :    0.036582
   6 C :   -0.389794
   7 H :    0.160630
   8 H :    0.160423
   9 H :    0.161029
  10 H :    0.179167
  11 H :    0.183549
  12 H :    0.186939
  13 H :    0.183537
  14 H :    0.162546
  15 H :    0.162383
  16 H :    0.168225

  Mayer bond orders larger than 0.100000
B(  0-C ,  1-C ) :   0.8889 B(  0-C ,  7-H ) :   0.9710 B(  0-C ,  8-H ) :   0.9655
B(  0-C ,  9-H ) :   0.9735 B(  1-C ,  2-C ) :   0.9525 B(  1-C , 10-H ) :   0.9719
B(  1-C , 11-H ) :   0.9627 B(  2-C ,  3-O ) :   1.7529 B(  2-C ,  4-O ) :   1.0904
B(  4-O ,  5-C ) :   0.7882 B(  5-C ,  6-C ) :   0.9446 B(  5-C , 12-H ) :   0.9550
B(  5-C , 13-H ) :   0.9373 B(  6-C , 14-H ) :   0.9666 B(  6-C , 15-H ) :   0.9729
B(  6-C , 16-H ) :   0.9615

Dispersion correction           -0.003897378
FINAL SINGLE POINT ENERGY      -346.941550780040

DIPOLE MOMENT
-------------

Method             : SCF
Type of density    : Electron Density
Multiplicity       :   1
Irrep              :   0
Energy             :  -346.9479745184422654 Eh
Relativity type    :
Basis              : AO
                                X                 Y                 Z
Electronic contribution:     -0.761641719      -4.049153775      -0.093409462
Nuclear contribution   :      1.121818624       5.158867825       0.513871689
                        -----------------------------------------
Total Dipole Moment    :      0.360176904       1.109714051       0.420462228
                        -----------------------------------------
Magnitude (a.u.)       :      1.240153685
Magnitude (Debye)      :      3.152220155

Rotational constants in cm-1:             0.167648             0.049571             0.042098
Rotational constants in MHz :          5025.974324          1486.095049          1262.055668

                             ****ORCA TERMINATED NORMALLY****
TOTAL RUN TIME: 0 days 0 hours 0 minutes 24 seconds 657 msec
