                         Program Version 6.0.0  -   RELEASE  -
|  1> ! r2scan-3c def2/J RI DEFGRID2 scfconv6 printgap
|  2> %output
|  3>     printlevel normal
|  4> end
|  5> * xyz 0 1
|  6> C -2.4870256335 0.4243809319 0.8815785518
|  7> C -1.7512962646 0.5699042087 -0.4530212644
|  8> C -0.4902187204 -0.2559869112 -0.4371637194
|  9> O -0.3424324347 -1.3026306123 -1.0355983018
| 10> O 0.4354737782 0.2937326938 0.3332693697
| 11> C 1.7111569148 -0.3523962231 0.4836289264
| 12> C 2.8169363652 0.6435275155 0.1770080073
| 13> H -3.3956347166 1.0184675835 0.8647962184
| 14> H -2.7528402427 -0.6154505174 1.0562851626
| 15> H -1.8558775969 0.7670328814 1.6970788495
| 16> H -1.4798622075 1.6136292058 -0.6084812733
| 17> H -2.3776323679 0.2214521064 -1.2733743485
| 18> H 1.7687484004 -0.6949475175 1.5200769931
| 19> H 1.7452667135 -1.2151713759 -0.188568786
| 20> H 2.7255665442 1.5092059453 0.8265895687
| 21> H 3.7800611164 0.1715655876 0.3412978236
| 22> H 2.7539687286 0.9718928245 -0.8570880818
| 23> *
| 24>
| 25>                          ****END OF INPUT****

CARTESIAN COORDINATES (ANGSTROEM)
---------------------------------
  C     -2.487026    0.424381    0.881579
  C     -1.751296    0.569904   -0.453021
  C     -0.490219   -0.255987   -0.437164
  O     -0.342432   -1.302631   -1.035598
  O      0.435474    0.293733    0.333269
  C      1.711157   -0.352396    0.483629
  C      2.816936    0.643528    0.177008
  H     -3.395635    1.018468    0.864796
  H     -2.752840   -0.615451    1.056285
  H     -1.855878    0.767033    1.697079
  H     -1.479862    1.613629   -0.608481
  H     -2.377632    0.221452   -1.273374
  H      1.768748   -0.694948    1.520077
  H      1.745267   -1.215171   -0.188569
  H      2.725567    1.509206    0.826590
  H      3.780061    0.171566    0.341298
  H      2.753969    0.971893   -0.857088

 Total Charge           Charge          ....    0
 Multiplicity           Mult            ....    1
 Number of Electrons    NEL             ....   56
 Basis Dimension        Dim             ....  193

ORBITAL ENERGIES
----------------

  NO   OCC          E(Eh)            E(eV)
   0   2.0000     -18.996294      -516.9154
   1   2.0000     -18.925848      -514.9985
   2   2.0000     -10.151060      -276.2244
   3   2.0000     -10.090204      -274.5684
   4   2.0000     -10.042990      -273.2837
   5   2.0000     -10.031856      -272.9807
   6   2.0000     -10.031146      -272.9613
   7   2.0000      -1.070941       -29.1418
   8   2.0000      -0.973800       -26.4985
   9   2.0000      -0.767014       -20.8715
  10   2.0000      -0.731874       -19.9153
  11   2.0000      -0.640091       -17.4178
  12   2.0000      -0.596867       -16.2416
  13   2.0000      -0.530536       -14.4366
  14   2.0000      -0.473999       -12.8982
  15   2.0000      -0.449825       -12.2404
  16   2.0000      -0.436134       -11.8678
  17   2.0000      -0.415078       -11.2949
  18   2.0000      -0.407380       -11.0854
  19   2.0000      -0.378480       -10.2990
  20   2.0000      -0.366597        -9.9756
  21   2.0000      -0.361564        -9.8387
  22   2.0000      -0.335837        -9.1386
  23   2.0000      -0.330642        -8.9972
  24   2.0000      -0.324552        -8.8315
  25   2.0000      -0.306556        -8.3418
  26   2.0000      -0.269040        -7.3209
  27   2.0000      -0.232387        -6.3236
  28   0.0000      -0.012915        -0.3514
  29   0.0000       0.075336         2.0500
  30   0.0000       0.092910         2.5282
  31   0.0000       0.118433         3.2227
  32   0.0000       0.124910         3.3990

MULLIKEN ATOMIC CHARGES
-----------------------
   0 C :   -0.472153
   1 C :   -0.294417
   2 C :    0.419590
   3 O :   -0.434969
   4 O :   -0.178918
   5 C :   -0.159628
   6 C :   -0.445865
   7 H :    0.152598
   8 H :    0.155287
   9 H :    0.159886
  10 H :    0.151832
  11 H :    0.164181
  12 H :    0.141948
  13 H :    0.188368
  14 H :    0.153028
  15 H :    0.146545
  16 H :    0.152688
Sum of atomic charges:    0.0000000

LOEWDIN ATOMIC CHARGES
----------------------
   0 C :   -0.393469
   1 C :   -0.235891
   2 C :    0.359136
   3 O :   -0.438856
   4 O :   -0.598989
   5 C :    0.030749
   6 C :   -0.387240
   7 H :    0.152833
   8 H :    0.157993
   9 H :    0.159470
  10 H :    0.174284
  11 H :    0.174275
  12 H :    0.174418
  13 H :    0.195933
  14 H :    0.157836
  15 H :    0.159089
  16 H :    0.158429

  Mayer bond orders larger than 0.100000
B(  0-C ,  1-C ) :   0.8947 B(  0-C ,  7-H ) :   0.9711 B(  0-C ,  8-H ) :   0.9734
B(  0-C ,  9-H ) :   0.9772 B(  1-C ,  2-C ) :   0.9689 B(  1-C , 10-H ) :   0.9620
B(  1-C , 11-H ) :   0.9806 B(  2-C ,  3-O ) :   1.8521 B(  2-C ,  4-O ) :   1.0477
B(  4-O ,  5-C ) :   0.7789 B(  5-C ,  6-C ) :   0.9504 B(  5-C , 12-H ) :   0.9517
B(  5-C , 13-H ) :   0.9670 B(  6-C , 14-H ) :   0.9722 B(  6-C , 15-H ) :   0.9668
B(  6-C , 16-H ) :   0.9728

Dispersion correction           -0.003924830
FINAL SINGLE POINT ENERGY      -346.934514087775

DIPOLE MOMENT
-------------

Method             : SCF
Type of density    : Electron Density
Multiplicity       :   1
Irrep              :   0
Energy             :  -346.9410516948689178 Eh
Relativity type    :
Basis              : AO
                                X                 Y                 Z
Electronic contribution:     -0.620630470      -2.827393043      -2.625039427
Nuclear contribution   :      0.856766875       3.500989305       3.159290244
                        -----------------------------------------
Total Dipole Moment    :      0.236136405       0.673596262       0.534250817
                        -----------------------------------------
Magnitude (a.u.)       :      0.891580766
Magnitude (Debye)      :      2.266218207

Rotational constants in cm-1:             0.171212             0.049581             0.043162
Rotational constants in MHz :          5132.814128          1486.413642          1293.966531

                             ****ORCA TERMINATED NORMALLY****
TOTAL RUN TIME: 0 days 0 hours 0 minutes 22 seconds 545 msec
