                         Program Version 6.0.0  -   RELEASE  -
|  1> ! r2scan-3c def2/J RI DEFGRID2 scfconv6 printgap
|  2> %output
|  3>     printlevel normal
|  4> end
|  5> %cpcm
|  6>     smd true
|  7>     smdsolvent "water"
|  8> end
|  9> * xyz 0 1
| 10> C -2.4870256335 0.4243809319 0.8815785518
| 11> C -1.7512962646 0.5699042087 -0.4530212644
| 12> C -0.4902187204 -0.2559869112 -0.4371637194
| 13> O -0.3424324347 -1.3026306123 -1.0355983018
| 14> O 0.4354737782 0.2937326938 0.3332693697
| 15> C 1.7111569148 -0.3523962231 0.4836289264
| 16> C 2.8169363652 0.6435275155 0.1770080073
| 17> H -3.3956347166 1.0184675835 0.8647962184
| 18> H -2.7528402427 -0.6154505174 1.0562851626
| 19> H -1.8558775969 0.7670328814 1.6970788495
| 20> H -1.4798622075 1.6136292058 -0.6084812733
| 21> H -2.3776323679 0.2214521064 -1.2733743485
| 22> H 1.7687484004 -0.6949475175 1.5200769931
| 23> H 1.7452667135 -1.2151713759 -0.188568786
| 24> H 2.7255665442 1.5092059453 0.8265895687
| 25> H 3.7800611164 0.1715655876 0.3412978236
| 26> H 2.7539687286 0.9718928245 -0.8570880818
| 27> *
| 28>
| 29>                          ****END OF INPUT****

CARTESIAN COORDINATES (ANGSTROEM)
---------------------------------
  C     -2.487026    0.424381    0.881579
  C     -1.751296    0.569904   -0.453021
  C     -0.490219   -0.255987   -0.437164
  O     -0.342432   -1.302631   -1.035598
  O      0.435474    0.293733    0.333269
  C      1.711157   -0.352396    0.483629
  C      2.816936    0.643528    0.177008
  H     -3.395635    1.018468    0.864796
  H     -2.752840   -0.615451    1.056285
  H     -1.855878    0.767033    1.697079
  H     -1.479862    1.613629   -0.608481
  H     -2.377632    0.221452   -1.273374
  H      1.768748   -0.694948    1.520077
  H      1.745267   -1.215171   -0.188569
  H      2.725567    1.509206    0.826590
  H      3.780061    0.171566    0.341298
  H      2.753969    0.971893   -0.857088

 Total Charge           Charge          ....    0
 Multiplicity           Mult            ....    1
 Number of Electrons    NEL             ....   56
 Basis Dimension        Dim             ....  193

ORBITAL ENERGIES
----------------

  NO   OCC          E(Eh)            E(eV)
   0   2.0000     -19.001909      -517.0682
   1   2.0000     -18.942384      -515.4485
   2   2.0000     -10.162169      -276.5267
   3   2.0000     -10.082353      -274.3548
   4   2.0000     -10.037319      -273.1293
   5   2.0000     -10.021646      -272.7028
   6   2.0000     -10.018425      -272.6152
   7   2.0000      -1.078328       -29.3428
   8   2.0000      -0.988199       -26.8903
   9   2.0000      -0.762508       -20.7489
  10   2.0000      -0.723314       -19.6824
  11   2.0000      -0.633815       -17.2470
  12   2.0000      -0.590003       -16.0548
  13   2.0000      -0.528510       -14.3815
  14   2.0000      -0.472840       -12.8666
  15   2.0000      -0.458526       -12.4771
  16   2.0000      -0.436092       -11.8667
  17   2.0000      -0.415939       -11.3183
  18   2.0000      -0.402767       -10.9598
  19   2.0000      -0.369576       -10.0567
  20   2.0000      -0.363667        -9.8959
  21   2.0000      -0.351587        -9.5672
  22   2.0000      -0.330042        -8.9809
  23   2.0000      -0.327720        -8.9177
  24   2.0000      -0.318397        -8.6640
  25   2.0000      -0.306153        -8.3308
  26   2.0000      -0.275314        -7.4917
  27   2.0000      -0.248624        -6.7654
  28   0.0000      -0.021499        -0.5850
  29   0.0000       0.078415         2.1338
  30   0.0000       0.101659         2.7663
  31   0.0000       0.128056         3.4846
  32   0.0000       0.134010         3.6466

MULLIKEN ATOMIC CHARGES
-----------------------
   0 C :   -0.493995
   1 C :   -0.309545
   2 C :    0.454788
   3 O :   -0.521783
   4 O :   -0.195481
   5 C :   -0.146533
   6 C :   -0.486580
   7 H :    0.171691
   8 H :    0.163884
   9 H :    0.166958
  10 H :    0.177440
  11 H :    0.172534
  12 H :    0.168647
  13 H :    0.180678
  14 H :    0.165324
  15 H :    0.168005
  16 H :    0.163969
Sum of atomic charges:   -0.0000000

LOEWDIN ATOMIC CHARGES
----------------------
   0 C :   -0.394673
   1 C :   -0.233419
   2 C :    0.368297
   3 O :   -0.501383
   4 O :   -0.599302
   5 C :    0.036428
   6 C :   -0.390581
   7 H :    0.160123
   8 H :    0.160381
   9 H :    0.161570
  10 H :    0.184753
  11 H :    0.178120
  12 H :    0.185388
  13 H :    0.194219
  14 H :    0.161598
  15 H :    0.167501
  16 H :    0.160981

  Mayer bond orders larger than 0.100000
B(  0-C ,  1-C ) :   0.8867 B(  0-C ,  7-H ) :   0.9661 B(  0-C ,  8-H ) :   0.9700
B(  0-C ,  9-H ) :   0.9741 B(  1-C ,  2-C ) :   0.9680 B(  1-C , 10-H ) :   0.9527
B(  1-C , 11-H ) :   0.9759 B(  2-C ,  3-O ) :   1.7798 B(  2-C ,  4-O ) :   1.0781
B(  4-O ,  5-C ) :   0.7677 B(  5-C ,  6-C ) :   0.9456 B(  5-C , 12-H ) :   0.9433
B(  5-C , 13-H ) :   0.9627 B(  6-C , 14-H ) :   0.9695 B(  6-C , 15-H ) :   0.9609
B(  6-C , 16-H ) :   0.9701

Dispersion correction           -0.003924830
FINAL SINGLE POINT ENERGY      -346.939519458035

DIPOLE MOMENT
-------------

Method             : SCF
Type of density    : Electron Density
Multiplicity       :   1
Irrep              :   0
Energy             :  -346.9460570651298212 Eh
Relativity type    :
Basis              : AO
                                X                 Y                 Z
Electronic contribution:     -0.557808048      -2.557297083      -2.412021476
Nuclear contribution   :      0.856766875       3.500989305       3.159290244
                        -----------------------------------------
Total Dipole Moment    :      0.298958827       0.943692223       0.747268769
                        -----------------------------------------
Magnitude (a.u.)       :      1.240299159
Magnitude (Debye)      :      3.152589922

Rotational constants in cm-1:             0.171212             0.049581             0.043162
Rotational constants in MHz :          5132.814128          1486.413642          1293.966531

                             ****ORCA TERMINATED NORMALLY****
TOTAL RUN TIME: 0 days 0 hours 0 minutes 24 seconds 466 msec
