                         Program Version 6.0.0  -   RELEASE  -
|  1> ! wb97x-v def2-tzvp def2/J RIJCOSX DEFGRID2 scfconv7 GCP(DFT/TZ) printgap
|  2> %output
|  3>     printlevel normal
|  4> end
|  5> * xyz 0 1
|  6> C -2.792908950814641 -0.27680948427533586 0.00677489123707186
|  7> C -1.441433170420598 0.4262907985915536 -0.08015121260816803
|  8> C -0.2878242238327715 -0.5542788000865869 0.0744613112126285
|  9> C 1.084400692984165 0.05783304779400898 0.017113166398884976
| 10> O 1.2549640442375332 1.2739844940966745 0.005115383280838133
| 11> C 2.242221728244614 -0.8941990112042508 -0.04178609288894133
| 12> H -3.6165194319371836 0.43399918282440686 -0.11133406331621633
| 13> H -2.914316592539474 -0.7742385646169081 0.9753443605195382
| 14> H -2.8916824732527715 -1.038681398719776 -0.7742083512800702
| 15> H -1.37169496887763 1.195839826903526 0.6964913880163542
| 16> H -1.3496777846759669 0.9434884281004658 -1.042471267957555
| 17> H -0.35032631635247186 -1.0831520465165567 1.0378370146930413
| 18> H -0.33158375552807245 -1.3486760936773141 -0.683729318152195
| 19> H 3.1766254162644714 -0.3901437520823242 0.2105184203382322
| 20> H 2.3121166957571155 -1.2785833676664489 -1.0673031804251043
| 21> H 2.0782579103078205 -1.7567101689709446 0.6104030802256969
| 22> *
| 23>
| 24>                          ****END OF INPUT****

CARTESIAN COORDINATES (ANGSTROEM)
---------------------------------
  C     -2.792909   -0.276809    0.006775
  C     -1.441433    0.426291   -0.080151
  C     -0.287824   -0.554279    0.074461
  C      1.084401    0.057833    0.017113
  O      1.254964    1.273984    0.005115
  C      2.242222   -0.894199   -0.041786
  H     -3.616519    0.433999   -0.111334
  H     -2.914317   -0.774239    0.975344
  H     -2.891682   -1.038681   -0.774208
  H     -1.371695    1.195840    0.696491
  H     -1.349678    0.943488   -1.042471
  H     -0.350326   -1.083152    1.037837
  H     -0.331584   -1.348676   -0.683729
  H      3.176625   -0.390144    0.210518
  H      2.312117   -1.278583   -1.067303
  H      2.078258   -1.756710    0.610403

 Total Charge           Charge          ....    0
 Multiplicity           Mult            ....    1
 Number of Electrons    NEL             ....   48
 Basis Dimension        Dim             ....  246

ORBITAL ENERGIES
----------------

  NO   OCC          E(Eh)            E(eV)
   0   2.0000     -21.657332      -589.3260
   1   2.0000     -12.137490      -330.2779
   2   2.0000     -12.056742      -328.0806
   3   2.0000     -12.052677      -327.9700
   4   2.0000     -12.044742      -327.7541
   5   2.0000     -12.037860      -327.5668
   6   2.0000      -1.700352       -46.2689
   7   2.0000      -1.317316       -35.8460
   8   2.0000      -1.264445       -34.4073
   9   2.0000      -1.199279       -32.6340
  10   2.0000      -1.095251       -29.8033
  11   2.0000      -1.067164       -29.0390
  12   2.0000      -0.967063       -26.3151
  13   2.0000      -0.956639       -26.0315
  14   2.0000      -0.919490       -25.0206
  15   2.0000      -0.880091       -23.9485
  16   2.0000      -0.853996       -23.2384
  17   2.0000      -0.842775       -22.9331
  18   2.0000      -0.832156       -22.6441
  19   2.0000      -0.830426       -22.5970
  20   2.0000      -0.818798       -22.2806
  21   2.0000      -0.784416       -21.3450
  22   2.0000      -0.779915       -21.2226
  23   2.0000      -0.756622       -20.5887
  24   0.0000      -0.303860        -8.2685
  25   0.0000      -0.056542        -1.5386
  26   0.0000      -0.047651        -1.2967
  27   0.0000      -0.022015        -0.5991
  28   0.0000      -0.002638        -0.0718

MULLIKEN ATOMIC CHARGES
-----------------------
   0 C :   -0.329175
   1 C :   -0.144962
   2 C :   -0.223770
   3 C :    0.213595
   4 O :   -0.323332
   5 C :   -0.342192
   6 H :    0.119513
   7 H :    0.102845
   8 H :    0.101480
   9 H :    0.106381
  10 H :    0.098601
  11 H :    0.115812
  12 H :    0.113216
  13 H :    0.139499
  14 H :    0.130832
  15 H :    0.121656
Sum of atomic charges:    0.0000000

LOEWDIN ATOMIC CHARGES
----------------------
   0 C :   -0.307530
   1 C :   -0.279582
   2 C :   -0.239148
   3 C :   -0.340971
   4 O :    0.105208
   5 C :   -0.261648
   6 H :    0.117544
   7 H :    0.115331
   8 H :    0.114827
   9 H :    0.138813
  10 H :    0.137121
  11 H :    0.152654
  12 H :    0.148959
  13 H :    0.131230
  14 H :    0.138342
  15 H :    0.128851

  Mayer bond orders larger than 0.100000
B(  0-C ,  1-C ) :   0.9723 B(  0-C ,  6-H ) :   0.9869 B(  0-C ,  7-H ) :   0.9803
B(  0-C ,  8-H ) :   0.9789 B(  1-C ,  2-C ) :   0.9973 B(  1-C ,  9-H ) :   0.9742
B(  1-C , 10-H ) :   0.9757 B(  2-C ,  3-C ) :   0.9614 B(  2-C , 11-H ) :   0.9384
B(  2-C , 12-H ) :   0.9531 B(  3-C ,  4-O ) :   2.1173 B(  3-C ,  5-C ) :   0.9825
B(  5-C , 13-H ) :   0.9786 B(  5-C , 14-H ) :   0.9513 B(  5-C , 15-H ) :   0.9660

FINAL SINGLE POINT ENERGY      -271.793754226590

DIPOLE MOMENT
-------------

Method             : SCF
Type of density    : Electron Density
Multiplicity       :   1
Irrep              :   0
Energy             :  -271.8043658565899250 Eh
Relativity type    :
Basis              : AO
                                X                 Y                 Z
Electronic contribution:      4.755110206       3.669941072       0.095422026
Nuclear contribution   :     -4.960682431      -4.799699880      -0.100894697
                        -----------------------------------------
Total Dipole Moment    :     -0.205572225      -1.129758807      -0.005472671
                        -----------------------------------------
Magnitude (a.u.)       :      1.148322626
Magnitude (Debye)      :      2.918804153

Rotational constants in cm-1:             0.276337             0.060238             0.051402
Rotational constants in MHz :          8284.381263          1805.899285          1540.988533

                             ****ORCA TERMINATED NORMALLY****
TOTAL RUN TIME: 0 days 0 hours 2 minutes 3 seconds 531 msec
