                         Program Version 6.0.0  -   RELEASE  -
|  1> ! wb97x-v def2-tzvp def2/J RIJCOSX DEFGRID2 scfconv7 GCP(DFT/TZ) printgap
|  2> %output
|  3>     printlevel normal
|  4> end
|  5> %cpcm
|  6>     smd true
|  7>     smdsolvent "water"
|  8> end
|  9> * xyz 0 1
| 10> C -2.792908950814641 -0.27680948427533586 0.00677489123707186
| 11> C -1.441433170420598 0.4262907985915536 -0.08015121260816803
| 12> C -0.2878242238327715 -0.5542788000865869 0.0744613112126285
| 13> C 1.084400692984165 0.05783304779400898 0.017113166398884976
| 14> O 1.2549640442375332 1.2739844940966745 0.005115383280838133
| 15> C 2.242221728244614 -0.8941990112042508 -0.04178609288894133
| 16> H -3.6165194319371836 0.43399918282440686 -0.11133406331621633
| 17> H -2.914316592539474 -0.7742385646169081 0.9753443605195382
| 18> H -2.8916824732527715 -1.038681398719776 -0.7742083512800702
| 19> H -1.37169496887763 1.195839826903526 0.6964913880163542
| 20> H -1.3496777846759669 0.9434884281004658 -1.042471267957555
| 21> H -0.35032631635247186 -1.0831520465165567 1.0378370146930413
| 22> H -0.33158375552807245 -1.3486760936773141 -0.683729318152195
| 23> H 3.1766254162644714 -0.3901437520823242 0.2105184203382322
| 24> H 2.3121166957571155 -1.2785833676664489 -1.0673031804251043
| 25> H 2.0782579103078205 -1.7567101689709446 0.6104030802256969
| 26> *
| 27>
| 28>                          ****END OF INPUT****

CARTESIAN COORDINATES (ANGSTROEM)
---------------------------------
  C     -2.792909   -0.276809    0.006775
  C     -1.441433    0.426291   -0.080151
  C     -0.287824   -0.554279    0.074461
  C      1.084401    0.057833    0.017113
  O      1.254964    1.273984    0.005115
  C      2.242222   -0.894199   -0.041786
  H     -3.616519    0.433999   -0.111334
  H     -2.914317   -0.774239    0.975344
  H     -2.891682   -1.038681   -0.774208
  H     -1.371695    1.195840    0.696491
  H     -1.349678    0.943488   -1.042471
  H     -0.350326   -1.083152    1.037837
  H     -0.331584   -1.348676   -0.683729
  H      3.176625   -0.390144    0.210518
  H      2.312117   -1.278583   -1.067303
  H      2.078258   -1.756710    0.610403

 Total Charge           Charge          ....    0
 Multiplicity           Mult            ....    1
 Number of Electrons    NEL             ....   48
 Basis Dimension        Dim             ....  246

ORBITAL ENERGIES
----------------

  NO   OCC          E(Eh)            E(eV)
   0   2.0000     -21.666676      -589.5802
   1   2.0000     -12.143212      -330.4336
   2   2.0000     -12.043427      -327.7183
   3   2.0000     -12.038770      -327.5916
   4   2.0000     -12.036495      -327.5297
   5   2.0000     -12.026473      -327.2570
   6   2.0000      -1.713287       -46.6209
   7   2.0000      -1.308311       -35.6010
   8   2.0000      -1.255629       -34.1674
   9   2.0000      -1.188658       -32.3450
  10   2.0000      -1.097209       -29.8566
  11   2.0000      -1.067390       -29.0452
  12   2.0000      -0.970299       -26.4032
  13   2.0000      -0.951147       -25.8820
  14   2.0000      -0.925122       -25.1739
  15   2.0000      -0.874676       -23.8011
  16   2.0000      -0.842925       -22.9372
  17   2.0000      -0.833801       -22.6889
  18   2.0000      -0.823857       -22.4183
  19   2.0000      -0.821673       -22.3589
  20   2.0000      -0.805687       -21.9239
  21   2.0000      -0.781057       -21.2536
  22   2.0000      -0.769538       -20.9402
  23   2.0000      -0.746429       -20.3114
  24   0.0000      -0.299615        -8.1529
  25   0.0000      -0.047348        -1.2884
  26   0.0000      -0.039868        -1.0849
  27   0.0000      -0.004535        -0.1234
  28   0.0000       0.009575         0.2605

MULLIKEN ATOMIC CHARGES
-----------------------
   0 C :   -0.388964
   1 C :   -0.165481
   2 C :   -0.235475
   3 C :    0.301037
   4 O :   -0.467767
   5 C :   -0.386709
   6 H :    0.131710
   7 H :    0.121949
   8 H :    0.121580
   9 H :    0.103633
  10 H :    0.106537
  11 H :    0.148863
  12 H :    0.145276
  13 H :    0.143802
  14 H :    0.164396
  15 H :    0.155613
Sum of atomic charges:    0.0000000

LOEWDIN ATOMIC CHARGES
----------------------
   0 C :   -0.311409
   1 C :   -0.286789
   2 C :   -0.228938
   3 C :   -0.317262
   4 O :    0.022676
   5 C :   -0.255476
   6 H :    0.118707
   7 H :    0.119342
   8 H :    0.119163
   9 H :    0.134920
  10 H :    0.135797
  11 H :    0.165387
  12 H :    0.161535
  13 H :    0.131195
  14 H :    0.150168
  15 H :    0.140986

  Mayer bond orders larger than 0.100000
B(  0-C ,  1-C ) :   0.9802 B(  0-C ,  6-H ) :   0.9829 B(  0-C ,  7-H ) :   0.9787
B(  0-C ,  8-H ) :   0.9780 B(  1-C ,  2-C ) :   0.9862 B(  1-C ,  9-H ) :   0.9694
B(  1-C , 10-H ) :   0.9726 B(  2-C ,  3-C ) :   0.9849 B(  2-C , 11-H ) :   0.9271
B(  2-C , 12-H ) :   0.9421 B(  3-C ,  4-O ) :   1.9470 B(  3-C ,  5-C ) :   1.0073
B(  5-C , 13-H ) :   0.9701 B(  5-C , 14-H ) :   0.9398 B(  5-C , 15-H ) :   0.9575

FINAL SINGLE POINT ENERGY      -271.801390788148

DIPOLE MOMENT
-------------

Method             : SCF
Type of density    : Electron Density
Multiplicity       :   1
Irrep              :   0
Energy             :  -271.8120024181480403 Eh
Relativity type    :
Basis              : AO
                                X                 Y                 Z
Electronic contribution:      4.676362511       3.058214290       0.094446548
Nuclear contribution   :     -4.960682431      -4.799699880      -0.100894697
                        -----------------------------------------
Total Dipole Moment    :     -0.284319919      -1.741485590      -0.006448149
                        -----------------------------------------
Magnitude (a.u.)       :      1.764554180
Magnitude (Debye)      :      4.485140287

Rotational constants in cm-1:             0.276337             0.060238             0.051402
Rotational constants in MHz :          8284.381263          1805.899285          1540.988533

                             ****ORCA TERMINATED NORMALLY****
TOTAL RUN TIME: 0 days 0 hours 2 minutes 5 seconds 378 msec
