                         Program Version 6.0.0  -   RELEASE  -
|  1> ! r2scan-3c def2/J RI DEFGRID2 scfconv6 printgap
|  2> %output
|  3>     printlevel normal
|  4> end
|  5> * xyz 0 1
|  6> C -3.8883506151 -0.6303296701 -1.6923335338
|  7> C -3.0083284151 -1.5722140496 -0.8796397912
|  8> C -2.4651571058 -1.0138326339 0.4448453538
|  9> H -1.9872159636 -1.8555955524 0.9615139624
| 10> C -3.5322454861 -0.4430302937 1.3679503783
| 11> N -1.3427446531 -0.0789117978 0.2130773562
| 12> C -0.0733165189 -0.6632977781 0.2391075535
| 13> O 0.0670474676 -1.8635897235 0.4078426207
| 14> C 1.0354400731 0.2470941028 0.0645130227
| 15> C 0.8638991913 1.577870814 -0.1343964447
| 16> N -0.420977507 2.0263863156 -0.1770078094
| 17> C -1.5531120166 1.2553306921 -0.0409864693
| 18> O -2.6435347742 1.7822834789 -0.1499240242
| 19> C 1.9333940723 2.5874243939 -0.3237876343
| 20> Br 2.7524784646 -0.5675799859 0.1301883327
| 21> H -3.3764841896 0.3007025959 -1.9175869368
| 22> H -4.1599859446 -1.1096437915 -2.6294976152
| 23> H -4.799882889 -0.393333035 -1.1522664126
| 24> H -3.5815582729 -2.4683626121 -0.6364556521
| 25> H -2.1518417922 -1.8883649075 -1.4815203244
| 26> H -4.2567586009 -1.2250329567 1.5746626441
| 27> H -3.0835752952 -0.1266221055 2.3068377249
| 28> H -4.0387207121 0.4057327239 0.9220971034
| 29> H -0.5954027491 3.0117783761 -0.3507803735
| 30> H 1.7595444817 3.440609902 0.3271846002
| 31> H 1.9265184521 2.9395621061 -1.3539409734
| 32> H 2.9093344548 2.1634188392 -0.1093824481
| 33> *
| 34>
| 35>                          ****END OF INPUT****

CARTESIAN COORDINATES (ANGSTROEM)
---------------------------------
  C     -3.888351   -0.630330   -1.692334
  C     -3.008328   -1.572214   -0.879640
  C     -2.465157   -1.013833    0.444845
  H     -1.987216   -1.855596    0.961514
  C     -3.532245   -0.443030    1.367950
  N     -1.342745   -0.078912    0.213077
  C     -0.073317   -0.663298    0.239108
  O      0.067047   -1.863590    0.407843
  C      1.035440    0.247094    0.064513
  C      0.863899    1.577871   -0.134396
  N     -0.420978    2.026386   -0.177008
  C     -1.553112    1.255331   -0.040986
  O     -2.643535    1.782283   -0.149924
  C      1.933394    2.587424   -0.323788
  Br     2.752478   -0.567580    0.130188
  H     -3.376484    0.300703   -1.917587
  H     -4.159986   -1.109644   -2.629498
  H     -4.799883   -0.393333   -1.152266
  H     -3.581558   -2.468363   -0.636456
  H     -2.151842   -1.888365   -1.481520
  H     -4.256759   -1.225033    1.574663
  H     -3.083575   -0.126622    2.306838
  H     -4.038721    0.405733    0.922097
  H     -0.595403    3.011778   -0.350780
  H      1.759544    3.440610    0.327185
  H      1.926518    2.939562   -1.353941
  H      2.909334    2.163419   -0.109382

 Total Charge           Charge          ....    0
 Multiplicity           Mult            ....    1
 Number of Electrons    NEL             ....  132
 Basis Dimension        Dim             ....  368

ORBITAL ENERGIES
----------------

  NO   OCC          E(Eh)            E(eV)
   0   2.0000    -482.235314    -13122.2900
   1   2.0000     -62.306496     -1695.4459
   2   2.0000     -56.087103     -1526.2077
   3   2.0000     -56.084268     -1526.1305
   4   2.0000     -56.084098     -1526.1259
   5   2.0000     -18.932366      -515.1759
   6   2.0000     -18.928488      -515.0703
   7   2.0000     -14.238769      -387.4566
   8   2.0000     -14.229074      -387.1928
   9   2.0000     -10.184049      -277.1221
  10   2.0000     -10.151738      -276.2428
  11   2.0000     -10.130477      -275.6643
  12   2.0000     -10.101019      -274.8627
  13   2.0000     -10.078365      -274.2463
  14   2.0000     -10.069061      -273.9931
  15   2.0000     -10.030117      -272.9333
  16   2.0000     -10.018203      -272.6092
  17   2.0000     -10.011108      -272.4161
  18   2.0000      -8.638326      -235.0608
  19   2.0000      -6.446594      -175.4207
  20   2.0000      -6.431989      -175.0233
  21   2.0000      -6.431300      -175.0046
  22   2.0000      -2.543975       -69.2251
  23   2.0000      -2.540400       -69.1278
  24   2.0000      -2.539907       -69.1144
  25   2.0000      -2.529045       -68.8188
  26   2.0000      -2.529026       -68.8183
  27   2.0000      -1.054487       -28.6941
  28   2.0000      -1.016515       -27.6608
  29   2.0000      -0.958452       -26.0808
  30   2.0000      -0.918426       -24.9916
  31   2.0000      -0.813942       -22.1485
  32   2.0000      -0.774753       -21.0821
  33   2.0000      -0.750058       -20.4101
  34   2.0000      -0.708038       -19.2667
  35   2.0000      -0.692102       -18.8331
  36   2.0000      -0.651215       -17.7204
  37   2.0000      -0.628600       -17.1051
  38   2.0000      -0.607992       -16.5443
  39   2.0000      -0.560448       -15.2506
  40   2.0000      -0.552152       -15.0248
  41   2.0000      -0.514692       -14.0055
  42   2.0000      -0.475417       -12.9368
  43   2.0000      -0.453429       -12.3384
  44   2.0000      -0.439314       -11.9543
  45   2.0000      -0.436813       -11.8863
  46   2.0000      -0.425473       -11.5777
  47   2.0000      -0.413082       -11.2405
  48   2.0000      -0.407337       -11.0842
  49   2.0000      -0.401312       -10.9203
  50   2.0000      -0.390556       -10.6276
  51   2.0000      -0.387403       -10.5418
  52   2.0000      -0.384214       -10.4550
  53   2.0000      -0.362701        -9.8696
  54   2.0000      -0.358185        -9.7467
  55   2.0000      -0.350776        -9.5451
  56   2.0000      -0.335884        -9.1399
  57   2.0000      -0.315934        -8.5970
  58   2.0000      -0.305365        -8.3094
  59   2.0000      -0.301162        -8.1950
  60   2.0000      -0.291209        -7.9242
  61   2.0000      -0.269984        -7.3466
  62   2.0000      -0.258427        -7.0321
  63   2.0000      -0.250102        -6.8056
  64   2.0000      -0.235363        -6.4045
  65   2.0000      -0.218801        -5.9539
  66   0.0000      -0.074326        -2.0225
  67   0.0000      -0.034000        -0.9252
  68   0.0000      -0.025452        -0.6926
  69   0.0000       0.038768         1.0549
  70   0.0000       0.061153         1.6641

MULLIKEN ATOMIC CHARGES
-----------------------
   0 C :   -0.473522
   1 C :   -0.331411
   2 C :   -0.032421
   3 H :    0.208814
   4 C :   -0.524151
   5 N :    0.156744
   6 C :    0.214701
   7 O :   -0.430697
   8 C :   -0.148488
   9 C :    0.213306
  10 N :   -0.024810
  11 C :    0.210099
  12 O :   -0.454148
  13 C :   -0.603463
  14 Br:   -0.080843
  15 H :    0.167396
  16 H :    0.144285
  17 H :    0.150815
  18 H :    0.150134
  19 H :    0.158115
  20 H :    0.153859
  21 H :    0.151072
  22 H :    0.203191
  23 H :    0.280448
  24 H :    0.167972
  25 H :    0.185391
  26 H :    0.187612
Sum of atomic charges:   -0.0000000

LOEWDIN ATOMIC CHARGES
----------------------
   0 C :   -0.413240
   1 C :   -0.264191
   2 C :    0.043196
   3 H :    0.224421
   4 C :   -0.367443
   5 N :   -0.617172
   6 C :    0.354903
   7 O :   -0.474794
   8 C :   -0.195051
   9 C :    0.156030
  10 N :   -0.519296
  11 C :    0.459287
  12 O :   -0.428025
  13 C :   -0.350871
  14 Br:    0.256844
  15 H :    0.166799
  16 H :    0.149150
  17 H :    0.154530
  18 H :    0.160737
  19 H :    0.167465
  20 H :    0.159531
  21 H :    0.160936
  22 H :    0.184396
  23 H :    0.299238
  24 H :    0.173088
  25 H :    0.179023
  26 H :    0.180507

  Mayer bond orders larger than 0.100000
B(  0-C ,  1-C ) :   0.8982 B(  0-C , 15-H ) :   0.9730 B(  0-C , 16-H ) :   0.9688
B(  0-C , 17-H ) :   0.9762 B(  1-C ,  2-C ) :   0.8795 B(  1-C , 18-H ) :   0.9770
B(  1-C , 19-H ) :   0.9835 B(  2-C ,  3-H ) :   0.9553 B(  2-C ,  4-C ) :   0.8468
B(  2-C ,  5-N ) :   0.8439 B(  4-C , 20-H ) :   0.9679 B(  4-C , 21-H ) :   0.9748
B(  4-C , 22-H ) :   0.9694 B(  5-N ,  6-C ) :   1.0855 B(  5-N , 11-C ) :   1.1621
B(  6-C ,  7-O ) :   1.9112 B(  6-C ,  8-C ) :   0.9770 B(  6-C , 14-Br) :  -0.1172
B(  8-C ,  9-C ) :   1.4772 B(  8-C , 14-Br) :   1.2067 B(  9-C , 10-N ) :   1.1537
B(  9-C , 13-C ) :   0.8470 B( 10-N , 11-C ) :   1.0323 B( 10-N , 23-H ) :   0.9047
B( 11-C , 12-O ) :   1.8846 B( 13-C , 24-H ) :   0.9755 B( 13-C , 25-H ) :   0.9580
B( 13-C , 26-H ) :   0.9553

Dispersion correction           -0.011449556
FINAL SINGLE POINT ENERGY     -3184.782074437165

DIPOLE MOMENT
-------------

Method             : SCF
Type of density    : Electron Density
Multiplicity       :   1
Irrep              :   0
Energy             : -3184.7922606138581614 Eh
Relativity type    :
Basis              : AO
                                X                 Y                 Z
Electronic contribution:     49.803697607      -6.782594103       4.321323467
Nuclear contribution   :    -49.467926287       8.276800551      -4.525107963
                        -----------------------------------------
Total Dipole Moment    :      0.335771320       1.494206448      -0.203784496
                        -----------------------------------------
Magnitude (a.u.)       :      1.544967122
Magnitude (Debye)      :      3.926994342

Rotational constants in cm-1:             0.032196             0.010613             0.008786
Rotational constants in MHz :           965.202603           318.181344           263.400816

                             ****ORCA TERMINATED NORMALLY****
TOTAL RUN TIME: 0 days 0 hours 1 minutes 23 seconds 173 msec
