                         Program Version 6.0.0  -   RELEASE  -
|  1> ! r2scan-3c def2/J RI DEFGRID2 scfconv6 printgap
|  2> %output
|  3>     printlevel normal
|  4> end
|  5> %cpcm
|  6>     smd true
|  7>     smdsolvent "water"
|  8> end
|  9> * xyz 0 1
| 10> C -3.8883506151 -0.6303296701 -1.6923335338
| 11> C -3.0083284151 -1.5722140496 -0.8796397912
| 12> C -2.4651571058 -1.0138326339 0.4448453538
| 13> H -1.9872159636 -1.8555955524 0.9615139624
| 14> C -3.5322454861 -0.4430302937 1.3679503783
| 15> N -1.3427446531 -0.0789117978 0.2130773562
| 16> C -0.0733165189 -0.6632977781 0.2391075535
| 17> O 0.0670474676 -1.8635897235 0.4078426207
| 18> C 1.0354400731 0.2470941028 0.0645130227
| 19> C 0.8638991913 1.577870814 -0.1343964447
| 20> N -0.420977507 2.0263863156 -0.1770078094
| 21> C -1.5531120166 1.2553306921 -0.0409864693
| 22> O -2.6435347742 1.7822834789 -0.1499240242
| 23> C 1.9333940723 2.5874243939 -0.3237876343
| 24> Br 2.7524784646 -0.5675799859 0.1301883327
| 25> H -3.3764841896 0.3007025959 -1.9175869368
| 26> H -4.1599859446 -1.1096437915 -2.6294976152
| 27> H -4.799882889 -0.393333035 -1.1522664126
| 28> H -3.5815582729 -2.4683626121 -0.6364556521
| 29> H -2.1518417922 -1.8883649075 -1.4815203244
| 30> H -4.2567586009 -1.2250329567 1.5746626441
| 31> H -3.0835752952 -0.1266221055 2.3068377249
| 32> H -4.0387207121 0.4057327239 0.9220971034
| 33> H -0.5954027491 3.0117783761 -0.3507803735
| 34> H 1.7595444817 3.440609902 0.3271846002
| 35> H 1.9265184521 2.9395621061 -1.3539409734
| 36> H 2.9093344548 2.1634188392 -0.1093824481
| 37> *
| 38>
| 39>                          ****END OF INPUT****

CARTESIAN COORDINATES (ANGSTROEM)
---------------------------------
  C     -3.888351   -0.630330   -1.692334
  C     -3.008328   -1.572214   -0.879640
  C     -2.465157   -1.013833    0.444845
  H     -1.987216   -1.855596    0.961514
  C     -3.532245   -0.443030    1.367950
  N     -1.342745   -0.078912    0.213077
  C     -0.073317   -0.663298    0.239108
  O      0.067047   -1.863590    0.407843
  C      1.035440    0.247094    0.064513
  C      0.863899    1.577871   -0.134396
  N     -0.420978    2.026386   -0.177008
  C     -1.553112    1.255331   -0.040986
  O     -2.643535    1.782283   -0.149924
  C      1.933394    2.587424   -0.323788
  Br     2.752478   -0.567580    0.130188
  H     -3.376484    0.300703   -1.917587
  H     -4.159986   -1.109644   -2.629498
  H     -4.799883   -0.393333   -1.152266
  H     -3.581558   -2.468363   -0.636456
  H     -2.151842   -1.888365   -1.481520
  H     -4.256759   -1.225033    1.574663
  H     -3.083575   -0.126622    2.306838
  H     -4.038721    0.405733    0.922097
  H     -0.595403    3.011778   -0.350780
  H      1.759544    3.440610    0.327185
  H      1.926518    2.939562   -1.353941
  H      2.909334    2.163419   -0.109382

 Total Charge           Charge          ....    0
 Multiplicity           Mult            ....    1
 Number of Electrons    NEL             ....  132
 Basis Dimension        Dim             ....  368

ORBITAL ENERGIES
----------------

  NO   OCC          E(Eh)            E(eV)
   0   2.0000    -482.234683    -13122.2729
   1   2.0000     -62.305922     -1695.4303
   2   2.0000     -56.086485     -1526.1909
   3   2.0000     -56.083707     -1526.1153
   4   2.0000     -56.083550     -1526.1110
   5   2.0000     -18.936193      -515.2800
   6   2.0000     -18.935654      -515.2653
   7   2.0000     -14.228417      -387.1749
   8   2.0000     -14.225804      -387.1038
   9   2.0000     -10.184009      -277.1210
  10   2.0000     -10.155852      -276.3548
  11   2.0000     -10.121246      -275.4131
  12   2.0000     -10.094337      -274.6809
  13   2.0000     -10.074937      -274.1530
  14   2.0000     -10.040399      -273.2131
  15   2.0000     -10.025194      -272.7994
  16   2.0000     -10.012914      -272.4652
  17   2.0000     -10.008200      -272.3370
  18   2.0000      -8.637811      -235.0468
  19   2.0000      -6.445856      -175.4007
  20   2.0000      -6.431586      -175.0124
  21   2.0000      -6.430912      -174.9940
  22   2.0000      -2.543308       -69.2069
  23   2.0000      -2.539809       -69.1117
  24   2.0000      -2.539328       -69.0986
  25   2.0000      -2.528709       -68.8097
  26   2.0000      -2.528690       -68.8092
  27   2.0000      -1.054514       -28.6948
  28   2.0000      -1.023528       -27.8516
  29   2.0000      -0.951763       -25.8988
  30   2.0000      -0.915668       -24.9166
  31   2.0000      -0.807805       -21.9815
  32   2.0000      -0.768112       -20.9014
  33   2.0000      -0.738802       -20.1038
  34   2.0000      -0.701457       -19.0876
  35   2.0000      -0.684227       -18.6188
  36   2.0000      -0.646509       -17.5924
  37   2.0000      -0.619388       -16.8544
  38   2.0000      -0.602120       -16.3845
  39   2.0000      -0.554683       -15.0937
  40   2.0000      -0.545630       -14.8474
  41   2.0000      -0.503264       -13.6945
  42   2.0000      -0.469071       -12.7641
  43   2.0000      -0.447655       -12.1813
  44   2.0000      -0.440201       -11.9785
  45   2.0000      -0.428398       -11.6573
  46   2.0000      -0.416693       -11.3388
  47   2.0000      -0.410576       -11.1723
  48   2.0000      -0.397173       -10.8076
  49   2.0000      -0.393448       -10.7063
  50   2.0000      -0.390432       -10.6242
  51   2.0000      -0.383519       -10.4361
  52   2.0000      -0.372135       -10.1263
  53   2.0000      -0.359214        -9.7747
  54   2.0000      -0.354084        -9.6351
  55   2.0000      -0.346748        -9.4355
  56   2.0000      -0.326034        -8.8718
  57   2.0000      -0.313772        -8.5382
  58   2.0000      -0.302773        -8.2389
  59   2.0000      -0.298254        -8.1159
  60   2.0000      -0.290686        -7.9100
  61   2.0000      -0.270490        -7.3604
  62   2.0000      -0.262176        -7.1342
  63   2.0000      -0.252629        -6.8744
  64   2.0000      -0.244025        -6.6402
  65   2.0000      -0.215118        -5.8537
  66   0.0000      -0.067093        -1.8257
  67   0.0000      -0.030553        -0.8314
  68   0.0000      -0.025178        -0.6851
  69   0.0000       0.056586         1.5398
  70   0.0000       0.076940         2.0936

MULLIKEN ATOMIC CHARGES
-----------------------
   0 C :   -0.533045
   1 C :   -0.317120
   2 C :   -0.027401
   3 H :    0.209746
   4 C :   -0.561563
   5 N :    0.181546
   6 C :    0.203399
   7 O :   -0.505813
   8 C :   -0.150409
   9 C :    0.240035
  10 N :   -0.026592
  11 C :    0.240438
  12 O :   -0.523349
  13 C :   -0.614839
  14 Br:   -0.111697
  15 H :    0.169898
  16 H :    0.158742
  17 H :    0.166188
  18 H :    0.168960
  19 H :    0.160689
  20 H :    0.174389
  21 H :    0.171757
  22 H :    0.191036
  23 H :    0.336524
  24 H :    0.201622
  25 H :    0.215507
  26 H :    0.181350
Sum of atomic charges:   -0.0000000

LOEWDIN ATOMIC CHARGES
----------------------
   0 C :   -0.421547
   1 C :   -0.264864
   2 C :    0.045180
   3 H :    0.224086
   4 C :   -0.370707
   5 N :   -0.605284
   6 C :    0.357078
   7 O :   -0.541464
   8 C :   -0.205437
   9 C :    0.182653
  10 N :   -0.480433
  11 C :    0.466872
  12 O :   -0.478261
  13 C :   -0.344620
  14 Br:    0.236575
  15 H :    0.164882
  16 H :    0.153858
  17 H :    0.156527
  18 H :    0.166892
  19 H :    0.167908
  20 H :    0.166697
  21 H :    0.166255
  22 H :    0.178818
  23 H :    0.317502
  24 H :    0.190062
  25 H :    0.194209
  26 H :    0.176561

  Mayer bond orders larger than 0.100000
B(  0-C ,  1-C ) :   0.8803 B(  0-C , 15-H ) :   0.9752 B(  0-C , 16-H ) :   0.9648
B(  0-C , 17-H ) :   0.9764 B(  1-C ,  2-C ) :   0.8811 B(  1-C , 18-H ) :   0.9749
B(  1-C , 19-H ) :   0.9798 B(  2-C ,  3-H ) :   0.9529 B(  2-C ,  4-C ) :   0.8422
B(  2-C ,  5-N ) :   0.8324 B(  4-C , 20-H ) :   0.9635 B(  4-C , 21-H ) :   0.9739
B(  4-C , 22-H ) :   0.9705 B(  5-N ,  6-C ) :   1.0932 B(  5-N , 11-C ) :   1.1725
B(  6-C ,  7-O ) :   1.8703 B(  6-C ,  8-C ) :   0.9923 B(  8-C ,  9-C ) :   1.4496
B(  8-C , 14-Br) :   1.1318 B(  9-C , 10-N ) :   1.1635 B(  9-C , 13-C ) :   0.8582
B( 10-N , 11-C ) :   1.0546 B( 10-N , 23-H ) :   0.8802 B( 11-C , 12-O ) :   1.8246
B( 13-C , 24-H ) :   0.9557 B( 13-C , 25-H ) :   0.9381 B( 13-C , 26-H ) :   0.9657

Dispersion correction           -0.011449556
FINAL SINGLE POINT ENERGY     -3184.798635124691

DIPOLE MOMENT
-------------

Method             : SCF
Type of density    : Electron Density
Multiplicity       :   1
Irrep              :   0
Energy             : -3184.8088213013843415 Eh
Relativity type    :
Basis              : AO
                                X                 Y                 Z
Electronic contribution:     49.958131333      -6.010663121       4.216944295
Nuclear contribution   :    -49.467926287       8.276800551      -4.525107963
                        -----------------------------------------
Total Dipole Moment    :      0.490205046       2.266137430      -0.308163668
                        -----------------------------------------
Magnitude (a.u.)       :      2.338940932
Magnitude (Debye)      :      5.945115384

Rotational constants in cm-1:             0.032196             0.010613             0.008786
Rotational constants in MHz :           965.202603           318.181344           263.400816

                             ****ORCA TERMINATED NORMALLY****
TOTAL RUN TIME: 0 days 0 hours 1 minutes 43 seconds 184 msec
