                         Program Version 6.0.0  -   RELEASE  -
|  1> ! pbe def2-sv(p) def2/J RI DEFGRID1 loosescf d4 GCP(DFT/SV(P)) printgap
|  2> %output
|  3>     printlevel normal
|  4> end
|  5> * xyz 0 1
|  6> C -2.2322024352 1.081569088 0.3112832899
|  7> C -1.8314201869 -0.3663323386 0.0554574395
|  8> C -0.555805964 -0.5478177112 -0.7736040267
|  9> C 0.7774863621 -0.1465412511 -0.0899283507
| 10> C 1.0996295989 1.3366842015 -0.291740523
| 11> C 1.9135202111 -0.9802275874 -0.7012746591
| 12> O 0.727807422 -0.3604247834 1.3165576488
| 13> H -3.237470963 1.119538511 0.7256560934
| 14> H -2.2193725329 1.6553444483 -0.6126587223
| 15> H -1.5587036698 1.545440037 1.0265121765
| 16> H -1.7159709769 -0.8719698176 1.0155754432
| 17> H -2.6410905955 -0.8633494613 -0.4848825062
| 18> H -0.4937963867 -1.6065829128 -1.0389958253
| 19> H -0.6462365792 0.0173592394 -1.7020879819
| 20> H 0.3311965758 1.9614831476 0.1481326822
| 21> H 1.180912735 1.5614947508 -1.3507359286
| 22> H 2.0441073358 1.5672893812 0.1952549576
| 23> H 1.7437532114 -2.0427398208 -0.5365030779
| 24> H 2.8618912529 -0.7055829452 -0.2450734321
| 25> H 1.9736240492 -0.8016389771 -1.7709213865
| 26> H 0.700545389 -1.3113442497 1.4855121014
| 27> *
| 28>
| 29>                          ****END OF INPUT****

CARTESIAN COORDINATES (ANGSTROEM)
---------------------------------
  C     -2.232202    1.081569    0.311283
  C     -1.831420   -0.366332    0.055457
  C     -0.555806   -0.547818   -0.773604
  C      0.777486   -0.146541   -0.089928
  C      1.099630    1.336684   -0.291741
  C      1.913520   -0.980228   -0.701275
  O      0.727807   -0.360425    1.316558
  H     -3.237471    1.119539    0.725656
  H     -2.219373    1.655344   -0.612659
  H     -1.558704    1.545440    1.026512
  H     -1.715971   -0.871970    1.015575
  H     -2.641091   -0.863349   -0.484883
  H     -0.493796   -1.606583   -1.038996
  H     -0.646237    0.017359   -1.702088
  H      0.331197    1.961483    0.148133
  H      1.180913    1.561495   -1.350736
  H      2.044107    1.567289    0.195255
  H      1.743753   -2.042740   -0.536503
  H      2.861891   -0.705583   -0.245073
  H      1.973624   -0.801639   -1.770921
  H      0.700545   -1.311344    1.485512

 Total Charge           Charge          ....    0
 Multiplicity           Mult            ....    1
 Number of Electrons    NEL             ....   58
 Basis Dimension        Dim             ....  126

ORBITAL ENERGIES
----------------

  NO   OCC          E(Eh)            E(eV)
   0   2.0000     -18.739452      -509.9264
   1   2.0000      -9.945766      -270.6381
   2   2.0000      -9.879193      -268.8265
   3   2.0000      -9.878541      -268.8088
   4   2.0000      -9.874183      -268.6902
   5   2.0000      -9.868074      -268.5240
   6   2.0000      -9.866401      -268.4784
   7   2.0000      -0.918290       -24.9879
   8   2.0000      -0.718160       -19.5421
   9   2.0000      -0.680213       -18.5095
  10   2.0000      -0.617357       -16.7991
  11   2.0000      -0.605332       -16.4719
  12   2.0000      -0.526781       -14.3344
  13   2.0000      -0.505486       -13.7550
  14   2.0000      -0.429929       -11.6990
  15   2.0000      -0.416578       -11.3357
  16   2.0000      -0.406566       -11.0632
  17   2.0000      -0.376675       -10.2498
  18   2.0000      -0.374321       -10.1858
  19   2.0000      -0.348529        -9.4839
  20   2.0000      -0.338325        -9.2063
  21   2.0000      -0.335585        -9.1317
  22   2.0000      -0.326527        -8.8852
  23   2.0000      -0.311437        -8.4746
  24   2.0000      -0.292775        -7.9668
  25   2.0000      -0.284830        -7.7506
  26   2.0000      -0.274403        -7.4669
  27   2.0000      -0.261121        -7.1055
  28   2.0000      -0.212622        -5.7857
  29   0.0000       0.018633         0.5070
  30   0.0000       0.060233         1.6390
  31   0.0000       0.064347         1.7510
  32   0.0000       0.074151         2.0178
  33   0.0000       0.080211         2.1827

MULLIKEN ATOMIC CHARGES
-----------------------
   0 C :   -0.293870
   1 C :   -0.144439
   2 C :   -0.142671
   3 C :   -0.041837
   4 C :   -0.213448
   5 C :   -0.230872
   6 O :   -0.418080
   7 H :    0.096730
   8 H :    0.093364
   9 H :    0.127491
  10 H :    0.069441
  11 H :    0.079088
  12 H :    0.064804
  13 H :    0.076021
  14 H :    0.106579
  15 H :    0.092761
  16 H :    0.098643
  17 H :    0.086276
  18 H :    0.103049
  19 H :    0.097106
  20 H :    0.293864
Sum of atomic charges:    0.0000000

LOEWDIN ATOMIC CHARGES
----------------------
   0 C :   -0.344942
   1 C :   -0.233239
   2 C :   -0.231832
   3 C :   -0.013978
   4 C :   -0.327363
   5 C :   -0.338015
   6 O :   -0.315882
   7 H :    0.118180
   8 H :    0.113868
   9 H :    0.121154
  10 H :    0.110545
  11 H :    0.114235
  12 H :    0.111376
  13 H :    0.118076
  14 H :    0.123020
  15 H :    0.120081
  16 H :    0.121490
  17 H :    0.110380
  18 H :    0.119677
  19 H :    0.122793
  20 H :    0.280374

  Mayer bond orders larger than 0.100000
B(  0-C ,  1-C ) :   1.1607 B(  0-C ,  7-H ) :   0.9471 B(  0-C ,  8-H ) :   0.9535
B(  0-C ,  9-H ) :   0.9401 B(  1-C ,  2-C ) :   1.1399 B(  1-C , 10-H ) :   0.9106
B(  1-C , 11-H ) :   0.9244 B(  2-C ,  3-C ) :   1.0119 B(  2-C , 12-H ) :   0.9118
B(  2-C , 13-H ) :   0.9096 B(  3-C ,  4-C ) :   1.0892 B(  3-C ,  5-C ) :   1.0935
B(  3-C ,  6-O ) :   1.0319 B(  4-C , 14-H ) :   0.9334 B(  4-C , 15-H ) :   0.9445
B(  4-C , 16-H ) :   0.9404 B(  5-C , 17-H ) :   0.9358 B(  5-C , 18-H ) :   0.9435
B(  5-C , 19-H ) :   0.9409 B(  6-O , 20-H ) :   0.8497

Dispersion correction           -0.017123137
FINAL SINGLE POINT ENERGY      -311.518189377902

DIPOLE MOMENT
-------------

Method             : SCF
Type of density    : Electron Density
Multiplicity       :   1
Irrep              :   0
Energy             :  -311.5973896832152832 Eh
Relativity type    :
Basis              : AO
                                X                 Y                 Z
Electronic contribution:      1.586381204      -1.584754256       2.623528185
Nuclear contribution   :     -1.562134243       1.143658688      -2.931187708
                        -----------------------------------------
Total Dipole Moment    :      0.024246962      -0.441095567      -0.307659523
                        -----------------------------------------
Magnitude (a.u.)       :      0.538337809
Magnitude (Debye)      :      1.368345966

Rotational constants in cm-1:             0.130361             0.057385             0.054117
Rotational constants in MHz :          3908.113487          1720.345764          1622.372855

                             ****ORCA TERMINATED NORMALLY****
TOTAL RUN TIME: 0 days 0 hours 0 minutes 8 seconds 466 msec
