                         Program Version 6.0.0  -   RELEASE  -
|  1> ! r2scan-3c def2/J RI DEFGRID2 scfconv6 printgap
|  2> %output
|  3>     printlevel normal
|  4> end
|  5> * xyz 0 1
|  6> C 1.9654637804 -1.0372921155 0.2258165171
|  7> C 1.2400236883 0.1234352832 0.9022654654
|  8> C 0.1787847559 0.8328628051 0.0386301743
|  9> H -0.0457845651 1.790876024 0.5431898594
| 10> C -1.1823994117 0.1282444959 -0.1349048244
| 11> C -1.0954492322 -1.2346108312 -0.816091932
| 12> C -1.9350261444 0.0222488115 1.188712567
| 13> O 0.6682377742 1.114893362 -1.2630504781
| 14> H 1.3692662529 -1.9432269644 0.2322591506
| 15> H 2.897405757 -1.2423400088 0.7475147386
| 16> H 2.1943352333 -0.7887505249 -0.807548982
| 17> H 0.7711119855 -0.2103901277 1.8270298137
| 18> H 1.9838783254 0.8786550188 1.1722345555
| 19> H -1.7467242308 0.7920256006 -0.8015467257
| 20> H -2.0828594335 -1.534879368 -1.1593620468
| 21> H -0.4322564674 -1.1809397365 -1.6746169171
| 22> H -0.733275458 -1.9920132884 -0.1272330224
| 23> H -1.4384431909 -0.6711712291 1.8627293918
| 24> H -2.9421352414 -0.3442799501 1.0082457558
| 25> H -2.0029704166 0.9921615763 1.6758838699
| 26> H 1.4751861935 1.6409283832 -1.1854889327
| 27> *
| 28>
| 29>                          ****END OF INPUT****

CARTESIAN COORDINATES (ANGSTROEM)
---------------------------------
  C      1.965464   -1.037292    0.225817
  C      1.240024    0.123435    0.902265
  C      0.178785    0.832863    0.038630
  H     -0.045785    1.790876    0.543190
  C     -1.182399    0.128244   -0.134905
  C     -1.095449   -1.234611   -0.816092
  C     -1.935026    0.022249    1.188713
  O      0.668238    1.114893   -1.263050
  H      1.369266   -1.943227    0.232259
  H      2.897406   -1.242340    0.747515
  H      2.194335   -0.788751   -0.807549
  H      0.771112   -0.210390    1.827030
  H      1.983878    0.878655    1.172235
  H     -1.746724    0.792026   -0.801547
  H     -2.082859   -1.534879   -1.159362
  H     -0.432256   -1.180940   -1.674617
  H     -0.733275   -1.992013   -0.127233
  H     -1.438443   -0.671171    1.862729
  H     -2.942135   -0.344280    1.008246
  H     -2.002970    0.992162    1.675884
  H      1.475186    1.640928   -1.185489

 Total Charge           Charge          ....    0
 Multiplicity           Mult            ....    1
 Number of Electrons    NEL             ....   58
 Basis Dimension        Dim             ....  208

ORBITAL ENERGIES
----------------

  NO   OCC          E(Eh)            E(eV)
   0   2.0000     -18.945565      -515.5350
   1   2.0000     -10.076987      -274.2088
   2   2.0000     -10.030426      -272.9418
   3   2.0000     -10.026853      -272.8445
   4   2.0000     -10.016850      -272.5723
   5   2.0000     -10.012473      -272.4532
   6   2.0000     -10.008302      -272.3397
   7   2.0000      -0.983915       -26.7737
   8   2.0000      -0.770564       -20.9681
   9   2.0000      -0.725558       -19.7434
  10   2.0000      -0.649791       -17.6817
  11   2.0000      -0.639906       -17.4127
  12   2.0000      -0.575441       -15.6585
  13   2.0000      -0.508118       -13.8266
  14   2.0000      -0.465819       -12.6756
  15   2.0000      -0.447580       -12.1793
  16   2.0000      -0.425153       -11.5690
  17   2.0000      -0.399240       -10.8639
  18   2.0000      -0.387791       -10.5523
  19   2.0000      -0.361450        -9.8355
  20   2.0000      -0.350493        -9.5374
  21   2.0000      -0.341404        -9.2901
  22   2.0000      -0.333666        -9.0795
  23   2.0000      -0.328498        -8.9389
  24   2.0000      -0.303119        -8.2483
  25   2.0000      -0.300722        -8.1831
  26   2.0000      -0.292173        -7.9504
  27   2.0000      -0.266674        -7.2566
  28   2.0000      -0.233089        -6.3427
  29   0.0000       0.057450         1.5633
  30   0.0000       0.091216         2.4821
  31   0.0000       0.112378         3.0580
  32   0.0000       0.122437         3.3317
  33   0.0000       0.128693         3.5019

MULLIKEN ATOMIC CHARGES
-----------------------
   0 C :   -0.470320
   1 C :   -0.315211
   2 C :    0.053482
   3 H :    0.126828
   4 C :    0.016875
   5 C :   -0.565865
   6 C :   -0.516258
   7 O :   -0.439412
   8 H :    0.142932
   9 H :    0.144615
  10 H :    0.169676
  11 H :    0.147380
  12 H :    0.145092
  13 H :    0.152602
  14 H :    0.148087
  15 H :    0.178369
  16 H :    0.144571
  17 H :    0.152202
  18 H :    0.149073
  19 H :    0.147334
  20 H :    0.287947
Sum of atomic charges:    0.0000000

LOEWDIN ATOMIC CHARGES
----------------------
   0 C :   -0.419819
   1 C :   -0.294843
   2 C :    0.058507
   3 H :    0.165857
   4 C :   -0.210255
   5 C :   -0.408081
   6 C :   -0.413492
   7 O :   -0.627885
   8 H :    0.151269
   9 H :    0.148599
  10 H :    0.163057
  11 H :    0.162119
  12 H :    0.154397
  13 H :    0.169583
  14 H :    0.152888
  15 H :    0.167843
  16 H :    0.149517
  17 H :    0.151226
  18 H :    0.156296
  19 H :    0.154160
  20 H :    0.269056

  Mayer bond orders larger than 0.100000
B(  0-C ,  1-C ) :   0.8802 B(  0-C ,  8-H ) :   0.9674 B(  0-C ,  9-H ) :   0.9722
B(  0-C , 10-H ) :   0.9872 B(  1-C ,  2-C ) :   0.9056 B(  1-C , 11-H ) :   0.9708
B(  1-C , 12-H ) :   0.9737 B(  2-C ,  3-H ) :   0.9633 B(  2-C ,  4-C ) :   0.9389
B(  2-C ,  7-O ) :   0.8949 B(  4-C ,  5-C ) :   0.8751 B(  4-C ,  6-C ) :   0.8990
B(  4-C , 13-H ) :   0.9538 B(  5-C , 14-H ) :   0.9668 B(  5-C , 15-H ) :   0.9687
B(  5-C , 16-H ) :   0.9858 B(  6-C , 17-H ) :   0.9835 B(  6-C , 18-H ) :   0.9679
B(  6-C , 19-H ) :   0.9757 B(  7-O , 20-H ) :   0.9007

Dispersion correction           -0.005865377
FINAL SINGLE POINT ENERGY      -312.198133957997

DIPOLE MOMENT
-------------

Method             : SCF
Type of density    : Electron Density
Multiplicity       :   1
Irrep              :   0
Energy             :  -312.2036556456561698 Eh
Relativity type    :
Basis              : AO
                                X                 Y                 Z
Electronic contribution:      0.909408304       3.758403564      -2.658971840
Nuclear contribution   :     -0.678005568      -3.560995011       3.089663729
                        -----------------------------------------
Total Dipole Moment    :      0.231402736       0.197408553       0.430691889
                        -----------------------------------------
Magnitude (a.u.)       :      0.527269254
Magnitude (Debye)      :      1.340211936

Rotational constants in cm-1:             0.103914             0.063016             0.059217
Rotational constants in MHz :          3115.250795          1889.167574          1775.274754

                             ****ORCA TERMINATED NORMALLY****
TOTAL RUN TIME: 0 days 0 hours 0 minutes 27 seconds 809 msec
