                         Program Version 6.0.0  -   RELEASE  -
|  1> ! r2scan-3c def2/J RI DEFGRID2 scfconv6 printgap
|  2> %output
|  3>     printlevel normal
|  4> end
|  5> %cpcm
|  6>     smd true
|  7>     smdsolvent "water"
|  8> end
|  9> * xyz 0 1
| 10> C 1.9654637804 -1.0372921155 0.2258165171
| 11> C 1.2400236883 0.1234352832 0.9022654654
| 12> C 0.1787847559 0.8328628051 0.0386301743
| 13> H -0.0457845651 1.790876024 0.5431898594
| 14> C -1.1823994117 0.1282444959 -0.1349048244
| 15> C -1.0954492322 -1.2346108312 -0.816091932
| 16> C -1.9350261444 0.0222488115 1.188712567
| 17> O 0.6682377742 1.114893362 -1.2630504781
| 18> H 1.3692662529 -1.9432269644 0.2322591506
| 19> H 2.897405757 -1.2423400088 0.7475147386
| 20> H 2.1943352333 -0.7887505249 -0.807548982
| 21> H 0.7711119855 -0.2103901277 1.8270298137
| 22> H 1.9838783254 0.8786550188 1.1722345555
| 23> H -1.7467242308 0.7920256006 -0.8015467257
| 24> H -2.0828594335 -1.534879368 -1.1593620468
| 25> H -0.4322564674 -1.1809397365 -1.6746169171
| 26> H -0.733275458 -1.9920132884 -0.1272330224
| 27> H -1.4384431909 -0.6711712291 1.8627293918
| 28> H -2.9421352414 -0.3442799501 1.0082457558
| 29> H -2.0029704166 0.9921615763 1.6758838699
| 30> H 1.4751861935 1.6409283832 -1.1854889327
| 31> *
| 32>
| 33>                          ****END OF INPUT****

CARTESIAN COORDINATES (ANGSTROEM)
---------------------------------
  C      1.965464   -1.037292    0.225817
  C      1.240024    0.123435    0.902265
  C      0.178785    0.832863    0.038630
  H     -0.045785    1.790876    0.543190
  C     -1.182399    0.128244   -0.134905
  C     -1.095449   -1.234611   -0.816092
  C     -1.935026    0.022249    1.188713
  O      0.668238    1.114893   -1.263050
  H      1.369266   -1.943227    0.232259
  H      2.897406   -1.242340    0.747515
  H      2.194335   -0.788751   -0.807549
  H      0.771112   -0.210390    1.827030
  H      1.983878    0.878655    1.172235
  H     -1.746724    0.792026   -0.801547
  H     -2.082859   -1.534879   -1.159362
  H     -0.432256   -1.180940   -1.674617
  H     -0.733275   -1.992013   -0.127233
  H     -1.438443   -0.671171    1.862729
  H     -2.942135   -0.344280    1.008246
  H     -2.002970    0.992162    1.675884
  H      1.475186    1.640928   -1.185489

 Total Charge           Charge          ....    0
 Multiplicity           Mult            ....    1
 Number of Electrons    NEL             ....   58
 Basis Dimension        Dim             ....  208

ORBITAL ENERGIES
----------------

  NO   OCC          E(Eh)            E(eV)
   0   2.0000     -18.946806      -515.5688
   1   2.0000     -10.071177      -274.0507
   2   2.0000     -10.025992      -272.8211
   3   2.0000     -10.016765      -272.5700
   4   2.0000     -10.008371      -272.3416
   5   2.0000     -10.005983      -272.2766
   6   2.0000     -10.005327      -272.2588
   7   2.0000      -0.984081       -26.7782
   8   2.0000      -0.765079       -20.8189
   9   2.0000      -0.718204       -19.5433
  10   2.0000      -0.645486       -17.5646
  11   2.0000      -0.633825       -17.2472
  12   2.0000      -0.569266       -15.4905
  13   2.0000      -0.503576       -13.7030
  14   2.0000      -0.461041       -12.5456
  15   2.0000      -0.440973       -11.9995
  16   2.0000      -0.419942       -11.4272
  17   2.0000      -0.395234       -10.7549
  18   2.0000      -0.380112       -10.3434
  19   2.0000      -0.356003        -9.6873
  20   2.0000      -0.345796        -9.4096
  21   2.0000      -0.340079        -9.2540
  22   2.0000      -0.327658        -8.9160
  23   2.0000      -0.321565        -8.7502
  24   2.0000      -0.298458        -8.1215
  25   2.0000      -0.296268        -8.0619
  26   2.0000      -0.288277        -7.8444
  27   2.0000      -0.261390        -7.1128
  28   2.0000      -0.234394        -6.3782
  29   0.0000       0.073355         1.9961
  30   0.0000       0.101353         2.7579
  31   0.0000       0.121354         3.3022
  32   0.0000       0.129538         3.5249
  33   0.0000       0.135350         3.6831

MULLIKEN ATOMIC CHARGES
-----------------------
   0 C :   -0.527165
   1 C :   -0.305032
   2 C :    0.057535
   3 H :    0.140530
   4 C :    0.022818
   5 C :   -0.591111
   6 C :   -0.560306
   7 O :   -0.521204
   8 H :    0.157571
   9 H :    0.157065
  10 H :    0.168793
  11 H :    0.159625
  12 H :    0.161412
  13 H :    0.154531
  14 H :    0.162096
  15 H :    0.165558
  16 H :    0.166400
  17 H :    0.169475
  18 H :    0.160199
  19 H :    0.159886
  20 H :    0.341323
Sum of atomic charges:    0.0000000

LOEWDIN ATOMIC CHARGES
----------------------
   0 C :   -0.427626
   1 C :   -0.292285
   2 C :    0.060148
   3 H :    0.173095
   4 C :   -0.211539
   5 C :   -0.416817
   6 C :   -0.419405
   7 O :   -0.661689
   8 H :    0.153473
   9 H :    0.152396
  10 H :    0.159757
  11 H :    0.166647
  12 H :    0.161474
  13 H :    0.167691
  14 H :    0.156203
  15 H :    0.161682
  16 H :    0.156405
  17 H :    0.156632
  18 H :    0.158646
  19 H :    0.157941
  20 H :    0.287173

  Mayer bond orders larger than 0.100000
B(  0-C ,  1-C ) :   0.8601 B(  0-C ,  8-H ) :   0.9682 B(  0-C ,  9-H ) :   0.9685
B(  0-C , 10-H ) :   0.9895 B(  1-C ,  2-C ) :   0.9175 B(  1-C , 11-H ) :   0.9688
B(  1-C , 12-H ) :   0.9696 B(  2-C ,  3-H ) :   0.9602 B(  2-C ,  4-C ) :   0.9264
B(  2-C ,  7-O ) :   0.8835 B(  4-C ,  5-C ) :   0.8613 B(  4-C ,  6-C ) :   0.8986
B(  4-C , 13-H ) :   0.9596 B(  5-C , 14-H ) :   0.9658 B(  5-C , 15-H ) :   0.9698
B(  5-C , 16-H ) :   0.9814 B(  6-C , 17-H ) :   0.9807 B(  6-C , 18-H ) :   0.9655
B(  6-C , 19-H ) :   0.9723 B(  7-O , 20-H ) :   0.8755

Dispersion correction           -0.005865377
FINAL SINGLE POINT ENERGY      -312.203098724318

DIPOLE MOMENT
-------------

Method             : SCF
Type of density    : Electron Density
Multiplicity       :   1
Irrep              :   0
Energy             :  -312.2086204119775630 Eh
Relativity type    :
Basis              : AO
                                X                 Y                 Z
Electronic contribution:      1.014837169       3.838356503      -2.360298544
Nuclear contribution   :     -0.678005568      -3.560995011       3.089663729
                        -----------------------------------------
Total Dipole Moment    :      0.336831601       0.277361492       0.729365185
                        -----------------------------------------
Magnitude (a.u.)       :      0.849916760
Magnitude (Debye)      :      2.160316720

Rotational constants in cm-1:             0.103914             0.063016             0.059217
Rotational constants in MHz :          3115.250795          1889.167574          1775.274754

                             ****ORCA TERMINATED NORMALLY****
TOTAL RUN TIME: 0 days 0 hours 0 minutes 33 seconds 114 msec
