                         Program Version 6.0.0  -   RELEASE  -
|  1> ! pbe def2-sv(p) def2/J RI DEFGRID1 loosescf d4 GCP(DFT/SV(P)) printgap
|  2> %output
|  3>     printlevel normal
|  4> end
|  5> * xyz 0 1
|  6> C 2.7914573099 -0.1430039683 -0.2666774163
|  7> C 1.3643677881 -0.0748768066 -0.8024169788
|  8> C 0.3087088042 -0.200520425 0.3063435029
|  9> H 0.6046988895 -1.0285508308 0.9741610375
| 10> C -1.0897154057 -0.5349915823 -0.2491517074
| 11> C -2.0535671808 -0.802018204 0.9061660103
| 12> C -1.6259511828 0.5861198152 -1.136296033
| 13> O 0.2032921065 0.990115106 1.0682121964
| 14> H 3.0035687109 0.6890552491 0.4007962682
| 15> H 3.5002204771 -0.1001171717 -1.0896358403
| 16> H 2.9510408703 -1.0725665687 0.2758950493
| 17> H 1.2140241708 0.8730997062 -1.3207551367
| 18> H 1.210778146 -0.8845063644 -1.5171906017
| 19> H -0.9935208247 -1.4497277923 -0.8442190771
| 20> H -2.1263969695 0.0830116485 1.5330686317
| 21> H -3.0420168156 -1.0462108304 0.5260189079
| 22> H -1.7012603342 -1.6309341869 1.5160552505
| 23> H -1.6118086101 1.5235771024 -0.5863979146
| 24> H -2.6491036954 0.3692925467 -1.4322916095
| 25> H -1.0246034705 0.6955603093 -2.0344492249
| 26> H 1.0683861775 1.1962099877 1.4432736677
| 27> *
| 28>
| 29>                          ****END OF INPUT****

CARTESIAN COORDINATES (ANGSTROEM)
---------------------------------
  C      2.791457   -0.143004   -0.266677
  C      1.364368   -0.074877   -0.802417
  C      0.308709   -0.200520    0.306344
  H      0.604699   -1.028551    0.974161
  C     -1.089715   -0.534992   -0.249152
  C     -2.053567   -0.802018    0.906166
  C     -1.625951    0.586120   -1.136296
  O      0.203292    0.990115    1.068212
  H      3.003569    0.689055    0.400796
  H      3.500220   -0.100117   -1.089636
  H      2.951041   -1.072567    0.275895
  H      1.214024    0.873100   -1.320755
  H      1.210778   -0.884506   -1.517191
  H     -0.993521   -1.449728   -0.844219
  H     -2.126397    0.083012    1.533069
  H     -3.042017   -1.046211    0.526019
  H     -1.701260   -1.630934    1.516055
  H     -1.611809    1.523577   -0.586398
  H     -2.649104    0.369293   -1.432292
  H     -1.024603    0.695560   -2.034449
  H      1.068386    1.196210    1.443274

 Total Charge           Charge          ....    0
 Multiplicity           Mult            ....    1
 Number of Electrons    NEL             ....   58
 Basis Dimension        Dim             ....  126

ORBITAL ENERGIES
----------------

  NO   OCC          E(Eh)            E(eV)
   0   2.0000     -18.741065      -509.9703
   1   2.0000      -9.931784      -270.2576
   2   2.0000      -9.888230      -269.0724
   3   2.0000      -9.882621      -268.9198
   4   2.0000      -9.881813      -268.8978
   5   2.0000      -9.862488      -268.3719
   6   2.0000      -9.861769      -268.3524
   7   2.0000      -0.919062       -25.0090
   8   2.0000      -0.721473       -19.6323
   9   2.0000      -0.687934       -18.7196
  10   2.0000      -0.602181       -16.3862
  11   2.0000      -0.601167       -16.3586
  12   2.0000      -0.532804       -14.4983
  13   2.0000      -0.494572       -13.4580
  14   2.0000      -0.459832       -12.5127
  15   2.0000      -0.412127       -11.2145
  16   2.0000      -0.392343       -10.6762
  17   2.0000      -0.385552       -10.4914
  18   2.0000      -0.381409       -10.3787
  19   2.0000      -0.347701        -9.4614
  20   2.0000      -0.334002        -9.0887
  21   2.0000      -0.327467        -8.9108
  22   2.0000      -0.318685        -8.6719
  23   2.0000      -0.311269        -8.4701
  24   2.0000      -0.297901        -8.1063
  25   2.0000      -0.281426        -7.6580
  26   2.0000      -0.279117        -7.5952
  27   2.0000      -0.257346        -7.0027
  28   2.0000      -0.211672        -5.7599
  29   0.0000       0.018188         0.4949
  30   0.0000       0.051305         1.3961
  31   0.0000       0.065720         1.7883
  32   0.0000       0.068992         1.8774
  33   0.0000       0.089617         2.4386

MULLIKEN ATOMIC CHARGES
-----------------------
   0 C :   -0.272861
   1 C :   -0.170094
   2 C :    0.040180
   3 H :    0.046732
   4 C :   -0.158144
   5 C :   -0.232581
   6 C :   -0.256762
   7 O :   -0.425102
   8 H :    0.083672
   9 H :    0.109539
  10 H :    0.101863
  11 H :    0.096503
  12 H :    0.080650
  13 H :    0.067149
  14 H :    0.107651
  15 H :    0.093877
  16 H :    0.086555
  17 H :    0.111494
  18 H :    0.094045
  19 H :    0.097921
  20 H :    0.297715
Sum of atomic charges:    0.0000000

LOEWDIN ATOMIC CHARGES
----------------------
   0 C :   -0.343729
   1 C :   -0.249839
   2 C :   -0.043360
   3 H :    0.092049
   4 C :   -0.158727
   5 C :   -0.330882
   6 C :   -0.332726
   7 O :   -0.325068
   8 H :    0.108196
   9 H :    0.123772
  10 H :    0.117806
  11 H :    0.120729
  12 H :    0.119780
  13 H :    0.114011
  14 H :    0.122864
  15 H :    0.114711
  16 H :    0.113406
  17 H :    0.123959
  18 H :    0.116358
  19 H :    0.114564
  20 H :    0.282126

  Mayer bond orders larger than 0.100000
B(  0-C ,  1-C ) :   1.1493 B(  0-C ,  8-H ) :   0.9452 B(  0-C ,  9-H ) :   0.9514
B(  0-C , 10-H ) :   0.9528 B(  1-C ,  2-C ) :   1.0710 B(  1-C , 11-H ) :   0.9067
B(  1-C , 12-H ) :   0.9105 B(  2-C ,  3-H ) :   0.9019 B(  2-C ,  4-C ) :   1.0309
B(  2-C ,  7-O ) :   1.0378 B(  4-C ,  5-C ) :   1.1182 B(  4-C ,  6-C ) :   1.1010
B(  4-C , 13-H ) :   0.9005 B(  5-C , 14-H ) :   0.9455 B(  5-C , 15-H ) :   0.9509
B(  5-C , 16-H ) :   0.9482 B(  6-C , 17-H ) :   0.9450 B(  6-C , 18-H ) :   0.9506
B(  6-C , 19-H ) :   0.9472 B(  7-O , 20-H ) :   0.8469

Dispersion correction           -0.016546499
FINAL SINGLE POINT ENERGY      -311.517821640542

DIPOLE MOMENT
-------------

Method             : SCF
Type of density    : Electron Density
Multiplicity       :   1
Irrep              :   0
Energy             :  -311.5978978322016246 Eh
Relativity type    :
Basis              : AO
                                X                 Y                 Z
Electronic contribution:      0.190600574       1.448116226       1.952784716
Nuclear contribution   :      0.382041392      -1.657870648      -2.006518473
                        -----------------------------------------
Total Dipole Moment    :      0.572641965      -0.209754421      -0.053733757
                        -----------------------------------------
Magnitude (a.u.)       :      0.612211609
Magnitude (Debye)      :      1.556118244

Rotational constants in cm-1:             0.141699             0.051790             0.047693
Rotational constants in MHz :          4248.042286          1552.625809          1429.796097

                             ****ORCA TERMINATED NORMALLY****
TOTAL RUN TIME: 0 days 0 hours 0 minutes 9 seconds 328 msec
