                         Program Version 6.0.0  -   RELEASE  -
|  1> ! pbe def2-sv(p) def2/J RI DEFGRID1 loosescf d4 GCP(DFT/SV(P)) printgap
|  2> %output
|  3>     printlevel normal
|  4> end
|  5> * xyz 0 1
|  6> C -2.2269543623 0.9127648058 0.1896772524
|  7> C -0.8561028191 0.6641292488 -0.4540332707
|  8> C -0.0317473809 -0.4083150567 0.2675555243
|  9> H -0.0593049598 -0.2036842607 1.3445770704
| 10> C -0.5855686422 -1.8076085208 0.0142504858
| 11> C 1.4315136225 -0.3410363203 -0.1916404725
| 12> O 2.0594792251 0.8868417709 0.1092546202
| 13> H -3.0306558801 0.7481091034 -0.5224458194
| 14> H -2.3881795624 0.2466240342 1.0334561753
| 15> H -2.3078083293 1.9332316073 0.5543567019
| 16> H -0.2752576324 1.588442189 -0.4597193863
| 17> H -0.9788828287 0.3576892454 -1.4943974708
| 18> H -1.629904826 -1.8633829811 0.3080428436
| 19> H -0.0278653053 -2.5502145236 0.5801916862
| 20> H -0.5122865822 -2.05422734 -1.0425986386
| 21> H 1.4835741711 -0.4325476243 -1.2796746242
| 22> H 1.997804455 -1.1723096534 0.2503455343
| 23> H 2.0742782682 1.0038523207 1.0693616061
| 24> *
| 25>
| 26>                          ****END OF INPUT****

CARTESIAN COORDINATES (ANGSTROEM)
---------------------------------
  C     -2.226954    0.912765    0.189677
  C     -0.856103    0.664129   -0.454033
  C     -0.031747   -0.408315    0.267556
  H     -0.059305   -0.203684    1.344577
  C     -0.585569   -1.807609    0.014250
  C      1.431514   -0.341036   -0.191640
  O      2.059479    0.886842    0.109255
  H     -3.030656    0.748109   -0.522446
  H     -2.388180    0.246624    1.033456
  H     -2.307808    1.933232    0.554357
  H     -0.275258    1.588442   -0.459719
  H     -0.978883    0.357689   -1.494397
  H     -1.629905   -1.863383    0.308043
  H     -0.027865   -2.550215    0.580192
  H     -0.512287   -2.054227   -1.042599
  H      1.483574   -0.432548   -1.279675
  H      1.997804   -1.172310    0.250346
  H      2.074278    1.003852    1.069362

 Total Charge           Charge          ....    0
 Multiplicity           Mult            ....    1
 Number of Electrons    NEL             ....   50
 Basis Dimension        Dim             ....  108

ORBITAL ENERGIES
----------------

  NO   OCC          E(Eh)            E(eV)
   0   2.0000     -18.740038      -509.9424
   1   2.0000      -9.924112      -270.0488
   2   2.0000      -9.892763      -269.1958
   3   2.0000      -9.876824      -268.7621
   4   2.0000      -9.876229      -268.7459
   5   2.0000      -9.871075      -268.6056
   6   2.0000      -0.916566       -24.9410
   7   2.0000      -0.727339       -19.7919
   8   2.0000      -0.653617       -17.7858
   9   2.0000      -0.601895       -16.3784
  10   2.0000      -0.557566       -15.1721
  11   2.0000      -0.507980       -13.8228
  12   2.0000      -0.447944       -12.1892
  13   2.0000      -0.415406       -11.3038
  14   2.0000      -0.401810       -10.9338
  15   2.0000      -0.379001       -10.3131
  16   2.0000      -0.362493        -9.8639
  17   2.0000      -0.345804        -9.4098
  18   2.0000      -0.338983        -9.2242
  19   2.0000      -0.317376        -8.6362
  20   2.0000      -0.300539        -8.1781
  21   2.0000      -0.283600        -7.7172
  22   2.0000      -0.280473        -7.6320
  23   2.0000      -0.261721        -7.1218
  24   2.0000      -0.211193        -5.7469
  25   0.0000       0.027750         0.7551
  26   0.0000       0.042895         1.1672
  27   0.0000       0.060986         1.6595
  28   0.0000       0.068938         1.8759
  29   0.0000       0.088878         2.4185

MULLIKEN ATOMIC CHARGES
-----------------------
   0 C :   -0.267617
   1 C :   -0.156530
   2 C :   -0.227440
   3 H :    0.059436
   4 C :   -0.251332
   5 C :    0.054919
   6 O :   -0.429176
   7 H :    0.100091
   8 H :    0.102838
   9 H :    0.100700
  10 H :    0.092515
  11 H :    0.078212
  12 H :    0.104683
  13 H :    0.099653
  14 H :    0.097035
  15 H :    0.077799
  16 H :    0.070855
  17 H :    0.293362
Sum of atomic charges:   -0.0000000

LOEWDIN ATOMIC CHARGES
----------------------
   0 C :   -0.345899
   1 C :   -0.231722
   2 C :   -0.176713
   3 H :    0.106109
   4 C :   -0.329605
   5 C :   -0.116741
   6 O :   -0.335703
   7 H :    0.120505
   8 H :    0.115911
   9 H :    0.120777
  10 H :    0.116835
  11 H :    0.114055
  12 H :    0.119936
  13 H :    0.117065
  14 H :    0.118676
  15 H :    0.112225
  16 H :    0.093240
  17 H :    0.281049

  Mayer bond orders larger than 0.100000
B(  0-C ,  1-C ) :   1.1243 B(  0-C ,  7-H ) :   0.9581 B(  0-C ,  8-H ) :   0.9552
B(  0-C ,  9-H ) :   0.9582 B(  1-C ,  2-C ) :   1.0808 B(  1-C , 10-H ) :   0.9221
B(  1-C , 11-H ) :   0.9312 B(  2-C ,  3-H ) :   0.8980 B(  2-C ,  4-C ) :   1.0930
B(  2-C ,  5-C ) :   1.0523 B(  4-C , 12-H ) :   0.9459 B(  4-C , 13-H ) :   0.9492
B(  4-C , 14-H ) :   0.9487 B(  5-C ,  6-O ) :   1.0651 B(  5-C , 15-H ) :   0.9191
B(  5-C , 16-H ) :   0.9290 B(  6-O , 17-H ) :   0.8536

Dispersion correction           -0.012830735
FINAL SINGLE POINT ENERGY      -272.297222502004

DIPOLE MOMENT
-------------

Method             : SCF
Type of density    : Electron Density
Multiplicity       :   1
Irrep              :   0
Energy             :  -272.3670969157491868 Eh
Relativity type    :
Basis              : AO
                                X                 Y                 Z
Electronic contribution:      5.067496498       1.940223728       0.148190336
Nuclear contribution   :     -5.274272325      -2.236947291       0.322000212
                        -----------------------------------------
Total Dipole Moment    :     -0.206775827      -0.296723563       0.470190549
                        -----------------------------------------
Magnitude (a.u.)       :      0.593194966
Magnitude (Debye)      :      1.507781779

Rotational constants in cm-1:             0.154253             0.078530             0.057250
Rotational constants in MHz :          4624.397084          2354.282857          1716.326128

                             ****ORCA TERMINATED NORMALLY****
TOTAL RUN TIME: 0 days 0 hours 0 minutes 7 seconds 746 msec
