                         Program Version 6.0.0  -   RELEASE  -
|  1> ! pbe def2-sv(p) def2/J RI DEFGRID1 loosescf d4 GCP(DFT/SV(P)) printgap
|  2> %output
|  3>     printlevel normal
|  4> end
|  5> * xyz 0 1
|  6> C -3.0119842375 0.2691247399 -0.1744333252
|  7> C -1.5749742629 0.1573641823 -0.6723779197
|  8> C -0.6038464963 0.0398935202 0.4980417923
|  9> C 0.8867480029 -0.0815693132 0.1363879492
| 10> C 1.3920562221 1.1568866553 -0.6111978631
| 11> C 1.1699063344 -1.342413586 -0.6870867811
| 12> O 1.542332373 -0.178284957 1.4028818773
| 13> H -3.282524884 -0.6083101504 0.4084316353
| 14> H -3.7001418 0.3519971548 -1.0120578617
| 15> H -3.1296043112 1.1470927622 0.4565471336
| 16> H -1.4899399006 -0.7192962277 -1.3156051632
| 17> H -1.3360134573 1.0400515075 -1.2667776076
| 18> H -0.7086139793 0.913197325 1.1461624695
| 19> H -0.8624671641 -0.8357040854 1.0981727706
| 20> H 0.9017311827 1.2468041439 -1.5750328535
| 21> H 2.4647205972 1.0813972839 -0.7782234996
| 22> H 1.1940803867 2.0512843857 -0.0254108561
| 23> H 0.8119733803 -2.2213302303 -0.1563619494
| 24> H 2.2401900176 -1.4485434806 -0.8526501207
| 25> H 0.6788790828 -1.2851418837 -1.653048698
| 26> H 2.4950437951 -0.2582690064 1.2589062847
| 27> *
| 28>
| 29>                          ****END OF INPUT****

CARTESIAN COORDINATES (ANGSTROEM)
---------------------------------
  C     -3.011984    0.269125   -0.174433
  C     -1.574974    0.157364   -0.672378
  C     -0.603846    0.039894    0.498042
  C      0.886748   -0.081569    0.136388
  C      1.392056    1.156887   -0.611198
  C      1.169906   -1.342414   -0.687087
  O      1.542332   -0.178285    1.402882
  H     -3.282525   -0.608310    0.408432
  H     -3.700142    0.351997   -1.012058
  H     -3.129604    1.147093    0.456547
  H     -1.489940   -0.719296   -1.315605
  H     -1.336013    1.040052   -1.266778
  H     -0.708614    0.913197    1.146162
  H     -0.862467   -0.835704    1.098173
  H      0.901731    1.246804   -1.575033
  H      2.464721    1.081397   -0.778223
  H      1.194080    2.051284   -0.025411
  H      0.811973   -2.221330   -0.156362
  H      2.240190   -1.448543   -0.852650
  H      0.678879   -1.285142   -1.653049
  H      2.495044   -0.258269    1.258906

 Total Charge           Charge          ....    0
 Multiplicity           Mult            ....    1
 Number of Electrons    NEL             ....   58
 Basis Dimension        Dim             ....  126

ORBITAL ENERGIES
----------------

  NO   OCC          E(Eh)            E(eV)
   0   2.0000     -18.733186      -509.7559
   1   2.0000      -9.943653      -270.5806
   2   2.0000      -9.883760      -268.9508
   3   2.0000      -9.875971      -268.7388
   4   2.0000      -9.872483      -268.6439
   5   2.0000      -9.872471      -268.6436
   6   2.0000      -9.871734      -268.6235
   7   2.0000      -0.912035       -24.8177
   8   2.0000      -0.723018       -19.6743
   9   2.0000      -0.678319       -18.4580
  10   2.0000      -0.616477       -16.7752
  11   2.0000      -0.607920       -16.5423
  12   2.0000      -0.541281       -14.7290
  13   2.0000      -0.488212       -13.2849
  14   2.0000      -0.431308       -11.7365
  15   2.0000      -0.420130       -11.4323
  16   2.0000      -0.410684       -11.1753
  17   2.0000      -0.383255       -10.4289
  18   2.0000      -0.363155        -9.8820
  19   2.0000      -0.362285        -9.8583
  20   2.0000      -0.348000        -9.4696
  21   2.0000      -0.326197        -8.8763
  22   2.0000      -0.321200        -8.7403
  23   2.0000      -0.303766        -8.2659
  24   2.0000      -0.296411        -8.0657
  25   2.0000      -0.291136        -7.9222
  26   2.0000      -0.282207        -7.6792
  27   2.0000      -0.259726        -7.0675
  28   2.0000      -0.208998        -5.6871
  29   0.0000       0.024015         0.6535
  30   0.0000       0.049331         1.3424
  31   0.0000       0.070273         1.9122
  32   0.0000       0.071694         1.9509
  33   0.0000       0.075659         2.0588

MULLIKEN ATOMIC CHARGES
-----------------------
   0 C :   -0.259515
   1 C :   -0.207165
   2 C :   -0.121301
   3 C :   -0.029569
   4 C :   -0.230467
   5 C :   -0.230014
   6 O :   -0.422307
   7 H :    0.098213
   8 H :    0.100523
   9 H :    0.098206
  10 H :    0.090080
  11 H :    0.089845
  12 H :    0.082004
  13 H :    0.081915
  14 H :    0.101840
  15 H :    0.081974
  16 H :    0.102180
  17 H :    0.102119
  18 H :    0.081785
  19 H :    0.101974
  20 H :    0.287680
Sum of atomic charges:    0.0000000

LOEWDIN ATOMIC CHARGES
----------------------
   0 C :   -0.336826
   1 C :   -0.236817
   2 C :   -0.216270
   3 C :   -0.014710
   4 C :   -0.338445
   5 C :   -0.338406
   6 O :   -0.324182
   7 H :    0.117415
   8 H :    0.117803
   9 H :    0.117405
  10 H :    0.114971
  11 H :    0.114887
  12 H :    0.118448
  13 H :    0.118442
  14 H :    0.120549
  15 H :    0.112611
  16 H :    0.121547
  17 H :    0.121556
  18 H :    0.112576
  19 H :    0.120577
  20 H :    0.276869

  Mayer bond orders larger than 0.100000
B(  0-C ,  1-C ) :   1.1559 B(  0-C ,  7-H ) :   0.9546 B(  0-C ,  8-H ) :   0.9531
B(  0-C ,  9-H ) :   0.9546 B(  1-C ,  2-C ) :   1.1171 B(  1-C , 10-H ) :   0.9172
B(  1-C , 11-H ) :   0.9175 B(  2-C ,  3-C ) :   1.0427 B(  2-C , 12-H ) :   0.9119
B(  2-C , 13-H ) :   0.9117 B(  3-C ,  4-C ) :   1.0822 B(  3-C ,  5-C ) :   1.0831
B(  3-C ,  6-O ) :   1.0272 B(  4-C , 14-H ) :   0.9319 B(  4-C , 15-H ) :   0.9404
B(  4-C , 16-H ) :   0.9438 B(  5-C , 17-H ) :   0.9439 B(  5-C , 18-H ) :   0.9404
B(  5-C , 19-H ) :   0.9315 B(  6-O , 20-H ) :   0.8539

Dispersion correction           -0.016509413
FINAL SINGLE POINT ENERGY      -311.521532327816

DIPOLE MOMENT
-------------

Method             : SCF
Type of density    : Electron Density
Multiplicity       :   1
Irrep              :   0
Energy             :  -311.6007460385275181 Eh
Relativity type    :
Basis              : AO
                                X                 Y                 Z
Electronic contribution:      3.739403311      -0.433683606       3.495704854
Nuclear contribution   :     -3.469599885       0.424433834      -3.982275515
                        -----------------------------------------
Total Dipole Moment    :      0.269803426      -0.009249772      -0.486570661
                        -----------------------------------------
Magnitude (a.u.)       :      0.556444476
Magnitude (Debye)      :      1.414369456

Rotational constants in cm-1:             0.140140             0.047416             0.046937
Rotational constants in MHz :          4201.286034          1421.488902          1407.148542

                             ****ORCA TERMINATED NORMALLY****
TOTAL RUN TIME: 0 days 0 hours 0 minutes 9 seconds 449 msec
