                         Program Version 6.0.0  -   RELEASE  -
|  1> ! wb97x-v def2-tzvp def2/J RIJCOSX DEFGRID2 scfconv7 GCP(DFT/TZ) printgap
|  2> %output
|  3>     printlevel normal
|  4> end
|  5> * xyz 0 1
|  6> C -2.558377444206844 -0.5428645580760764 0.35718991617904333
|  7> C -1.8221330532399853 0.6975817047077006 -0.14498941835125964
|  8> C -0.3911718415485527 0.4211209811764702 -0.6084206588039882
|  9> C 0.5280621228249032 -0.03733121530571988 0.5388035441547968
| 10> C 1.9028346280386206 -0.21577693888775615 0.10659524974764144
| 11> C 3.0375770543857152 -0.34951148075136224 -0.2846127375316443
| 12> H -2.5578079518202688 -1.3307494682803336 -0.40440788095179175
| 13> H -3.6005324889352495 -0.30752907343832403 0.595157179696386
| 14> H -2.1005757273466372 -0.9518597378976024 1.2633672334125003
| 15> H -2.376559406392291 1.1284048811767813 -0.9868399632722846
| 16> H -1.8041441257642306 1.4628224469918245 0.6417002203397709
| 17> H -0.39539842153340365 -0.3483686872582274 -1.3896084672385625
| 18> H 0.03301677982826955 1.3287135441406979 -1.0514065090332687
| 19> H 0.1663632703995264 -0.9811511947601514 0.9622962647991934
| 20> H 0.49870904755897205 0.7034208323357514 1.3479898541975295
| 21> H 4.0422300685452885 -0.4731316030039734 -0.6226310771551999
| 22> *
| 23>
| 24>                          ****END OF INPUT****

CARTESIAN COORDINATES (ANGSTROEM)
---------------------------------
  C     -2.558377   -0.542865    0.357190
  C     -1.822133    0.697582   -0.144989
  C     -0.391172    0.421121   -0.608421
  C      0.528062   -0.037331    0.538804
  C      1.902835   -0.215777    0.106595
  C      3.037577   -0.349511   -0.284613
  H     -2.557808   -1.330749   -0.404408
  H     -3.600532   -0.307529    0.595157
  H     -2.100576   -0.951860    1.263367
  H     -2.376559    1.128405   -0.986840
  H     -1.804144    1.462822    0.641700
  H     -0.395398   -0.348369   -1.389608
  H      0.033017    1.328714   -1.051407
  H      0.166363   -0.981151    0.962296
  H      0.498709    0.703421    1.347990
  H      4.042230   -0.473132   -0.622631

 Total Charge           Charge          ....    0
 Multiplicity           Mult            ....    1
 Number of Electrons    NEL             ....   46
 Basis Dimension        Dim             ....  246

ORBITAL ENERGIES
----------------

  NO   OCC          E(Eh)            E(eV)
   0   2.0000     -12.068956      -328.4130
   1   2.0000     -12.050017      -327.8976
   2   2.0000     -12.048853      -327.8660
   3   2.0000     -12.046705      -327.8075
   4   2.0000     -12.038350      -327.5801
   5   2.0000     -12.034644      -327.4793
   6   2.0000      -1.329228       -36.1701
   7   2.0000      -1.289005       -35.0756
   8   2.0000      -1.237908       -33.6852
   9   2.0000      -1.155283       -31.4369
  10   2.0000      -1.057691       -28.7812
  11   2.0000      -0.982813       -26.7437
  12   2.0000      -0.938959       -25.5504
  13   2.0000      -0.901352       -24.5270
  14   2.0000      -0.872798       -23.7501
  15   2.0000      -0.857580       -23.3359
  16   2.0000      -0.843408       -22.9503
  17   2.0000      -0.813816       -22.1451
  18   2.0000      -0.782577       -21.2950
  19   2.0000      -0.774402       -21.0726
  20   2.0000      -0.759064       -20.6552
  21   2.0000      -0.674548       -18.3554
  22   2.0000      -0.671162       -18.2632
  23   0.0000      -0.160759        -4.3745
  24   0.0000      -0.147141        -4.0039
  25   0.0000      -0.057605        -1.5675
  26   0.0000      -0.019607        -0.5335
  27   0.0000      -0.009191        -0.2501

MULLIKEN ATOMIC CHARGES
-----------------------
   0 C :   -0.368257
   1 C :   -0.139439
   2 C :   -0.157837
   3 C :   -0.320767
   4 C :   -0.062731
   5 C :   -0.113847
   6 H :    0.108192
   7 H :    0.117558
   8 H :    0.112004
   9 H :    0.100388
  10 H :    0.088803
  11 H :    0.103069
  12 H :    0.108655
  13 H :    0.127305
  14 H :    0.121019
  15 H :    0.175884
Sum of atomic charges:   -0.0000000

LOEWDIN ATOMIC CHARGES
----------------------
   0 C :   -0.307898
   1 C :   -0.291349
   2 C :   -0.247024
   3 C :   -0.240893
   4 C :   -0.115583
   5 C :   -0.115781
   6 H :    0.117786
   7 H :    0.117311
   8 H :    0.113897
   9 H :    0.133404
  10 H :    0.131311
  11 H :    0.137406
  12 H :    0.138456
  13 H :    0.152427
  14 H :    0.153476
  15 H :    0.123054

  Mayer bond orders larger than 0.100000
B(  0-C ,  1-C ) :   0.9656 B(  0-C ,  6-H ) :   0.9767 B(  0-C ,  7-H ) :   0.9807
B(  0-C ,  8-H ) :   0.9851 B(  1-C ,  2-C ) :   0.9775 B(  1-C ,  9-H ) :   0.9786
B(  1-C , 10-H ) :   0.9767 B(  2-C ,  3-C ) :   0.9800 B(  2-C , 11-H ) :   0.9774
B(  2-C , 12-H ) :   0.9741 B(  3-C ,  4-C ) :   1.1523 B(  3-C , 13-H ) :   0.9609
B(  3-C , 14-H ) :   0.9544 B(  4-C ,  5-C ) :   2.7898 B(  5-C , 15-H ) :   0.9613

FINAL SINGLE POINT ENERGY      -234.598660805435

DIPOLE MOMENT
-------------

Method             : SCF
Type of density    : Electron Density
Multiplicity       :   1
Irrep              :   0
Energy             :  -234.6086229291347252 Eh
Relativity type    :
Basis              : AO
                                X                 Y                 Z
Electronic contribution:      7.240920322      -0.144955793      -0.314728888
Nuclear contribution   :     -7.618205818       0.226510961       0.341298984
                        -----------------------------------------
Total Dipole Moment    :     -0.377285496       0.081555168       0.026570096
                        -----------------------------------------
Magnitude (a.u.)       :      0.386912860
Magnitude (Debye)      :      0.983454333

Rotational constants in cm-1:             0.398789             0.049241             0.046922
Rotational constants in MHz :         11955.389796          1476.200705          1406.694096

                             ****ORCA TERMINATED NORMALLY****
TOTAL RUN TIME: 0 days 0 hours 1 minutes 38 seconds 606 msec
