                         Program Version 6.0.0  -   RELEASE  -
|  1> ! wb97x-v def2-tzvp def2/J RIJCOSX DEFGRID2 scfconv7 GCP(DFT/TZ) printgap
|  2> %output
|  3>     printlevel normal
|  4> end
|  5> %cpcm
|  6>     smd true
|  7>     smdsolvent "water"
|  8> end
|  9> * xyz 0 1
| 10> C -2.558377444206844 -0.5428645580760764 0.35718991617904333
| 11> C -1.8221330532399853 0.6975817047077006 -0.14498941835125964
| 12> C -0.3911718415485527 0.4211209811764702 -0.6084206588039882
| 13> C 0.5280621228249032 -0.03733121530571988 0.5388035441547968
| 14> C 1.9028346280386206 -0.21577693888775615 0.10659524974764144
| 15> C 3.0375770543857152 -0.34951148075136224 -0.2846127375316443
| 16> H -2.5578079518202688 -1.3307494682803336 -0.40440788095179175
| 17> H -3.6005324889352495 -0.30752907343832403 0.595157179696386
| 18> H -2.1005757273466372 -0.9518597378976024 1.2633672334125003
| 19> H -2.376559406392291 1.1284048811767813 -0.9868399632722846
| 20> H -1.8041441257642306 1.4628224469918245 0.6417002203397709
| 21> H -0.39539842153340365 -0.3483686872582274 -1.3896084672385625
| 22> H 0.03301677982826955 1.3287135441406979 -1.0514065090332687
| 23> H 0.1663632703995264 -0.9811511947601514 0.9622962647991934
| 24> H 0.49870904755897205 0.7034208323357514 1.3479898541975295
| 25> H 4.0422300685452885 -0.4731316030039734 -0.6226310771551999
| 26> *
| 27>
| 28>                          ****END OF INPUT****

CARTESIAN COORDINATES (ANGSTROEM)
---------------------------------
  C     -2.558377   -0.542865    0.357190
  C     -1.822133    0.697582   -0.144989
  C     -0.391172    0.421121   -0.608421
  C      0.528062   -0.037331    0.538804
  C      1.902835   -0.215777    0.106595
  C      3.037577   -0.349511   -0.284613
  H     -2.557808   -1.330749   -0.404408
  H     -3.600532   -0.307529    0.595157
  H     -2.100576   -0.951860    1.263367
  H     -2.376559    1.128405   -0.986840
  H     -1.804144    1.462822    0.641700
  H     -0.395398   -0.348369   -1.389608
  H      0.033017    1.328714   -1.051407
  H      0.166363   -0.981151    0.962296
  H      0.498709    0.703421    1.347990
  H      4.042230   -0.473132   -0.622631

 Total Charge           Charge          ....    0
 Multiplicity           Mult            ....    1
 Number of Electrons    NEL             ....   46
 Basis Dimension        Dim             ....  246

ORBITAL ENERGIES
----------------

  NO   OCC          E(Eh)            E(eV)
   0   2.0000     -12.059827      -328.1646
   1   2.0000     -12.055799      -328.0550
   2   2.0000     -12.039976      -327.6244
   3   2.0000     -12.038556      -327.5858
   4   2.0000     -12.033994      -327.4616
   5   2.0000     -12.024802      -327.2115
   6   2.0000      -1.326170       -36.0869
   7   2.0000      -1.286950       -35.0197
   8   2.0000      -1.231762       -33.5179
   9   2.0000      -1.145787       -31.1784
  10   2.0000      -1.046786       -28.4845
  11   2.0000      -0.981387       -26.7049
  12   2.0000      -0.934127       -25.4189
  13   2.0000      -0.890856       -24.2414
  14   2.0000      -0.861859       -23.4524
  15   2.0000      -0.846154       -23.0250
  16   2.0000      -0.832604       -22.6563
  17   2.0000      -0.803002       -21.8508
  18   2.0000      -0.770824       -20.9752
  19   2.0000      -0.763108       -20.7652
  20   2.0000      -0.746708       -20.3190
  21   2.0000      -0.681560       -18.5462
  22   2.0000      -0.677884       -18.4462
  23   0.0000      -0.164900        -4.4872
  24   0.0000      -0.151816        -4.1311
  25   0.0000      -0.052279        -1.4226
  26   0.0000      -0.009330        -0.2539
  27   0.0000       0.002684         0.0730

MULLIKEN ATOMIC CHARGES
-----------------------
   0 C :   -0.414647
   1 C :   -0.161587
   2 C :   -0.175980
   3 C :   -0.321180
   4 C :   -0.104874
   5 C :   -0.183029
   6 H :    0.119784
   7 H :    0.130634
   8 H :    0.129857
   9 H :    0.111457
  10 H :    0.102409
  11 H :    0.114025
  12 H :    0.118173
  13 H :    0.154746
  14 H :    0.147000
  15 H :    0.233212
Sum of atomic charges:   -0.0000000

LOEWDIN ATOMIC CHARGES
----------------------
   0 C :   -0.313738
   1 C :   -0.291180
   2 C :   -0.248632
   3 C :   -0.237005
   4 C :   -0.131825
   5 C :   -0.142740
   6 H :    0.119377
   7 H :    0.118510
   8 H :    0.117675
   9 H :    0.135427
  10 H :    0.134633
  11 H :    0.138973
  12 H :    0.139264
  13 H :    0.160884
  14 H :    0.161958
  15 H :    0.138419

  Mayer bond orders larger than 0.100000
B(  0-C ,  1-C ) :   0.9661 B(  0-C ,  6-H ) :   0.9751 B(  0-C ,  7-H ) :   0.9785
B(  0-C ,  8-H ) :   0.9806 B(  1-C ,  2-C ) :   0.9813 B(  1-C ,  9-H ) :   0.9767
B(  1-C , 10-H ) :   0.9759 B(  2-C ,  3-C ) :   0.9769 B(  2-C , 11-H ) :   0.9747
B(  2-C , 12-H ) :   0.9722 B(  3-C ,  4-C ) :   1.1661 B(  3-C ,  5-C ) :  -0.1196
B(  3-C , 13-H ) :   0.9523 B(  3-C , 14-H ) :   0.9508 B(  4-C ,  5-C ) :   2.7365
B(  5-C , 15-H ) :   0.9612

FINAL SINGLE POINT ENERGY      -234.599565428244

DIPOLE MOMENT
-------------

Method             : SCF
Type of density    : Electron Density
Multiplicity       :   1
Irrep              :   0
Energy             :  -234.6095275519441543 Eh
Relativity type    :
Basis              : AO
                                X                 Y                 Z
Electronic contribution:      7.123061461      -0.124686403      -0.252184788
Nuclear contribution   :     -7.618205818       0.226510961       0.341298984
                        -----------------------------------------
Total Dipole Moment    :     -0.495144357       0.101824558       0.089114196
                        -----------------------------------------
Magnitude (a.u.)       :      0.513300609
Magnitude (Debye)      :      1.304706461

Rotational constants in cm-1:             0.398789             0.049241             0.046922
Rotational constants in MHz :         11955.389796          1476.200705          1406.694096

                             ****ORCA TERMINATED NORMALLY****
TOTAL RUN TIME: 0 days 0 hours 1 minutes 34 seconds 387 msec
