                         Program Version 6.0.0  -   RELEASE  -
|  1> ! r2scan-3c def2/J RI DEFGRID2 scfconv6 printgap
|  2> %output
|  3>     printlevel normal
|  4> end
|  5> * xyz 0 1
|  6> C -2.4709400326 0.0010630266 1.2926371535
|  7> O -1.0612836838 -0.0004080408 0.9638783315
|  8> C -0.7440893132 -0.000562621 -0.3146695965
|  9> C 0.7722110019 4.42993e-05 -0.535555949
| 10> Cl 1.4468991835 1.4555818543 0.2046623044
| 11> Cl 1.4483523522 -1.4542931261 0.2056795403
| 12> F -1.2859623365 -1.0727282265 -0.995847277
| 13> F -1.2871978002 1.0701352153 -0.9970080398
| 14> H -2.4925992656 -0.0072968094 2.377027553
| 15> H -2.9474613226 -0.8902206655 0.8852709866
| 16> H -2.9420468723 0.9013801367 0.8991118678
| 17> H 1.0014306407 -0.0003307321 -1.6036447453
| 18> *
| 19>
| 20>                          ****END OF INPUT****

CARTESIAN COORDINATES (ANGSTROEM)
---------------------------------
  C     -2.470940    0.001063    1.292637
  O     -1.061284   -0.000408    0.963878
  C     -0.744089   -0.000563   -0.314670
  C      0.772211    0.000044   -0.535556
  Cl     1.446899    1.455582    0.204662
  Cl     1.448352   -1.454293    0.205680
  F     -1.285962   -1.072728   -0.995847
  F     -1.287198    1.070135   -0.997008
  H     -2.492599   -0.007297    2.377028
  H     -2.947461   -0.890221    0.885271
  H     -2.942047    0.901380    0.899112
  H      1.001431   -0.000331   -1.603645

 Total Charge           Charge          ....    0
 Multiplicity           Mult            ....    1
 Number of Electrons    NEL             ....   82
 Basis Dimension        Dim             ....  203

ORBITAL ENERGIES
----------------

  NO   OCC          E(Eh)            E(eV)
   0   2.0000    -101.232288     -2754.6706
   1   2.0000    -101.232278     -2754.6703
   2   2.0000     -24.506869      -666.8658
   3   2.0000     -24.506787      -666.8636
   4   2.0000     -19.011987      -517.3425
   5   2.0000     -10.266593      -279.3682
   6   2.0000     -10.180687      -277.0306
   7   2.0000     -10.105126      -274.9745
   8   2.0000      -9.388294      -255.4685
   9   2.0000      -9.388284      -255.4682
  10   2.0000      -7.135235      -194.1596
  11   2.0000      -7.135226      -194.1594
  12   2.0000      -7.124111      -193.8569
  13   2.0000      -7.124102      -193.8567
  14   2.0000      -7.123793      -193.8483
  15   2.0000      -7.123783      -193.8480
  16   2.0000      -1.237417       -33.6718
  17   2.0000      -1.165419       -31.7127
  18   2.0000      -1.065851       -29.0033
  19   2.0000      -0.890711       -24.2375
  20   2.0000      -0.799578       -21.7576
  21   2.0000      -0.741497       -20.1772
  22   2.0000      -0.672457       -18.2985
  23   2.0000      -0.600047       -16.3281
  24   2.0000      -0.545043       -14.8314
  25   2.0000      -0.540292       -14.7021
  26   2.0000      -0.521869       -14.2008
  27   2.0000      -0.459194       -12.4953
  28   2.0000      -0.448891       -12.2149
  29   2.0000      -0.433221       -11.7886
  30   2.0000      -0.427470       -11.6320
  31   2.0000      -0.414241       -11.2721
  32   2.0000      -0.384820       -10.4715
  33   2.0000      -0.376838       -10.2543
  34   2.0000      -0.367275        -9.9941
  35   2.0000      -0.342578        -9.3220
  36   2.0000      -0.313569        -8.5327
  37   2.0000      -0.312866        -8.5135
  38   2.0000      -0.289681        -7.8826
  39   2.0000      -0.288028        -7.8376
  40   2.0000      -0.285782        -7.7765
  41   0.0000      -0.036152        -0.9837
  42   0.0000      -0.014867        -0.4045
  43   0.0000       0.043776         1.1912
  44   0.0000       0.089341         2.4311
  45   0.0000       0.103200         2.8082

MULLIKEN ATOMIC CHARGES
-----------------------
   0 C :   -0.299783
   1 O :   -0.194102
   2 C :    0.436741
   3 C :    0.011270
   4 Cl:   -0.097094
   5 Cl:   -0.097085
   6 F :   -0.234963
   7 F :   -0.234818
   8 H :    0.164031
   9 H :    0.170514
  10 H :    0.170405
  11 H :    0.204883
Sum of atomic charges:   -0.0000000

LOEWDIN ATOMIC CHARGES
----------------------
   0 C :   -0.037995
   1 O :   -0.617995
   2 C :    0.416469
   3 C :   -0.277716
   4 Cl:    0.135400
   5 Cl:    0.135424
   6 F :   -0.238170
   7 F :   -0.237982
   8 H :    0.184881
   9 H :    0.176265
  10 H :    0.176154
  11 H :    0.185266

  Mayer bond orders larger than 0.100000
B(  0-C ,  1-O ) :   0.8191 B(  0-C ,  8-H ) :   0.9672 B(  0-C ,  9-H ) :   0.9625
B(  0-C , 10-H ) :   0.9624 B(  1-O ,  2-C ) :   1.2100 B(  2-C ,  3-C ) :   0.9541
B(  2-C ,  6-F ) :   0.9306 B(  2-C ,  7-F ) :   0.9304 B(  3-C ,  4-Cl) :   1.0547
B(  3-C ,  5-Cl) :   1.0549 B(  3-C , 11-H ) :   0.9166

Dispersion correction           -0.003621558
FINAL SINGLE POINT ENERGY     -1311.945185735986

DIPOLE MOMENT
-------------

Method             : SCF
Type of density    : Electron Density
Multiplicity       :   1
Irrep              :   0
Energy             : -1311.9576993492673864 Eh
Relativity type    :
Basis              : AO
                                X                 Y                 Z
Electronic contribution:      7.832651929      -0.003124937      -3.498466339
Nuclear contribution   :     -8.441978321       0.003980318       3.709577692
                        -----------------------------------------
Total Dipole Moment    :     -0.609326392       0.000855381       0.211111353
                        -----------------------------------------
Magnitude (a.u.)       :      0.644862301
Magnitude (Debye)      :      1.639109706

Rotational constants in cm-1:             0.059045             0.039060             0.031407
Rotational constants in MHz :          1770.137023          1171.003307           941.570288

                             ****ORCA TERMINATED NORMALLY****
TOTAL RUN TIME: 0 days 0 hours 0 minutes 19 seconds 438 msec
