                         Program Version 6.0.0  -   RELEASE  -
|  1> ! r2scan-3c def2/J RI DEFGRID2 scfconv6 printgap
|  2> %output
|  3>     printlevel normal
|  4> end
|  5> %cpcm
|  6>     smd true
|  7>     smdsolvent "water"
|  8> end
|  9> * xyz 0 1
| 10> C -2.4709400326 0.0010630266 1.2926371535
| 11> O -1.0612836838 -0.0004080408 0.9638783315
| 12> C -0.7440893132 -0.000562621 -0.3146695965
| 13> C 0.7722110019 4.42993e-05 -0.535555949
| 14> Cl 1.4468991835 1.4555818543 0.2046623044
| 15> Cl 1.4483523522 -1.4542931261 0.2056795403
| 16> F -1.2859623365 -1.0727282265 -0.995847277
| 17> F -1.2871978002 1.0701352153 -0.9970080398
| 18> H -2.4925992656 -0.0072968094 2.377027553
| 19> H -2.9474613226 -0.8902206655 0.8852709866
| 20> H -2.9420468723 0.9013801367 0.8991118678
| 21> H 1.0014306407 -0.0003307321 -1.6036447453
| 22> *
| 23>
| 24>                          ****END OF INPUT****

CARTESIAN COORDINATES (ANGSTROEM)
---------------------------------
  C     -2.470940    0.001063    1.292637
  O     -1.061284   -0.000408    0.963878
  C     -0.744089   -0.000563   -0.314670
  C      0.772211    0.000044   -0.535556
  Cl     1.446899    1.455582    0.204662
  Cl     1.448352   -1.454293    0.205680
  F     -1.285962   -1.072728   -0.995847
  F     -1.287198    1.070135   -0.997008
  H     -2.492599   -0.007297    2.377028
  H     -2.947461   -0.890221    0.885271
  H     -2.942047    0.901380    0.899112
  H      1.001431   -0.000331   -1.603645

 Total Charge           Charge          ....    0
 Multiplicity           Mult            ....    1
 Number of Electrons    NEL             ....   82
 Basis Dimension        Dim             ....  203

ORBITAL ENERGIES
----------------

  NO   OCC          E(Eh)            E(eV)
   0   2.0000    -101.235450     -2754.7566
   1   2.0000    -101.235445     -2754.7565
   2   2.0000     -24.509034      -666.9247
   3   2.0000     -24.508956      -666.9226
   4   2.0000     -19.008565      -517.2494
   5   2.0000     -10.266064      -279.3538
   6   2.0000     -10.176598      -276.9193
   7   2.0000     -10.085060      -274.4284
   8   2.0000      -9.391527      -255.5564
   9   2.0000      -9.391523      -255.5563
  10   2.0000      -7.138315      -194.2434
  11   2.0000      -7.138312      -194.2434
  12   2.0000      -7.127446      -193.9477
  13   2.0000      -7.127443      -193.9476
  14   2.0000      -7.127067      -193.9374
  15   2.0000      -7.127064      -193.9373
  16   2.0000      -1.238968       -33.7140
  17   2.0000      -1.167743       -31.7759
  18   2.0000      -1.062581       -28.9143
  19   2.0000      -0.891415       -24.2566
  20   2.0000      -0.802555       -21.8386
  21   2.0000      -0.734748       -19.9935
  22   2.0000      -0.664985       -18.0952
  23   2.0000      -0.599465       -16.3123
  24   2.0000      -0.542305       -14.7569
  25   2.0000      -0.536337       -14.5945
  26   2.0000      -0.518895       -14.1199
  27   2.0000      -0.457068       -12.4375
  28   2.0000      -0.443477       -12.0676
  29   2.0000      -0.429196       -11.6790
  30   2.0000      -0.424999       -11.5648
  31   2.0000      -0.403423       -10.9777
  32   2.0000      -0.383633       -10.4392
  33   2.0000      -0.377947       -10.2845
  34   2.0000      -0.369392       -10.0517
  35   2.0000      -0.335200        -9.1213
  36   2.0000      -0.316239        -8.6053
  37   2.0000      -0.314731        -8.5643
  38   2.0000      -0.290544        -7.9061
  39   2.0000      -0.289870        -7.8878
  40   2.0000      -0.285999        -7.7824
  41   0.0000      -0.037260        -1.0139
  42   0.0000      -0.015073        -0.4102
  43   0.0000       0.057629         1.5682
  44   0.0000       0.099389         2.7045
  45   0.0000       0.114048         3.1034

MULLIKEN ATOMIC CHARGES
-----------------------
   0 C :   -0.314390
   1 O :   -0.223193
   2 C :    0.437156
   3 C :   -0.002155
   4 Cl:   -0.117093
   5 Cl:   -0.117102
   6 F :   -0.242440
   7 F :   -0.242300
   8 H :    0.188377
   9 H :    0.186052
  10 H :    0.186009
  11 H :    0.261078
Sum of atomic charges:    0.0000000

LOEWDIN ATOMIC CHARGES
----------------------
   0 C :   -0.033496
   1 O :   -0.636417
   2 C :    0.414857
   3 C :   -0.272912
   4 Cl:    0.123641
   5 Cl:    0.123648
   6 F :   -0.243038
   7 F :   -0.242840
   8 H :    0.194844
   9 H :    0.183250
  10 H :    0.183155
  11 H :    0.205308

  Mayer bond orders larger than 0.100000
B(  0-C ,  1-O ) :   0.8062 B(  0-C ,  8-H ) :   0.9571 B(  0-C ,  9-H ) :   0.9540
B(  0-C , 10-H ) :   0.9539 B(  1-O ,  2-C ) :   1.2148 B(  2-C ,  3-C ) :   0.9532
B(  2-C ,  6-F ) :   0.9287 B(  2-C ,  7-F ) :   0.9286 B(  3-C ,  4-Cl) :   1.0338
B(  3-C ,  5-Cl) :   1.0339 B(  3-C , 11-H ) :   0.9007

Dispersion correction           -0.003621558
FINAL SINGLE POINT ENERGY     -1311.948115229583

DIPOLE MOMENT
-------------

Method             : SCF
Type of density    : Electron Density
Multiplicity       :   1
Irrep              :   0
Energy             : -1311.9606288428647076 Eh
Relativity type    :
Basis              : AO
                                X                 Y                 Z
Electronic contribution:      7.687173323      -0.002855988      -3.590559171
Nuclear contribution   :     -8.441978321       0.003980318       3.709577692
                        -----------------------------------------
Total Dipole Moment    :     -0.754804999       0.001124330       0.119018521
                        -----------------------------------------
Magnitude (a.u.)       :      0.764131702
Magnitude (Debye)      :      1.942268433

Rotational constants in cm-1:             0.059045             0.039060             0.031407
Rotational constants in MHz :          1770.137023          1171.003307           941.570288

                             ****ORCA TERMINATED NORMALLY****
TOTAL RUN TIME: 0 days 0 hours 0 minutes 23 seconds 322 msec
