                         Program Version 6.0.0  -   RELEASE  -
|  1> ! pbe def2-sv(p) def2/J RI DEFGRID1 loosescf d4 GCP(DFT/SV(P)) printgap
|  2> %output
|  3>     printlevel normal
|  4> end
|  5> * xyz 0 1
|  6> C -4.3793609669 0.4687097208 0.0006024663
|  7> O -3.4257668916 -0.5813242127 -0.0001337424
|  8> C -2.1103453861 -0.2771189228 -3.72774e-05
|  9> C -1.2334845866 -1.3700970241 -0.0011505021
| 10> C 0.1265621091 -1.176878531 -0.0011673994
| 11> C 0.6498977644 0.1196263423 -0.0002448855
| 12> C -0.2237595976 1.2054143899 0.0008546263
| 13> C -1.5902491251 1.0177279618 0.0010681325
| 14> C 2.0964380161 0.373769827 -0.0006146259
| 15> O 2.6025969314 1.4841719309 -0.0021700364
| 16> O 2.8288936631 -0.7436541112 0.0014652469
| 17> C 4.2474128617 -0.5879491041 0.0013363387
| 18> H -5.34725769 -0.0267920059 -0.0003131816
| 19> H -4.2815812933 1.0886011485 -0.8932974481
| 20> H -4.2822807368 1.0866734316 0.8959162886
| 21> H -1.6578315015 -2.3610026338 -0.0021079534
| 22> H 0.798691686 -2.0194455511 -0.002247897
| 23> H 0.1941931898 2.200827308 0.0017388191
| 24> H -2.2395675669 1.8773585178 0.0020735791
| 25> H 4.651590823 -1.5951914353 0.015700962
| 26> H 4.562291115 -0.0252979246 0.881445519
| 27> H 4.5646221989 -0.0500818461 -0.8933065352
| 28> *
| 29>
| 30>                          ****END OF INPUT****

CARTESIAN COORDINATES (ANGSTROEM)
---------------------------------
  C     -4.379361    0.468710    0.000602
  O     -3.425767   -0.581324   -0.000134
  C     -2.110345   -0.277119   -0.000037
  C     -1.233485   -1.370097   -0.001151
  C      0.126562   -1.176879   -0.001167
  C      0.649898    0.119626   -0.000245
  C     -0.223760    1.205414    0.000855
  C     -1.590249    1.017728    0.001068
  C      2.096438    0.373770   -0.000615
  O      2.602597    1.484172   -0.002170
  O      2.828894   -0.743654    0.001465
  C      4.247413   -0.587949    0.001336
  H     -5.347258   -0.026792   -0.000313
  H     -4.281581    1.088601   -0.893297
  H     -4.282281    1.086673    0.895916
  H     -1.657832   -2.361003   -0.002108
  H      0.798692   -2.019446   -0.002248
  H      0.194193    2.200827    0.001739
  H     -2.239568    1.877359    0.002074
  H      4.651591   -1.595191    0.015701
  H      4.562291   -0.025298    0.881446
  H      4.564622   -0.050082   -0.893307

 Total Charge           Charge          ....    0
 Multiplicity           Mult            ....    1
 Number of Electrons    NEL             ....   88
 Basis Dimension        Dim             ....  188

ORBITAL ENERGIES
----------------

  NO   OCC          E(Eh)            E(eV)
   0   2.0000     -18.800864      -511.5975
   1   2.0000     -18.794018      -511.4112
   2   2.0000     -18.726284      -509.5681
   3   2.0000      -9.998471      -272.0722
   4   2.0000      -9.961902      -271.0771
   5   2.0000      -9.949604      -270.7425
   6   2.0000      -9.936872      -270.3960
   7   2.0000      -9.899955      -269.3915
   8   2.0000      -9.899329      -269.3744
   9   2.0000      -9.898937      -269.3638
  10   2.0000      -9.897617      -269.3279
  11   2.0000      -9.893080      -269.2044
  12   2.0000      -0.998396       -27.1677
  13   2.0000      -0.982726       -26.7413
  14   2.0000      -0.900554       -24.5053
  15   2.0000      -0.781644       -21.2696
  16   2.0000      -0.703443       -19.1417
  17   2.0000      -0.683421       -18.5968
  18   2.0000      -0.660559       -17.9747
  19   2.0000      -0.631776       -17.1915
  20   2.0000      -0.555261       -15.1094
  21   2.0000      -0.549588       -14.9550
  22   2.0000      -0.506606       -13.7855
  23   2.0000      -0.494772       -13.4634
  24   2.0000      -0.469079       -12.7643
  25   2.0000      -0.441427       -12.0118
  26   2.0000      -0.431662       -11.7461
  27   2.0000      -0.428004       -11.6466
  28   2.0000      -0.408971       -11.1287
  29   2.0000      -0.398761       -10.8508
  30   2.0000      -0.381813       -10.3897
  31   2.0000      -0.381463       -10.3801
  32   2.0000      -0.373371       -10.1599
  33   2.0000      -0.360535        -9.8107
  34   2.0000      -0.342382        -9.3167
  35   2.0000      -0.339194        -9.2299
  36   2.0000      -0.321674        -8.7532
  37   2.0000      -0.299831        -8.1588
  38   2.0000      -0.287142        -7.8135
  39   2.0000      -0.285976        -7.7818
  40   2.0000      -0.252614        -6.8740
  41   2.0000      -0.236508        -6.4357
  42   2.0000      -0.215067        -5.8523
  43   2.0000      -0.202890        -5.5209
  44   0.0000      -0.062566        -1.7025
  45   0.0000      -0.038879        -1.0579
  46   0.0000       0.032136         0.8745
  47   0.0000       0.039385         1.0717
  48   0.0000       0.053796         1.4639

MULLIKEN ATOMIC CHARGES
-----------------------
   0 C :   -0.118880
   1 O :   -0.255118
   2 C :    0.275152
   3 C :   -0.103686
   4 C :   -0.083657
   5 C :    0.039961
   6 C :   -0.094371
   7 C :   -0.182309
   8 C :    0.150966
   9 O :   -0.208660
  10 O :   -0.249213
  11 C :   -0.101701
  12 H :    0.130444
  13 H :    0.117237
  14 H :    0.117226
  15 H :    0.047714
  16 H :    0.057896
  17 H :    0.062731
  18 H :    0.044375
  19 H :    0.118214
  20 H :    0.117977
  21 H :    0.117703
Sum of atomic charges:   -0.0000000

LOEWDIN ATOMIC CHARGES
----------------------
   0 C :   -0.200578
   1 O :   -0.077250
   2 C :    0.039280
   3 C :   -0.141701
   4 C :   -0.093600
   5 C :   -0.098471
   6 C :   -0.079265
   7 C :   -0.174052
   8 C :    0.043726
   9 O :   -0.176439
  10 O :   -0.076286
  11 C :   -0.201840
  12 H :    0.125169
  13 H :    0.113472
  14 H :    0.113469
  15 H :    0.131342
  16 H :    0.131808
  17 H :    0.135734
  18 H :    0.128482
  19 H :    0.118773
  20 H :    0.119170
  21 H :    0.119058

  Mayer bond orders larger than 0.100000
B(  0-C ,  1-O ) :   0.9781 B(  0-C , 12-H ) :   0.9586 B(  0-C , 13-H ) :   0.9425
B(  0-C , 14-H ) :   0.9425 B(  1-O ,  2-C ) :   1.1665 B(  2-C ,  3-C ) :   1.3225
B(  2-C ,  7-C ) :   1.2686 B(  3-C ,  4-C ) :   1.3747 B(  3-C , 15-H ) :   0.9655
B(  4-C ,  5-C ) :   1.3175 B(  4-C , 16-H ) :   0.9617 B(  5-C ,  6-C ) :   1.3845
B(  5-C ,  8-C ) :   0.9646 B(  6-C ,  7-C ) :   1.3371 B(  6-C , 17-H ) :   0.9556
B(  7-C , 18-H ) :   0.9666 B(  8-C ,  9-O ) :   2.0483 B(  8-C , 10-O ) :   1.2303
B( 10-O , 11-C ) :   0.9423 B( 11-C , 19-H ) :   0.9592 B( 11-C , 20-H ) :   0.9512
B( 11-C , 21-H ) :   0.9518

Dispersion correction           -0.022703403
FINAL SINGLE POINT ENERGY      -573.453661343594

DIPOLE MOMENT
-------------

Method             : SCF
Type of density    : Electron Density
Multiplicity       :   1
Irrep              :   0
Energy             :  -573.5280136647946847 Eh
Relativity type    :
Basis              : AO
                                X                 Y                 Z
Electronic contribution:      2.048371055      -0.470243066      -0.003870694
Nuclear contribution   :     -2.819637547       0.167146735       0.005243355
                        -----------------------------------------
Total Dipole Moment    :     -0.771266492      -0.303096331       0.001372661
                        -----------------------------------------
Magnitude (a.u.)       :      0.828686474
Magnitude (Debye)      :      2.106353621

Rotational constants in cm-1:             0.109143             0.014368             0.012758
Rotational constants in MHz :          3272.023639           430.736543           382.474045

                             ****ORCA TERMINATED NORMALLY****
TOTAL RUN TIME: 0 days 0 hours 0 minutes 13 seconds 148 msec
