                         Program Version 6.0.0  -   RELEASE  -
|  1> ! r2scan-3c def2/J RI DEFGRID2 scfconv6 printgap
|  2> %output
|  3>     printlevel normal
|  4> end
|  5> * xyz 0 1
|  6> C -2.5616246564 -0.8308415726 -0.9672299202
|  7> C -2.4829729717 0.4825498713 -0.1992790586
|  8> C -1.5079623603 0.4041522238 0.9838767109
|  9> C -0.0953529347 0.1939511014 0.5192162471
| 10> C 0.5019511003 -1.0586132142 0.5780192488
| 11> C 1.7927655924 -1.25003454 0.1160393289
| 12> C 2.5057204764 -0.1881222646 -0.4132464213
| 13> C 1.9208574614 1.0658723206 -0.4754116574
| 14> C 0.6311064146 1.2532531159 -0.0125342577
| 15> H -2.8959826753 -1.6344764383 -0.3148545811
| 16> H -3.2623101493 -0.7459532653 -1.794284933
| 17> H -1.5857748652 -1.0965695431 -1.3679215527
| 18> H -3.4743374323 0.7414079467 0.1782222614
| 19> H -2.1623821601 1.2782853471 -0.8749756324
| 20> H -1.8078203392 -0.4148296302 1.6401598653
| 21> H -1.5679520146 1.3364008872 1.5498916986
| 22> H -0.0483331375 -1.8922207077 0.9905130372
| 23> H 2.2431414746 -2.2304736234 0.1693552241
| 24> H 3.5127816944 -0.3358678848 -0.7739646685
| 25> H 2.4727906474 1.899628007 -0.884380872
| 26> H 0.1808948682 2.2346646032 -0.0603995898
| 27> *
| 28>
| 29>                          ****END OF INPUT****

CARTESIAN COORDINATES (ANGSTROEM)
---------------------------------
  C     -2.561625   -0.830842   -0.967230
  C     -2.482973    0.482550   -0.199279
  C     -1.507962    0.404152    0.983877
  C     -0.095353    0.193951    0.519216
  C      0.501951   -1.058613    0.578019
  C      1.792766   -1.250035    0.116039
  C      2.505720   -0.188122   -0.413246
  C      1.920857    1.065872   -0.475412
  C      0.631106    1.253253   -0.012534
  H     -2.895983   -1.634476   -0.314855
  H     -3.262310   -0.745953   -1.794285
  H     -1.585775   -1.096570   -1.367922
  H     -3.474337    0.741408    0.178222
  H     -2.162382    1.278285   -0.874976
  H     -1.807820   -0.414830    1.640160
  H     -1.567952    1.336401    1.549892
  H     -0.048333   -1.892221    0.990513
  H      2.243141   -2.230474    0.169355
  H      3.512782   -0.335868   -0.773965
  H      2.472791    1.899628   -0.884381
  H      0.180895    2.234665   -0.060400

 Total Charge           Charge          ....    0
 Multiplicity           Mult            ....    1
 Number of Electrons    NEL             ....   66
 Basis Dimension        Dim             ....  231

ORBITAL ENERGIES
----------------

  NO   OCC          E(Eh)            E(eV)
   0   2.0000     -10.039489      -273.1884
   1   2.0000     -10.032099      -272.9873
   2   2.0000     -10.031659      -272.9753
   3   2.0000     -10.031075      -272.9594
   4   2.0000     -10.030001      -272.9302
   5   2.0000     -10.029621      -272.9199
   6   2.0000     -10.029542      -272.9177
   7   2.0000     -10.028597      -272.8920
   8   2.0000     -10.013636      -272.4849
   9   2.0000      -0.828043       -22.5322
  10   2.0000      -0.765972       -20.8431
  11   2.0000      -0.713543       -19.4165
  12   2.0000      -0.711152       -19.3514
  13   2.0000      -0.646502       -17.5922
  14   2.0000      -0.577388       -15.7115
  15   2.0000      -0.569000       -15.4833
  16   2.0000      -0.536364       -14.5952
  17   2.0000      -0.480111       -13.0645
  18   2.0000      -0.437196       -11.8967
  19   2.0000      -0.429357       -11.6834
  20   2.0000      -0.412598       -11.2274
  21   2.0000      -0.403295       -10.9742
  22   2.0000      -0.386915       -10.5285
  23   2.0000      -0.372525       -10.1369
  24   2.0000      -0.358085        -9.7440
  25   2.0000      -0.341752        -9.2995
  26   2.0000      -0.324845        -8.8395
  27   2.0000      -0.312917        -8.5149
  28   2.0000      -0.308379        -8.3914
  29   2.0000      -0.299390        -8.1468
  30   2.0000      -0.291444        -7.9306
  31   2.0000      -0.234621        -6.3844
  32   2.0000      -0.224465        -6.1080
  33   0.0000      -0.030312        -0.8248
  34   0.0000      -0.026832        -0.7301
  35   0.0000       0.079320         2.1584
  36   0.0000       0.100375         2.7313
  37   0.0000       0.107603         2.9280

MULLIKEN ATOMIC CHARGES
-----------------------
   0 C :   -0.504681
   1 C :   -0.213660
   2 C :   -0.342025
   3 C :    0.164725
   4 C :   -0.209727
   5 C :   -0.161005
   6 C :   -0.149145
   7 C :   -0.158255
   8 C :   -0.218111
   9 H :    0.142217
  10 H :    0.144937
  11 H :    0.168421
  12 H :    0.142192
  13 H :    0.148193
  14 H :    0.155541
  15 H :    0.155711
  16 H :    0.150044
  17 H :    0.145115
  18 H :    0.146076
  19 H :    0.144795
  20 H :    0.148643
Sum of atomic charges:   -0.0000000

LOEWDIN ATOMIC CHARGES
----------------------
   0 C :   -0.422287
   1 C :   -0.300874
   2 C :   -0.282787
   3 C :   -0.095576
   4 C :   -0.167929
   5 C :   -0.163095
   6 C :   -0.173957
   7 C :   -0.161821
   8 C :   -0.162639
   9 H :    0.149084
  10 H :    0.150644
  11 H :    0.159494
  12 H :    0.151071
  13 H :    0.154846
  14 H :    0.162727
  15 H :    0.166187
  16 H :    0.168889
  17 H :    0.166398
  18 H :    0.166200
  19 H :    0.166362
  20 H :    0.169064

  Mayer bond orders larger than 0.100000
B(  0-C ,  1-C ) :   0.8801 B(  0-C ,  9-H ) :   0.9784 B(  0-C , 10-H ) :   0.9671
B(  0-C , 11-H ) :   0.9786 B(  1-C ,  2-C ) :   0.9061 B(  1-C , 12-H ) :   0.9624
B(  1-C , 13-H ) :   0.9892 B(  2-C ,  3-C ) :   0.7834 B(  2-C , 14-H ) :   1.0154
B(  2-C , 15-H ) :   0.9800 B(  3-C ,  4-C ) :   1.4115 B(  3-C ,  8-C ) :   1.3948
B(  4-C ,  5-C ) :   1.4403 B(  4-C , 16-H ) :   0.9436 B(  5-C ,  6-C ) :   1.4321
B(  5-C , 17-H ) :   0.9472 B(  6-C ,  7-C ) :   1.4241 B(  6-C , 18-H ) :   0.9483
B(  7-C ,  8-C ) :   1.4517 B(  7-C , 19-H ) :   0.9487 B(  8-C , 20-H ) :   0.9456

Dispersion correction           -0.006999851
FINAL SINGLE POINT ENERGY      -350.080055115493

DIPOLE MOMENT
-------------

Method             : SCF
Type of density    : Electron Density
Multiplicity       :   1
Irrep              :   0
Energy             :  -350.0797560536307174 Eh
Relativity type    :
Basis              : AO
                                X                 Y                 Z
Electronic contribution:      7.717339060       0.842407186       1.440579580
Nuclear contribution   :     -7.876178906      -0.806827699      -1.447253777
                        -----------------------------------------
Total Dipole Moment    :     -0.158839846       0.035579488      -0.006674196
                        -----------------------------------------
Magnitude (a.u.)       :      0.162912680
Magnitude (Debye)      :      0.414091125

Rotational constants in cm-1:             0.109595             0.036362             0.032467
Rotational constants in MHz :          3285.568398          1090.092661           973.336014

                             ****ORCA TERMINATED NORMALLY****
TOTAL RUN TIME: 0 days 0 hours 0 minutes 26 seconds 990 msec
