                         Program Version 6.0.0  -   RELEASE  -
|  1> ! r2scan-3c def2/J RI DEFGRID2 scfconv6 printgap
|  2> %output
|  3>     printlevel normal
|  4> end
|  5> %cpcm
|  6>     smd true
|  7>     smdsolvent "water"
|  8> end
|  9> * xyz 0 1
| 10> C -2.5616246564 -0.8308415726 -0.9672299202
| 11> C -2.4829729717 0.4825498713 -0.1992790586
| 12> C -1.5079623603 0.4041522238 0.9838767109
| 13> C -0.0953529347 0.1939511014 0.5192162471
| 14> C 0.5019511003 -1.0586132142 0.5780192488
| 15> C 1.7927655924 -1.25003454 0.1160393289
| 16> C 2.5057204764 -0.1881222646 -0.4132464213
| 17> C 1.9208574614 1.0658723206 -0.4754116574
| 18> C 0.6311064146 1.2532531159 -0.0125342577
| 19> H -2.8959826753 -1.6344764383 -0.3148545811
| 20> H -3.2623101493 -0.7459532653 -1.794284933
| 21> H -1.5857748652 -1.0965695431 -1.3679215527
| 22> H -3.4743374323 0.7414079467 0.1782222614
| 23> H -2.1623821601 1.2782853471 -0.8749756324
| 24> H -1.8078203392 -0.4148296302 1.6401598653
| 25> H -1.5679520146 1.3364008872 1.5498916986
| 26> H -0.0483331375 -1.8922207077 0.9905130372
| 27> H 2.2431414746 -2.2304736234 0.1693552241
| 28> H 3.5127816944 -0.3358678848 -0.7739646685
| 29> H 2.4727906474 1.899628007 -0.884380872
| 30> H 0.1808948682 2.2346646032 -0.0603995898
| 31> *
| 32>
| 33>                          ****END OF INPUT****

CARTESIAN COORDINATES (ANGSTROEM)
---------------------------------
  C     -2.561625   -0.830842   -0.967230
  C     -2.482973    0.482550   -0.199279
  C     -1.507962    0.404152    0.983877
  C     -0.095353    0.193951    0.519216
  C      0.501951   -1.058613    0.578019
  C      1.792766   -1.250035    0.116039
  C      2.505720   -0.188122   -0.413246
  C      1.920857    1.065872   -0.475412
  C      0.631106    1.253253   -0.012534
  H     -2.895983   -1.634476   -0.314855
  H     -3.262310   -0.745953   -1.794285
  H     -1.585775   -1.096570   -1.367922
  H     -3.474337    0.741408    0.178222
  H     -2.162382    1.278285   -0.874976
  H     -1.807820   -0.414830    1.640160
  H     -1.567952    1.336401    1.549892
  H     -0.048333   -1.892221    0.990513
  H      2.243141   -2.230474    0.169355
  H      3.512782   -0.335868   -0.773965
  H      2.472791    1.899628   -0.884381
  H      0.180895    2.234665   -0.060400

 Total Charge           Charge          ....    0
 Multiplicity           Mult            ....    1
 Number of Electrons    NEL             ....   66
 Basis Dimension        Dim             ....  231

ORBITAL ENERGIES
----------------

  NO   OCC          E(Eh)            E(eV)
   0   2.0000     -10.038318      -273.1565
   1   2.0000     -10.030516      -272.9442
   2   2.0000     -10.030178      -272.9350
   3   2.0000     -10.028152      -272.8799
   4   2.0000     -10.027819      -272.8708
   5   2.0000     -10.027559      -272.8637
   6   2.0000     -10.022970      -272.7389
   7   2.0000     -10.021114      -272.6884
   8   2.0000     -10.007586      -272.3202
   9   2.0000      -0.827895       -22.5282
  10   2.0000      -0.761066       -20.7097
  11   2.0000      -0.712698       -19.3935
  12   2.0000      -0.707995       -19.2655
  13   2.0000      -0.641516       -17.4565
  14   2.0000      -0.574018       -15.6198
  15   2.0000      -0.565528       -15.3888
  16   2.0000      -0.531505       -14.4630
  17   2.0000      -0.475956       -12.9514
  18   2.0000      -0.432632       -11.7725
  19   2.0000      -0.424077       -11.5397
  20   2.0000      -0.407714       -11.0945
  21   2.0000      -0.398187       -10.8352
  22   2.0000      -0.383133       -10.4256
  23   2.0000      -0.368066       -10.0156
  24   2.0000      -0.351862        -9.5746
  25   2.0000      -0.342957        -9.3323
  26   2.0000      -0.320043        -8.7088
  27   2.0000      -0.307849        -8.3770
  28   2.0000      -0.302970        -8.2442
  29   2.0000      -0.292490        -7.9591
  30   2.0000      -0.286016        -7.7829
  31   2.0000      -0.237187        -6.4542
  32   2.0000      -0.225822        -6.1449
  33   0.0000      -0.031655        -0.8614
  34   0.0000      -0.028108        -0.7649
  35   0.0000       0.088187         2.3997
  36   0.0000       0.104976         2.8565
  37   0.0000       0.110999         3.0204

MULLIKEN ATOMIC CHARGES
-----------------------
   0 C :   -0.534593
   1 C :   -0.237854
   2 C :   -0.311190
   3 C :    0.113501
   4 C :   -0.230742
   5 C :   -0.199749
   6 C :   -0.184417
   7 C :   -0.199059
   8 C :   -0.235901
   9 H :    0.157288
  10 H :    0.156886
  11 H :    0.164176
  12 H :    0.154516
  13 H :    0.159426
  14 H :    0.170375
  15 H :    0.167268
  16 H :    0.179864
  17 H :    0.176492
  18 H :    0.177975
  19 H :    0.176385
  20 H :    0.179353
Sum of atomic charges:   -0.0000000

LOEWDIN ATOMIC CHARGES
----------------------
   0 C :   -0.429472
   1 C :   -0.301167
   2 C :   -0.283415
   3 C :   -0.102281
   4 C :   -0.176675
   5 C :   -0.175876
   6 C :   -0.188347
   7 C :   -0.174745
   8 C :   -0.171243
   9 H :    0.153604
  10 H :    0.153296
  11 H :    0.156257
  12 H :    0.155526
  13 H :    0.157002
  14 H :    0.168308
  15 H :    0.171127
  16 H :    0.179079
  17 H :    0.176507
  18 H :    0.176021
  19 H :    0.176586
  20 H :    0.179908

  Mayer bond orders larger than 0.100000
B(  0-C ,  1-C ) :   0.8749 B(  0-C ,  9-H ) :   0.9741 B(  0-C , 10-H ) :   0.9657
B(  0-C , 11-H ) :   0.9786 B(  1-C ,  2-C ) :   0.8985 B(  1-C , 12-H ) :   0.9609
B(  1-C , 13-H ) :   0.9928 B(  2-C ,  3-C ) :   0.7957 B(  2-C , 14-H ) :   1.0083
B(  2-C , 15-H ) :   0.9726 B(  3-C ,  4-C ) :   1.3805 B(  3-C ,  8-C ) :   1.3721
B(  4-C ,  5-C ) :   1.4055 B(  4-C , 16-H ) :   0.9522 B(  5-C ,  6-C ) :   1.3915
B(  5-C , 17-H ) :   0.9568 B(  6-C ,  7-C ) :   1.3830 B(  6-C , 18-H ) :   0.9553
B(  7-C ,  8-C ) :   1.4142 B(  7-C , 19-H ) :   0.9589 B(  8-C , 20-H ) :   0.9524

Dispersion correction           -0.006999851
FINAL SINGLE POINT ENERGY      -350.081031610628

DIPOLE MOMENT
-------------

Method             : SCF
Type of density    : Electron Density
Multiplicity       :   1
Irrep              :   0
Energy             :  -350.0807325487661501 Eh
Relativity type    :
Basis              : AO
                                X                 Y                 Z
Electronic contribution:      7.595226204       0.868175050       1.473540412
Nuclear contribution   :     -7.876178906      -0.806827699      -1.447253777
                        -----------------------------------------
Total Dipole Moment    :     -0.280952702       0.061347351       0.026286635
                        -----------------------------------------
Magnitude (a.u.)       :      0.288771372
Magnitude (Debye)      :      0.733998496

Rotational constants in cm-1:             0.109595             0.036362             0.032467
Rotational constants in MHz :          3285.568398          1090.092661           973.336014

                             ****ORCA TERMINATED NORMALLY****
TOTAL RUN TIME: 0 days 0 hours 0 minutes 29 seconds 689 msec
