                         Program Version 6.0.0  -   RELEASE  -
|  1> ! pbe def2-sv(p) def2/J RI DEFGRID1 loosescf d4 GCP(DFT/SV(P)) printgap
|  2> %output
|  3>     printlevel normal
|  4> end
|  5> * xyz 0 1
|  6> C 2.221695491 -1.1554081369 0.5210947942
|  7> C 1.5158749881 -0.2585811734 -0.4899925881
|  8> C 0.3019741693 0.491071735 0.0951555341
|  9> H 0.3819549416 0.5027682475 1.1940432469
| 10> C -1.0502903434 -0.1399337434 -0.2842803465
| 11> C -1.1484876805 -1.6041362081 0.1324424753
| 12> C -2.1902972922 0.6553330925 0.3525955685
| 13> O 0.264857111 1.8315377695 -0.3785171896
| 14> H 3.0733103643 -1.6433777991 0.0533826639
| 15> H 1.5525783871 -1.921847883 0.9003136083
| 16> H 2.5831084734 -0.5700903058 1.3636922517
| 17> H 2.2279914694 0.4857450502 -0.8546464423
| 18> H 1.2009003156 -0.8430860676 -1.3555641618
| 19> H -1.1421555234 -0.0632238849 -1.3732801659
| 20> H -0.4179735271 -2.2182403209 -0.3852979314
| 21> H -0.9953382642 -1.7016333167 1.2050227427
| 22> H -2.1390462412 -1.9830824298 -0.1068047124
| 23> H -2.1441885236 0.5767517684 1.4368900455
| 24> H -3.1504679523 0.2724096244 0.0167281597
| 25> H -2.1150326983 1.7033010241 0.0757580539
| 26> H 1.0453251302 2.3023819868 -0.0586533698
| 27> *
| 28>
| 29>                          ****END OF INPUT****

CARTESIAN COORDINATES (ANGSTROEM)
---------------------------------
  C      2.221695   -1.155408    0.521095
  C      1.515875   -0.258581   -0.489993
  C      0.301974    0.491072    0.095156
  H      0.381955    0.502768    1.194043
  C     -1.050290   -0.139934   -0.284280
  C     -1.148488   -1.604136    0.132442
  C     -2.190297    0.655333    0.352596
  O      0.264857    1.831538   -0.378517
  H      3.073310   -1.643378    0.053383
  H      1.552578   -1.921848    0.900314
  H      2.583108   -0.570090    1.363692
  H      2.227991    0.485745   -0.854646
  H      1.200900   -0.843086   -1.355564
  H     -1.142156   -0.063224   -1.373280
  H     -0.417974   -2.218240   -0.385298
  H     -0.995338   -1.701633    1.205023
  H     -2.139046   -1.983082   -0.106805
  H     -2.144189    0.576752    1.436890
  H     -3.150468    0.272410    0.016728
  H     -2.115033    1.703301    0.075758
  H      1.045325    2.302382   -0.058653

 Total Charge           Charge          ....    0
 Multiplicity           Mult            ....    1
 Number of Electrons    NEL             ....   58
 Basis Dimension        Dim             ....  126

ORBITAL ENERGIES
----------------

  NO   OCC          E(Eh)            E(eV)
   0   2.0000     -18.736640      -509.8499
   1   2.0000      -9.931819      -270.2585
   2   2.0000      -9.889099      -269.0961
   3   2.0000      -9.882014      -268.9033
   4   2.0000      -9.876560      -268.7549
   5   2.0000      -9.872851      -268.6539
   6   2.0000      -9.861092      -268.3340
   7   2.0000      -0.914557       -24.8864
   8   2.0000      -0.724758       -19.7217
   9   2.0000      -0.684962       -18.6388
  10   2.0000      -0.605881       -16.4869
  11   2.0000      -0.597196       -16.2505
  12   2.0000      -0.535193       -14.5634
  13   2.0000      -0.494841       -13.4653
  14   2.0000      -0.458802       -12.4846
  15   2.0000      -0.417264       -11.3543
  16   2.0000      -0.403355       -10.9758
  17   2.0000      -0.371136       -10.0991
  18   2.0000      -0.368558       -10.0290
  19   2.0000      -0.354038        -9.6339
  20   2.0000      -0.337749        -9.1906
  21   2.0000      -0.330228        -8.9860
  22   2.0000      -0.323917        -8.8142
  23   2.0000      -0.308566        -8.3965
  24   2.0000      -0.290985        -7.9181
  25   2.0000      -0.286735        -7.8025
  26   2.0000      -0.280254        -7.6261
  27   2.0000      -0.255796        -6.9606
  28   2.0000      -0.209121        -5.6905
  29   0.0000       0.028561         0.7772
  30   0.0000       0.047128         1.2824
  31   0.0000       0.060545         1.6475
  32   0.0000       0.063161         1.7187
  33   0.0000       0.085273         2.3204

MULLIKEN ATOMIC CHARGES
-----------------------
   0 C :   -0.295448
   1 C :   -0.146406
   2 C :    0.050943
   3 H :    0.048256
   4 C :   -0.179855
   5 C :   -0.251299
   6 C :   -0.236297
   7 O :   -0.423840
   8 H :    0.103570
   9 H :    0.109492
  10 H :    0.098432
  11 H :    0.069652
  12 H :    0.089194
  13 H :    0.074054
  14 H :    0.108168
  15 H :    0.096625
  16 H :    0.101220
  17 H :    0.082173
  18 H :    0.093510
  19 H :    0.113694
  20 H :    0.294163
Sum of atomic charges:   -0.0000000

LOEWDIN ATOMIC CHARGES
----------------------
   0 C :   -0.343504
   1 C :   -0.245992
   2 C :   -0.043058
   3 H :    0.092202
   4 C :   -0.158602
   5 C :   -0.329818
   6 C :   -0.332813
   7 O :   -0.329146
   8 H :    0.120432
   9 H :    0.118069
  10 H :    0.115518
  11 H :    0.113562
  12 H :    0.118755
  13 H :    0.118597
  14 H :    0.116612
  15 H :    0.116514
  16 H :    0.121250
  17 H :    0.112863
  18 H :    0.114792
  19 H :    0.123244
  20 H :    0.280525

  Mayer bond orders larger than 0.100000
B(  0-C ,  1-C ) :   1.1368 B(  0-C ,  8-H ) :   0.9490 B(  0-C ,  9-H ) :   0.9478
B(  0-C , 10-H ) :   0.9524 B(  1-C ,  2-C ) :   1.0346 B(  1-C , 11-H ) :   0.9214
B(  1-C , 12-H ) :   0.9146 B(  2-C ,  3-H ) :   0.9108 B(  2-C ,  4-C ) :   1.0492
B(  2-C ,  7-O ) :   1.0601 B(  4-C ,  5-C ) :   1.1075 B(  4-C ,  6-C ) :   1.1174
B(  4-C , 13-H ) :   0.8858 B(  5-C , 14-H ) :   0.9388 B(  5-C , 15-H ) :   0.9431
B(  5-C , 16-H ) :   0.9476 B(  6-C , 17-H ) :   0.9485 B(  6-C , 18-H ) :   0.9512
B(  6-C , 19-H ) :   0.9411 B(  7-O , 20-H ) :   0.8507

Dispersion correction           -0.016678871
FINAL SINGLE POINT ENERGY      -311.514571088913

DIPOLE MOMENT
-------------

Method             : SCF
Type of density    : Electron Density
Multiplicity       :   1
Irrep              :   0
Energy             :  -311.5943084263016090 Eh
Relativity type    :
Basis              : AO
                                X                 Y                 Z
Electronic contribution:      0.509143221       4.626976193      -1.721881108
Nuclear contribution   :     -0.032689261      -4.758601252       1.975393637
                        -----------------------------------------
Total Dipole Moment    :      0.476453960      -0.131625059       0.253512530
                        -----------------------------------------
Magnitude (a.u.)       :      0.555519698
Magnitude (Debye)      :      1.412018858

Rotational constants in cm-1:             0.108542             0.065922             0.045635
Rotational constants in MHz :          3254.012391          1976.290279          1368.096489

                             ****ORCA TERMINATED NORMALLY****
TOTAL RUN TIME: 0 days 0 hours 0 minutes 9 seconds 57 msec
