                         Program Version 6.0.0  -   RELEASE  -
|  1> ! r2scan-3c def2/J RI DEFGRID2 scfconv6 printgap
|  2> %output
|  3>     printlevel normal
|  4> end
|  5> * xyz 0 1
|  6> C 0.0662619747 -0.1098350459 -0.2736287276
|  7> H -0.2424529689 0.1583475472 -1.2913315454
|  8> C 1.4848313124 0.4129426232 -0.0162047145
|  9> F 2.3506669192 -0.0488612128 -0.919836874
| 10> F 1.9449545404 0.0789666092 1.1864858535
| 11> F 1.518543985 1.7482695663 -0.0928075228
| 12> O -0.7550482439 0.4487610431 0.7075575732
| 13> C -2.0688697003 0.5926486592 0.4169902617
| 14> F -2.6703665453 -0.5860589057 0.1369533246
| 15> F -2.2486654496 1.3430910776 -0.6995092479
| 16> Cl 0.1164861972 -1.8995643355 -0.1534247789
| 17> H -2.5718847748 1.0697481227 1.2680823267
| 18> *
| 19>
| 20>                          ****END OF INPUT****

CARTESIAN COORDINATES (ANGSTROEM)
---------------------------------
  C      0.066262   -0.109835   -0.273629
  H     -0.242453    0.158348   -1.291332
  C      1.484831    0.412943   -0.016205
  F      2.350667   -0.048861   -0.919837
  F      1.944955    0.078967    1.186486
  F      1.518544    1.748270   -0.092808
  O     -0.755048    0.448761    0.707558
  C     -2.068870    0.592649    0.416990
  F     -2.670367   -0.586059    0.136953
  F     -2.248665    1.343091   -0.699509
  Cl     0.116486   -1.899564   -0.153425
  H     -2.571885    1.069748    1.268082

 Total Charge           Charge          ....    0
 Multiplicity           Mult            ....    1
 Number of Electrons    NEL             ....   90
 Basis Dimension        Dim             ....  238

ORBITAL ENERGIES
----------------

  NO   OCC          E(Eh)            E(eV)
   0   2.0000    -101.236110     -2754.7746
   1   2.0000     -24.539195      -667.7454
   2   2.0000     -24.538177      -667.7178
   3   2.0000     -24.537007      -667.6859
   4   2.0000     -24.527667      -667.4318
   5   2.0000     -24.524811      -667.3540
   6   2.0000     -19.046950      -518.2938
   7   2.0000     -10.308401      -280.5059
   8   2.0000     -10.274733      -279.5897
   9   2.0000     -10.204194      -277.6702
  10   2.0000      -9.391943      -255.5678
  11   2.0000      -7.138751      -194.2553
  12   2.0000      -7.127832      -193.9582
  13   2.0000      -7.127575      -193.9512
  14   2.0000      -1.301251       -35.4088
  15   2.0000      -1.261854       -34.3368
  16   2.0000      -1.209612       -32.9152
  17   2.0000      -1.208070       -32.8733
  18   2.0000      -1.189958       -32.3804
  19   2.0000      -1.100868       -29.9561
  20   2.0000      -0.858852       -23.3706
  21   2.0000      -0.757521       -20.6132
  22   2.0000      -0.695235       -18.9183
  23   2.0000      -0.638946       -17.3866
  24   2.0000      -0.593542       -16.1511
  25   2.0000      -0.587131       -15.9766
  26   2.0000      -0.577989       -15.7279
  27   2.0000      -0.559950       -15.2370
  28   2.0000      -0.553862       -15.0713
  29   2.0000      -0.530697       -14.4410
  30   2.0000      -0.472141       -12.8476
  31   2.0000      -0.451974       -12.2988
  32   2.0000      -0.445174       -12.1138
  33   2.0000      -0.443492       -12.0680
  34   2.0000      -0.417710       -11.3665
  35   2.0000      -0.408780       -11.1235
  36   2.0000      -0.403298       -10.9743
  37   2.0000      -0.401591       -10.9279
  38   2.0000      -0.389050       -10.5866
  39   2.0000      -0.385739       -10.4965
  40   2.0000      -0.374490       -10.1904
  41   2.0000      -0.372718       -10.1422
  42   2.0000      -0.336302        -9.1512
  43   2.0000      -0.305602        -8.3159
  44   2.0000      -0.300554        -8.1785
  45   0.0000      -0.036834        -1.0023
  46   0.0000       0.030755         0.8369
  47   0.0000       0.060711         1.6520
  48   0.0000       0.077320         2.1040
  49   0.0000       0.084894         2.3101

MULLIKEN ATOMIC CHARGES
-----------------------
   0 C :   -0.007702
   1 H :    0.197575
   2 C :    0.554709
   3 F :   -0.192294
   4 F :   -0.189221
   5 F :   -0.192155
   6 O :   -0.115773
   7 C :    0.372616
   8 F :   -0.220255
   9 F :   -0.236608
  10 Cl:   -0.108515
  11 H :    0.137623
Sum of atomic charges:    0.0000000

LOEWDIN ATOMIC CHARGES
----------------------
   0 C :    0.038679
   1 H :    0.209740
   2 C :    0.497759
   3 F :   -0.194337
   4 F :   -0.179897
   5 F :   -0.186421
   6 O :   -0.578765
   7 C :    0.494751
   8 F :   -0.225751
   9 F :   -0.234880
  10 Cl:    0.162501
  11 H :    0.196620

  Mayer bond orders larger than 0.100000
B(  0-C ,  1-H ) :   0.9140 B(  0-C ,  2-C ) :   0.9919 B(  0-C ,  6-O ) :   0.8840
B(  0-C , 10-Cl) :   1.0350 B(  2-C ,  3-F ) :   1.0346 B(  2-C ,  4-F ) :   1.0568
B(  2-C ,  5-F ) :   1.0301 B(  6-O ,  7-C ) :   1.0684 B(  7-C ,  8-F ) :   0.9854
B(  7-C ,  9-F ) :   0.9682 B(  7-C , 11-H ) :   0.9739

Dispersion correction           -0.003422234
FINAL SINGLE POINT ENERGY     -1150.115614628621

DIPOLE MOMENT
-------------

Method             : SCF
Type of density    : Electron Density
Multiplicity       :   1
Irrep              :   0
Energy             : -1150.1323167301356989 Eh
Relativity type    :
Basis              : AO
                                X                 Y                 Z
Electronic contribution:      3.136333102      -1.019535426      -0.487839432
Nuclear contribution   :     -3.637239728       1.359253877       0.554735003
                        -----------------------------------------
Total Dipole Moment    :     -0.500906626       0.339718451       0.066895571
                        -----------------------------------------
Magnitude (a.u.)       :      0.608926179
Magnitude (Debye)      :      1.547767343

Rotational constants in cm-1:             0.055174             0.027445             0.021496
Rotational constants in MHz :          1654.073387           822.784634           644.432647

                             ****ORCA TERMINATED NORMALLY****
TOTAL RUN TIME: 0 days 0 hours 0 minutes 25 seconds 751 msec
