                         Program Version 6.0.0  -   RELEASE  -
|  1> ! r2scan-3c def2/J RI DEFGRID2 scfconv6 printgap
|  2> %output
|  3>     printlevel normal
|  4> end
|  5> %cpcm
|  6>     smd true
|  7>     smdsolvent "water"
|  8> end
|  9> * xyz 0 1
| 10> C 0.0662619747 -0.1098350459 -0.2736287276
| 11> H -0.2424529689 0.1583475472 -1.2913315454
| 12> C 1.4848313124 0.4129426232 -0.0162047145
| 13> F 2.3506669192 -0.0488612128 -0.919836874
| 14> F 1.9449545404 0.0789666092 1.1864858535
| 15> F 1.518543985 1.7482695663 -0.0928075228
| 16> O -0.7550482439 0.4487610431 0.7075575732
| 17> C -2.0688697003 0.5926486592 0.4169902617
| 18> F -2.6703665453 -0.5860589057 0.1369533246
| 19> F -2.2486654496 1.3430910776 -0.6995092479
| 20> Cl 0.1164861972 -1.8995643355 -0.1534247789
| 21> H -2.5718847748 1.0697481227 1.2680823267
| 22> *
| 23>
| 24>                          ****END OF INPUT****

CARTESIAN COORDINATES (ANGSTROEM)
---------------------------------
  C      0.066262   -0.109835   -0.273629
  H     -0.242453    0.158348   -1.291332
  C      1.484831    0.412943   -0.016205
  F      2.350667   -0.048861   -0.919837
  F      1.944955    0.078967    1.186486
  F      1.518544    1.748270   -0.092808
  O     -0.755048    0.448761    0.707558
  C     -2.068870    0.592649    0.416990
  F     -2.670367   -0.586059    0.136953
  F     -2.248665    1.343091   -0.699509
  Cl     0.116486   -1.899564   -0.153425
  H     -2.571885    1.069748    1.268082

 Total Charge           Charge          ....    0
 Multiplicity           Mult            ....    1
 Number of Electrons    NEL             ....   90
 Basis Dimension        Dim             ....  238

ORBITAL ENERGIES
----------------

  NO   OCC          E(Eh)            E(eV)
   0   2.0000    -101.232346     -2754.6722
   1   2.0000     -24.536690      -667.6773
   2   2.0000     -24.536646      -667.6761
   3   2.0000     -24.535072      -667.6332
   4   2.0000     -24.514167      -667.0644
   5   2.0000     -24.513858      -667.0560
   6   2.0000     -19.035166      -517.9732
   7   2.0000     -10.305866      -280.4369
   8   2.0000     -10.257174      -279.1119
   9   2.0000     -10.192250      -277.3452
  10   2.0000      -9.388377      -255.4707
  11   2.0000      -7.134946      -194.1517
  12   2.0000      -7.124365      -193.8638
  13   2.0000      -7.124113      -193.8570
  14   2.0000      -1.299747       -35.3679
  15   2.0000      -1.249829       -34.0096
  16   2.0000      -1.208891       -32.8956
  17   2.0000      -1.206164       -32.8214
  18   2.0000      -1.178563       -32.0703
  19   2.0000      -1.089170       -29.6378
  20   2.0000      -0.852239       -23.1906
  21   2.0000      -0.749929       -20.4066
  22   2.0000      -0.686709       -18.6863
  23   2.0000      -0.631117       -17.1736
  24   2.0000      -0.586795       -15.9675
  25   2.0000      -0.579472       -15.7682
  26   2.0000      -0.573775       -15.6132
  27   2.0000      -0.551012       -14.9938
  28   2.0000      -0.543055       -14.7773
  29   2.0000      -0.518100       -14.0982
  30   2.0000      -0.464829       -12.6486
  31   2.0000      -0.448353       -12.2003
  32   2.0000      -0.443123       -12.0580
  33   2.0000      -0.436315       -11.8727
  34   2.0000      -0.409824       -11.1519
  35   2.0000      -0.406497       -11.0613
  36   2.0000      -0.400098       -10.8872
  37   2.0000      -0.394451       -10.7335
  38   2.0000      -0.384939       -10.4747
  39   2.0000      -0.379149       -10.3172
  40   2.0000      -0.364253        -9.9118
  41   2.0000      -0.357991        -9.7414
  42   2.0000      -0.326680        -8.8894
  43   2.0000      -0.302085        -8.2201
  44   2.0000      -0.297149        -8.0858
  45   0.0000      -0.030073        -0.8183
  46   0.0000       0.041085         1.1180
  47   0.0000       0.077018         2.0958
  48   0.0000       0.095134         2.5887
  49   0.0000       0.106662         2.9024

MULLIKEN ATOMIC CHARGES
-----------------------
   0 C :   -0.005278
   1 H :    0.250317
   2 C :    0.548307
   3 F :   -0.196661
   4 F :   -0.195486
   5 F :   -0.195401
   6 O :   -0.127472
   7 C :    0.358211
   8 F :   -0.236221
   9 F :   -0.245885
  10 Cl:   -0.141060
  11 H :    0.186629
Sum of atomic charges:   -0.0000000

LOEWDIN ATOMIC CHARGES
----------------------
   0 C :    0.044585
   1 H :    0.228890
   2 C :    0.498033
   3 F :   -0.197329
   4 F :   -0.187432
   5 F :   -0.187483
   6 O :   -0.582179
   7 C :    0.499221
   8 F :   -0.236406
   9 F :   -0.239776
  10 Cl:    0.142862
  11 H :    0.217014

  Mayer bond orders larger than 0.100000
B(  0-C ,  1-H ) :   0.8991 B(  0-C ,  2-C ) :   0.9940 B(  0-C ,  6-O ) :   0.8884
B(  0-C , 10-Cl) :   0.9945 B(  2-C ,  3-F ) :   1.0346 B(  2-C ,  4-F ) :   1.0486
B(  2-C ,  5-F ) :   1.0347 B(  6-O ,  7-C ) :   1.0621 B(  7-C ,  8-F ) :   0.9724
B(  7-C ,  9-F ) :   0.9645 B(  7-C , 11-H ) :   0.9596

Dispersion correction           -0.003422234
FINAL SINGLE POINT ENERGY     -1150.116987349135

DIPOLE MOMENT
-------------

Method             : SCF
Type of density    : Electron Density
Multiplicity       :   1
Irrep              :   0
Energy             : -1150.1336894506498538 Eh
Relativity type    :
Basis              : AO
                                X                 Y                 Z
Electronic contribution:      2.995264933      -0.826260388      -0.540352420
Nuclear contribution   :     -3.637239728       1.359253877       0.554735003
                        -----------------------------------------
Total Dipole Moment    :     -0.641974794       0.532993489       0.014382583
                        -----------------------------------------
Magnitude (a.u.)       :      0.834518157
Magnitude (Debye)      :      2.121176583

Rotational constants in cm-1:             0.055174             0.027445             0.021496
Rotational constants in MHz :          1654.073387           822.784634           644.432647

                             ****ORCA TERMINATED NORMALLY****
TOTAL RUN TIME: 0 days 0 hours 0 minutes 32 seconds 608 msec
