                         Program Version 6.0.0  -   RELEASE  -
|  1> ! r2scan-3c def2/J RI DEFGRID2 scfconv6 printgap
|  2> %output
|  3>     printlevel normal
|  4> end
|  5> * xyz 0 1
|  6> C -2.8047634807 0.2547255306 -0.3957291955
|  7> C -1.6742622436 0.4839044002 0.6093048646
|  8> C -0.4114080352 -0.1809248261 0.1236364272
|  9> O -0.2722518135 -1.3778932946 -0.0196192339
| 10> O 0.5312794953 0.7088864442 -0.1590545265
| 11> C 1.8021519 0.2373698536 -0.6387094931
| 12> C 2.7387649863 -0.0799566443 0.5168510738
| 13> H -2.9367294112 -0.8106681455 -0.5686119311
| 14> H -3.731579797 0.6680659258 -0.0101073564
| 15> H -2.5741940646 0.7343708803 -1.3436690503
| 16> H -1.9434014586 0.0332717839 1.5653742255
| 17> H -1.4817736412 1.5470658396 0.7431315654
| 18> H 1.6342580331 -0.6514806967 -1.2544090414
| 19> H 2.1869288178 1.0551527114 -1.2487308431
| 20> H 2.8516734142 0.7909698979 1.1567529462
| 21> H 2.3388765966 -0.9028155942 1.1052621507
| 22> H 3.7092798111 -0.3660834796 0.1249348553
| 23> *
| 24>
| 25>                          ****END OF INPUT****

CARTESIAN COORDINATES (ANGSTROEM)
---------------------------------
  C     -2.804763    0.254726   -0.395729
  C     -1.674262    0.483904    0.609305
  C     -0.411408   -0.180925    0.123636
  O     -0.272252   -1.377893   -0.019619
  O      0.531279    0.708886   -0.159055
  C      1.802152    0.237370   -0.638709
  C      2.738765   -0.079957    0.516851
  H     -2.936729   -0.810668   -0.568612
  H     -3.731580    0.668066   -0.010107
  H     -2.574194    0.734371   -1.343669
  H     -1.943401    0.033272    1.565374
  H     -1.481774    1.547066    0.743132
  H      1.634258   -0.651481   -1.254409
  H      2.186929    1.055153   -1.248731
  H      2.851673    0.790970    1.156753
  H      2.338877   -0.902816    1.105262
  H      3.709280   -0.366083    0.124935

 Total Charge           Charge          ....    0
 Multiplicity           Mult            ....    1
 Number of Electrons    NEL             ....   56
 Basis Dimension        Dim             ....  193

ORBITAL ENERGIES
----------------

  NO   OCC          E(Eh)            E(eV)
   0   2.0000     -18.996898      -516.9319
   1   2.0000     -18.926908      -515.0273
   2   2.0000     -10.151141      -276.2266
   3   2.0000     -10.090804      -274.5847
   4   2.0000     -10.042814      -273.2789
   5   2.0000     -10.028866      -272.8993
   6   2.0000     -10.028730      -272.8956
   7   2.0000      -1.071140       -29.1472
   8   2.0000      -0.974932       -26.5292
   9   2.0000      -0.763844       -20.7853
  10   2.0000      -0.730430       -19.8760
  11   2.0000      -0.643908       -17.5216
  12   2.0000      -0.595351       -16.2003
  13   2.0000      -0.522573       -14.2199
  14   2.0000      -0.472744       -12.8640
  15   2.0000      -0.453045       -12.3280
  16   2.0000      -0.433845       -11.8055
  17   2.0000      -0.416506       -11.3337
  18   2.0000      -0.409504       -11.1432
  19   2.0000      -0.380244       -10.3470
  20   2.0000      -0.364180        -9.9098
  21   2.0000      -0.355554        -9.6751
  22   2.0000      -0.334181        -9.0935
  23   2.0000      -0.332685        -9.0528
  24   2.0000      -0.320069        -8.7095
  25   2.0000      -0.305073        -8.3015
  26   2.0000      -0.270645        -7.3646
  27   2.0000      -0.235305        -6.4030
  28   0.0000      -0.014716        -0.4004
  29   0.0000       0.076474         2.0810
  30   0.0000       0.094019         2.5584
  31   0.0000       0.119677         3.2566
  32   0.0000       0.122602         3.3362

MULLIKEN ATOMIC CHARGES
-----------------------
   0 C :   -0.463747
   1 C :   -0.299787
   2 C :    0.413236
   3 O :   -0.438746
   4 O :   -0.178624
   5 C :   -0.139239
   6 C :   -0.466431
   7 H :    0.170756
   8 H :    0.151448
   9 H :    0.145681
  10 H :    0.159561
  11 H :    0.160791
  12 H :    0.168831
  13 H :    0.147284
  14 H :    0.151424
  15 H :    0.170963
  16 H :    0.146599
Sum of atomic charges:    0.0000000

LOEWDIN ATOMIC CHARGES
----------------------
   0 C :   -0.393555
   1 C :   -0.237066
   2 C :    0.358475
   3 O :   -0.437111
   4 O :   -0.596472
   5 C :    0.026819
   6 C :   -0.389899
   7 H :    0.164149
   8 H :    0.152133
   9 H :    0.154831
  10 H :    0.176648
  11 H :    0.173889
  12 H :    0.188629
  13 H :    0.177481
  14 H :    0.157096
  15 H :    0.164823
  16 H :    0.159130

  Mayer bond orders larger than 0.100000
B(  0-C ,  1-C ) :   0.9003 B(  0-C ,  7-H ) :   0.9735 B(  0-C ,  8-H ) :   0.9727
B(  0-C ,  9-H ) :   0.9746 B(  1-C ,  2-C ) :   0.9503 B(  1-C , 10-H ) :   0.9556
B(  1-C , 11-H ) :   0.9851 B(  2-C ,  3-O ) :   1.8186 B(  2-C ,  4-O ) :   1.0626
B(  4-O ,  5-C ) :   0.8208 B(  5-C ,  6-C ) :   0.9394 B(  5-C , 12-H ) :   0.9663
B(  5-C , 13-H ) :   0.9611 B(  6-C , 14-H ) :   0.9734 B(  6-C , 15-H ) :   0.9713
B(  6-C , 16-H ) :   0.9653

Dispersion correction           -0.003960193
FINAL SINGLE POINT ENERGY      -346.936240091259

DIPOLE MOMENT
-------------

Method             : SCF
Type of density    : Electron Density
Multiplicity       :   1
Irrep              :   0
Energy             :  -346.9427044877975277 Eh
Relativity type    :
Basis              : AO
                                X                 Y                 Z
Electronic contribution:      0.160437465      -1.236747579      -0.245007171
Nuclear contribution   :      0.053880629       1.958214440       0.250588102
                        -----------------------------------------
Total Dipole Moment    :      0.214318094       0.721466861       0.005580930
                        -----------------------------------------
Magnitude (a.u.)       :      0.752647211
Magnitude (Debye)      :      1.913077175

Rotational constants in cm-1:             0.221623             0.046622             0.043668
Rotational constants in MHz :          6644.078281          1397.697454          1309.125328

                             ****ORCA TERMINATED NORMALLY****
TOTAL RUN TIME: 0 days 0 hours 0 minutes 23 seconds 208 msec
