                         Program Version 6.0.0  -   RELEASE  -
|  1> ! r2scan-3c def2/J RI DEFGRID2 scfconv6 printgap
|  2> %output
|  3>     printlevel normal
|  4> end
|  5> %cpcm
|  6>     smd true
|  7>     smdsolvent "water"
|  8> end
|  9> * xyz 0 1
| 10> C -2.8047634807 0.2547255306 -0.3957291955
| 11> C -1.6742622436 0.4839044002 0.6093048646
| 12> C -0.4114080352 -0.1809248261 0.1236364272
| 13> O -0.2722518135 -1.3778932946 -0.0196192339
| 14> O 0.5312794953 0.7088864442 -0.1590545265
| 15> C 1.8021519 0.2373698536 -0.6387094931
| 16> C 2.7387649863 -0.0799566443 0.5168510738
| 17> H -2.9367294112 -0.8106681455 -0.5686119311
| 18> H -3.731579797 0.6680659258 -0.0101073564
| 19> H -2.5741940646 0.7343708803 -1.3436690503
| 20> H -1.9434014586 0.0332717839 1.5653742255
| 21> H -1.4817736412 1.5470658396 0.7431315654
| 22> H 1.6342580331 -0.6514806967 -1.2544090414
| 23> H 2.1869288178 1.0551527114 -1.2487308431
| 24> H 2.8516734142 0.7909698979 1.1567529462
| 25> H 2.3388765966 -0.9028155942 1.1052621507
| 26> H 3.7092798111 -0.3660834796 0.1249348553
| 27> *
| 28>
| 29>                          ****END OF INPUT****

CARTESIAN COORDINATES (ANGSTROEM)
---------------------------------
  C     -2.804763    0.254726   -0.395729
  C     -1.674262    0.483904    0.609305
  C     -0.411408   -0.180925    0.123636
  O     -0.272252   -1.377893   -0.019619
  O      0.531279    0.708886   -0.159055
  C      1.802152    0.237370   -0.638709
  C      2.738765   -0.079957    0.516851
  H     -2.936729   -0.810668   -0.568612
  H     -3.731580    0.668066   -0.010107
  H     -2.574194    0.734371   -1.343669
  H     -1.943401    0.033272    1.565374
  H     -1.481774    1.547066    0.743132
  H      1.634258   -0.651481   -1.254409
  H      2.186929    1.055153   -1.248731
  H      2.851673    0.790970    1.156753
  H      2.338877   -0.902816    1.105262
  H      3.709280   -0.366083    0.124935

 Total Charge           Charge          ....    0
 Multiplicity           Mult            ....    1
 Number of Electrons    NEL             ....   56
 Basis Dimension        Dim             ....  193

ORBITAL ENERGIES
----------------

  NO   OCC          E(Eh)            E(eV)
   0   2.0000     -19.002872      -517.0944
   1   2.0000     -18.943026      -515.4659
   2   2.0000     -10.162002      -276.5221
   3   2.0000     -10.083066      -274.3742
   4   2.0000     -10.037209      -273.1263
   5   2.0000     -10.021144      -272.6892
   6   2.0000     -10.018418      -272.6150
   7   2.0000      -1.078751       -29.3543
   8   2.0000      -0.988880       -26.9088
   9   2.0000      -0.760187       -20.6857
  10   2.0000      -0.723401       -19.6847
  11   2.0000      -0.639226       -17.3942
  12   2.0000      -0.589456       -16.0399
  13   2.0000      -0.520888       -14.1741
  14   2.0000      -0.472423       -12.8553
  15   2.0000      -0.461700       -12.5635
  16   2.0000      -0.435479       -11.8500
  17   2.0000      -0.413029       -11.2391
  18   2.0000      -0.409045       -11.1307
  19   2.0000      -0.377732       -10.2786
  20   2.0000      -0.356363        -9.6971
  21   2.0000      -0.350714        -9.5434
  22   2.0000      -0.331224        -9.0131
  23   2.0000      -0.330408        -8.9909
  24   2.0000      -0.313429        -8.5288
  25   2.0000      -0.303344        -8.2544
  26   2.0000      -0.278400        -7.5757
  27   2.0000      -0.251649        -6.8477
  28   0.0000      -0.022903        -0.6232
  29   0.0000       0.078921         2.1476
  30   0.0000       0.101664         2.7664
  31   0.0000       0.127633         3.4731
  32   0.0000       0.133132         3.6227

MULLIKEN ATOMIC CHARGES
-----------------------
   0 C :   -0.493210
   1 C :   -0.312578
   2 C :    0.453068
   3 O :   -0.522411
   4 O :   -0.198040
   5 C :   -0.143907
   6 C :   -0.492063
   7 H :    0.166421
   8 H :    0.171516
   9 H :    0.163205
  10 H :    0.184109
  11 H :    0.175574
  12 H :    0.171766
  13 H :    0.173583
  14 H :    0.165447
  15 H :    0.167532
  16 H :    0.169989
Sum of atomic charges:    0.0000000

LOEWDIN ATOMIC CHARGES
----------------------
   0 C :   -0.396609
   1 C :   -0.233407
   2 C :    0.368362
   3 O :   -0.497030
   4 O :   -0.598457
   5 C :    0.031660
   6 C :   -0.392792
   7 H :    0.161116
   8 H :    0.159949
   9 H :    0.159925
  10 H :    0.185439
  11 H :    0.181267
  12 H :    0.189648
  13 H :    0.188982
  14 H :    0.161975
  15 H :    0.162187
  16 H :    0.167785

  Mayer bond orders larger than 0.100000
B(  0-C ,  1-C ) :   0.8852 B(  0-C ,  7-H ) :   0.9742 B(  0-C ,  8-H ) :   0.9667
B(  0-C ,  9-H ) :   0.9712 B(  1-C ,  2-C ) :   0.9525 B(  1-C , 10-H ) :   0.9486
B(  1-C , 11-H ) :   0.9765 B(  2-C ,  3-O ) :   1.7508 B(  2-C ,  4-O ) :   1.0860
B(  4-O ,  5-C ) :   0.8026 B(  5-C ,  6-C ) :   0.9380 B(  5-C , 12-H ) :   0.9626
B(  5-C , 13-H ) :   0.9517 B(  6-C , 14-H ) :   0.9696 B(  6-C , 15-H ) :   0.9689
B(  6-C , 16-H ) :   0.9602

Dispersion correction           -0.003960193
FINAL SINGLE POINT ENERGY      -346.941238320900

DIPOLE MOMENT
-------------

Method             : SCF
Type of density    : Electron Density
Multiplicity       :   1
Irrep              :   0
Energy             :  -346.9477027174388581 Eh
Relativity type    :
Basis              : AO
                                X                 Y                 Z
Electronic contribution:      0.225496448      -0.886235092      -0.243080321
Nuclear contribution   :      0.053880629       1.958214440       0.250588102
                        -----------------------------------------
Total Dipole Moment    :      0.279377077       1.071979349       0.007507780
                        -----------------------------------------
Magnitude (a.u.)       :      1.107812097
Magnitude (Debye)      :      2.815834572

Rotational constants in cm-1:             0.221623             0.046622             0.043668
Rotational constants in MHz :          6644.078281          1397.697454          1309.125328

                             ****ORCA TERMINATED NORMALLY****
TOTAL RUN TIME: 0 days 0 hours 0 minutes 25 seconds 221 msec
