                         Program Version 6.0.0  -   RELEASE  -
|  1> ! wb97x-v def2-tzvp def2/J RIJCOSX DEFGRID2 scfconv7 GCP(DFT/TZ) printgap
|  2> %output
|  3>     printlevel normal
|  4> end
|  5> * xyz 0 1
|  6> C 2.2569752644360745 -0.6342156778227893 -0.9074122569888963
|  7> C 1.1871593025670242 -0.32276382237855744 0.12399354909526494
|  8> C 1.6097049133183634 0.8102968163533661 1.0491672825784222
|  9> O 0.00022369936147630077 3.2770239700738045e-05 -0.6347603899592745
| 10> C -1.1872194994872802 0.3226582068854226 0.12328363044682852
| 11> C -2.2563866353305047 0.6341733249716688 -0.9087757545028208
| 12> C -1.6102986904447119 -0.810549096666533 1.048036471613758
| 13> H 1.9285928791326818 -1.433368764116204 -1.5790654615571287
| 14> H 2.4842956836363417 0.25489500742098375 -1.5058306109690305
| 15> H 3.1749927417264545 -0.9595665302914481 -0.4095303287056718
| 16> H 0.9951637884664774 -1.2267549252358445 0.7203793527421124
| 17> H 0.888994840132288 0.9806899345622385 1.85397652821924
| 18> H 1.7318021894670437 1.7404414509477646 0.48251174985326645
| 19> H 2.569751102688034 0.5609559320919526 1.511919966374133
| 20> H -0.995656017205102 1.2265809634129903 0.7199139757246004
| 21> H -3.1748433461181986 0.9591196866003099 -0.41144225439621845
| 22> H -1.9277473690148528 1.433621294481563 -1.5799528414338735
| 23> H -2.4830453407251496 -0.2548127598859224 -1.5076284688793913
| 24> H -1.7320327492300116 -1.7406196657432385 0.4811807886406936
| 25> H -2.570628524514542 -0.5612913519548844 1.5102432594001145
| 26> H -0.890068820689692 -0.9810259467015775 1.853254983518428
| 27> *
| 28>
| 29>                          ****END OF INPUT****

CARTESIAN COORDINATES (ANGSTROEM)
---------------------------------
  C      2.256975   -0.634216   -0.907412
  C      1.187159   -0.322764    0.123994
  C      1.609705    0.810297    1.049167
  O      0.000224    0.000033   -0.634760
  C     -1.187219    0.322658    0.123284
  C     -2.256387    0.634173   -0.908776
  C     -1.610299   -0.810549    1.048036
  H      1.928593   -1.433369   -1.579065
  H      2.484296    0.254895   -1.505831
  H      3.174993   -0.959567   -0.409530
  H      0.995164   -1.226755    0.720379
  H      0.888995    0.980690    1.853977
  H      1.731802    1.740441    0.482512
  H      2.569751    0.560956    1.511920
  H     -0.995656    1.226581    0.719914
  H     -3.174843    0.959120   -0.411442
  H     -1.927747    1.433621   -1.579953
  H     -2.483045   -0.254813   -1.507628
  H     -1.732033   -1.740620    0.481181
  H     -2.570629   -0.561291    1.510243
  H     -0.890069   -0.981026    1.853255

 Total Charge           Charge          ....    0
 Multiplicity           Mult            ....    1
 Number of Electrons    NEL             ....   58
 Basis Dimension        Dim             ....  301

ORBITAL ENERGIES
----------------

  NO   OCC          E(Eh)            E(eV)
   0   2.0000     -21.660666      -589.4167
   1   2.0000     -12.092925      -329.0652
   2   2.0000     -12.092765      -329.0609
   3   2.0000     -12.035073      -327.4910
   4   2.0000     -12.035022      -327.4896
   5   2.0000     -12.030044      -327.3541
   6   2.0000     -12.030021      -327.3535
   7   2.0000      -1.661110       -45.2011
   8   2.0000      -1.316231       -35.8165
   9   2.0000      -1.268317       -34.5127
  10   2.0000      -1.182863       -32.1873
  11   2.0000      -1.182625       -32.1809
  12   2.0000      -1.116261       -30.3750
  13   2.0000      -1.046351       -28.4726
  14   2.0000      -0.983057       -26.7503
  15   2.0000      -0.939630       -25.5686
  16   2.0000      -0.936051       -25.4712
  17   2.0000      -0.882919       -24.0254
  18   2.0000      -0.850825       -23.1521
  19   2.0000      -0.838925       -22.8283
  20   2.0000      -0.824629       -22.4393
  21   2.0000      -0.824340       -22.4314
  22   2.0000      -0.812872       -22.1194
  23   2.0000      -0.808409       -21.9979
  24   2.0000      -0.805415       -21.9165
  25   2.0000      -0.787411       -21.4265
  26   2.0000      -0.785045       -21.3622
  27   2.0000      -0.762107       -20.7380
  28   2.0000      -0.753029       -20.4910
  29   0.0000      -0.165998        -4.5170
  30   0.0000      -0.103331        -2.8118
  31   0.0000      -0.033277        -0.9055
  32   0.0000      -0.015107        -0.4111
  33   0.0000      -0.006292        -0.1712

MULLIKEN ATOMIC CHARGES
-----------------------
   0 C :   -0.318753
   1 C :    0.075941
   2 C :   -0.350323
   3 O :   -0.286347
   4 C :    0.075941
   5 C :   -0.318770
   6 C :   -0.350319
   7 H :    0.116855
   8 H :    0.107601
   9 H :    0.100382
  10 H :    0.066622
  11 H :    0.116048
  12 H :    0.116257
  13 H :    0.112537
  14 H :    0.066630
  15 H :    0.100378
  16 H :    0.116856
  17 H :    0.107612
  18 H :    0.116262
  19 H :    0.112540
  20 H :    0.116050
Sum of atomic charges:   -0.0000000

LOEWDIN ATOMIC CHARGES
----------------------
   0 C :   -0.281114
   1 C :   -0.369420
   2 C :   -0.288685
   3 O :    0.168228
   4 C :   -0.369413
   5 C :   -0.281116
   6 C :   -0.288686
   7 H :    0.121178
   8 H :    0.121272
   9 H :    0.119327
  10 H :    0.130343
  11 H :    0.116095
  12 H :    0.123213
  13 H :    0.123675
  14 H :    0.130343
  15 H :    0.119327
  16 H :    0.121176
  17 H :    0.121274
  18 H :    0.123214
  19 H :    0.123674
  20 H :    0.116095

  Mayer bond orders larger than 0.100000
B(  0-C ,  1-C ) :   0.9892 B(  0-C ,  7-H ) :   0.9808 B(  0-C ,  8-H ) :   0.9793
B(  0-C ,  9-H ) :   0.9752 B(  1-C ,  2-C ) :   0.9512 B(  1-C ,  3-O ) :   1.0222
B(  1-C , 10-H ) :   0.9781 B(  2-C , 11-H ) :   0.9773 B(  2-C , 12-H ) :   0.9749
B(  2-C , 13-H ) :   0.9728 B(  3-O ,  4-C ) :   1.0222 B(  4-C ,  5-C ) :   0.9893
B(  4-C ,  6-C ) :   0.9512 B(  4-C , 14-H ) :   0.9781 B(  5-C , 15-H ) :   0.9752
B(  5-C , 16-H ) :   0.9808 B(  5-C , 17-H ) :   0.9793 B(  6-C , 18-H ) :   0.9749
B(  6-C , 19-H ) :   0.9728 B(  6-C , 20-H ) :   0.9773

FINAL SINGLE POINT ENERGY      -312.304928548463

DIPOLE MOMENT
-------------

Method             : SCF
Type of density    : Electron Density
Multiplicity       :   1
Irrep              :   0
Energy             :  -312.3203173224629268 Eh
Relativity type    :
Basis              : AO
                                X                 Y                 Z
Electronic contribution:      0.000524716       0.000298445      -1.700310171
Nuclear contribution   :     -0.000703049      -0.000366462       2.210990962
                        -----------------------------------------
Total Dipole Moment    :     -0.000178333      -0.000068017       0.510680791
                        -----------------------------------------
Magnitude (a.u.)       :      0.510680827
Magnitude (Debye)      :      1.298047504

Rotational constants in cm-1:             0.139424             0.051481             0.047017
Rotational constants in MHz :          4179.816334          1543.359858          1409.533014

                             ****ORCA TERMINATED NORMALLY****
TOTAL RUN TIME: 0 days 0 hours 2 minutes 10 seconds 948 msec
