                         Program Version 6.0.0  -   RELEASE  -
|  1> ! wb97x-v def2-tzvp def2/J RIJCOSX DEFGRID2 scfconv7 GCP(DFT/TZ) printgap
|  2> %output
|  3>     printlevel normal
|  4> end
|  5> %cpcm
|  6>     smd true
|  7>     smdsolvent "water"
|  8> end
|  9> * xyz 0 1
| 10> C 2.2569752644360745 -0.6342156778227893 -0.9074122569888963
| 11> C 1.1871593025670242 -0.32276382237855744 0.12399354909526494
| 12> C 1.6097049133183634 0.8102968163533661 1.0491672825784222
| 13> O 0.00022369936147630077 3.2770239700738045e-05 -0.6347603899592745
| 14> C -1.1872194994872802 0.3226582068854226 0.12328363044682852
| 15> C -2.2563866353305047 0.6341733249716688 -0.9087757545028208
| 16> C -1.6102986904447119 -0.810549096666533 1.048036471613758
| 17> H 1.9285928791326818 -1.433368764116204 -1.5790654615571287
| 18> H 2.4842956836363417 0.25489500742098375 -1.5058306109690305
| 19> H 3.1749927417264545 -0.9595665302914481 -0.4095303287056718
| 20> H 0.9951637884664774 -1.2267549252358445 0.7203793527421124
| 21> H 0.888994840132288 0.9806899345622385 1.85397652821924
| 22> H 1.7318021894670437 1.7404414509477646 0.48251174985326645
| 23> H 2.569751102688034 0.5609559320919526 1.511919966374133
| 24> H -0.995656017205102 1.2265809634129903 0.7199139757246004
| 25> H -3.1748433461181986 0.9591196866003099 -0.41144225439621845
| 26> H -1.9277473690148528 1.433621294481563 -1.5799528414338735
| 27> H -2.4830453407251496 -0.2548127598859224 -1.5076284688793913
| 28> H -1.7320327492300116 -1.7406196657432385 0.4811807886406936
| 29> H -2.570628524514542 -0.5612913519548844 1.5102432594001145
| 30> H -0.890068820689692 -0.9810259467015775 1.853254983518428
| 31> *
| 32>
| 33>                          ****END OF INPUT****

CARTESIAN COORDINATES (ANGSTROEM)
---------------------------------
  C      2.256975   -0.634216   -0.907412
  C      1.187159   -0.322764    0.123994
  C      1.609705    0.810297    1.049167
  O      0.000224    0.000033   -0.634760
  C     -1.187219    0.322658    0.123284
  C     -2.256387    0.634173   -0.908776
  C     -1.610299   -0.810549    1.048036
  H      1.928593   -1.433369   -1.579065
  H      2.484296    0.254895   -1.505831
  H      3.174993   -0.959567   -0.409530
  H      0.995164   -1.226755    0.720379
  H      0.888995    0.980690    1.853977
  H      1.731802    1.740441    0.482512
  H      2.569751    0.560956    1.511920
  H     -0.995656    1.226581    0.719914
  H     -3.174843    0.959120   -0.411442
  H     -1.927747    1.433621   -1.579953
  H     -2.483045   -0.254813   -1.507628
  H     -1.732033   -1.740620    0.481181
  H     -2.570629   -0.561291    1.510243
  H     -0.890069   -0.981026    1.853255

 Total Charge           Charge          ....    0
 Multiplicity           Mult            ....    1
 Number of Electrons    NEL             ....   58
 Basis Dimension        Dim             ....  301

ORBITAL ENERGIES
----------------

  NO   OCC          E(Eh)            E(eV)
   0   2.0000     -21.667620      -589.6059
   1   2.0000     -12.089078      -328.9605
   2   2.0000     -12.088920      -328.9562
   3   2.0000     -12.026018      -327.2446
   4   2.0000     -12.025985      -327.2437
   5   2.0000     -12.025476      -327.2298
   6   2.0000     -12.025434      -327.2287
   7   2.0000      -1.668303       -45.3968
   8   2.0000      -1.313681       -35.7471
   9   2.0000      -1.263332       -34.3770
  10   2.0000      -1.177655       -32.0456
  11   2.0000      -1.176310       -32.0090
  12   2.0000      -1.116158       -30.3722
  13   2.0000      -1.044664       -28.4267
  14   2.0000      -0.982421       -26.7330
  15   2.0000      -0.940890       -25.6029
  16   2.0000      -0.938695       -25.5432
  17   2.0000      -0.877835       -23.8871
  18   2.0000      -0.845716       -23.0131
  19   2.0000      -0.834762       -22.7150
  20   2.0000      -0.822566       -22.3832
  21   2.0000      -0.818664       -22.2770
  22   2.0000      -0.805031       -21.9060
  23   2.0000      -0.801713       -21.8157
  24   2.0000      -0.801691       -21.8151
  25   2.0000      -0.780429       -21.2366
  26   2.0000      -0.780107       -21.2278
  27   2.0000      -0.756622       -20.5887
  28   2.0000      -0.749585       -20.3973
  29   0.0000      -0.164079        -4.4648
  30   0.0000      -0.102333        -2.7846
  31   0.0000      -0.022041        -0.5998
  32   0.0000      -0.009924        -0.2700
  33   0.0000       0.001345         0.0366

MULLIKEN ATOMIC CHARGES
-----------------------
   0 C :   -0.375457
   1 C :    0.091468
   2 C :   -0.400280
   3 O :   -0.374236
   4 C :    0.091463
   5 C :   -0.375477
   6 C :   -0.400274
   7 H :    0.127603
   8 H :    0.121626
   9 H :    0.128533
  10 H :    0.092364
  11 H :    0.141210
  12 H :    0.124242
  13 H :    0.135804
  14 H :    0.092371
  15 H :    0.128530
  16 H :    0.127612
  17 H :    0.121631
  18 H :    0.124248
  19 H :    0.135808
  20 H :    0.141212
Sum of atomic charges:    0.0000000

LOEWDIN ATOMIC CHARGES
----------------------
   0 C :   -0.290368
   1 C :   -0.368559
   2 C :   -0.290621
   3 O :    0.132805
   4 C :   -0.368552
   5 C :   -0.290370
   6 C :   -0.290621
   7 H :    0.120701
   8 H :    0.122004
   9 H :    0.127094
  10 H :    0.137916
  11 H :    0.122169
  12 H :    0.123898
  13 H :    0.129359
  14 H :    0.137916
  15 H :    0.127095
  16 H :    0.120701
  17 H :    0.122004
  18 H :    0.123900
  19 H :    0.129359
  20 H :    0.122169

  Mayer bond orders larger than 0.100000
B(  0-C ,  1-C ) :   0.9802 B(  0-C ,  7-H ) :   0.9780 B(  0-C ,  8-H ) :   0.9741
B(  0-C ,  9-H ) :   0.9732 B(  1-C ,  2-C ) :   0.9577 B(  1-C ,  3-O ) :   0.9877
B(  1-C , 10-H ) :   0.9804 B(  2-C , 11-H ) :   0.9734 B(  2-C , 12-H ) :   0.9684
B(  2-C , 13-H ) :   0.9694 B(  3-O ,  4-C ) :   0.9877 B(  4-C ,  5-C ) :   0.9802
B(  4-C ,  6-C ) :   0.9577 B(  4-C , 14-H ) :   0.9804 B(  5-C , 15-H ) :   0.9732
B(  5-C , 16-H ) :   0.9780 B(  5-C , 17-H ) :   0.9741 B(  6-C , 18-H ) :   0.9684
B(  6-C , 19-H ) :   0.9694 B(  6-C , 20-H ) :   0.9734

FINAL SINGLE POINT ENERGY      -312.307519298123

DIPOLE MOMENT
-------------

Method             : SCF
Type of density    : Electron Density
Multiplicity       :   1
Irrep              :   0
Energy             :  -312.3229080721225159 Eh
Relativity type    :
Basis              : AO
                                X                 Y                 Z
Electronic contribution:      0.000403255       0.000255665      -1.338078464
Nuclear contribution   :     -0.000703049      -0.000366462       2.210990962
                        -----------------------------------------
Total Dipole Moment    :     -0.000299794      -0.000110797       0.872912498
                        -----------------------------------------
Magnitude (a.u.)       :      0.872912557
Magnitude (Debye)      :      2.218767391

Rotational constants in cm-1:             0.139424             0.051481             0.047017
Rotational constants in MHz :          4179.816334          1543.359858          1409.533014

                             ****ORCA TERMINATED NORMALLY****
TOTAL RUN TIME: 0 days 0 hours 2 minutes 34 seconds 741 msec
