                         Program Version 6.0.0  -   RELEASE  -
|  1> ! pbe def2-sv(p) def2/J RI DEFGRID1 loosescf d4 GCP(DFT/SV(P)) printgap
|  2> %output
|  3>     printlevel normal
|  4> end
|  5> * xyz 0 1
|  6> C -2.1625969152 1.0537770038 -0.7445834623
|  7> C -1.9049688974 -0.0398420032 0.2899567808
|  8> C -0.4586261025 -0.4647074841 0.3317333832
|  9> O -0.0860840121 -1.6209030126 0.3423417982
| 10> O 0.3658937128 0.5716879353 0.3867212858
| 11> C 1.7797135071 0.3211899112 0.427729086
| 12> C 2.3504865335 0.1626071442 -0.973237926
| 13> H -3.2096650792 1.3402421802 -0.720298541
| 14> H -1.5523633776 1.92617698 -0.5305198502
| 15> H -1.9233968899 0.6966925729 -1.7430691379
| 16> H -2.5059988662 -0.9260913512 0.086271853
| 17> H -2.1591102853 0.3317069655 1.2849231708
| 18> H 2.1980294789 1.1936092566 0.9305897279
| 19> H 1.9577985477 -0.5816501617 1.019939484
| 20> H 3.4264278156 0.0362679566 -0.9110958362
| 21> H 1.9198289781 -0.7134110585 -1.4530503088
| 22> H 2.125730241 1.0412860815 -1.5715820427
| 23> *
| 24>
| 25>                          ****END OF INPUT****

CARTESIAN COORDINATES (ANGSTROEM)
---------------------------------
  C     -2.162597    1.053777   -0.744583
  C     -1.904969   -0.039842    0.289957
  C     -0.458626   -0.464707    0.331733
  O     -0.086084   -1.620903    0.342342
  O      0.365894    0.571688    0.386721
  C      1.779714    0.321190    0.427729
  C      2.350487    0.162607   -0.973238
  H     -3.209665    1.340242   -0.720299
  H     -1.552363    1.926177   -0.530520
  H     -1.923397    0.696693   -1.743069
  H     -2.505999   -0.926091    0.086272
  H     -2.159110    0.331707    1.284923
  H      2.198029    1.193609    0.930590
  H      1.957799   -0.581650    1.019939
  H      3.426428    0.036268   -0.911096
  H      1.919829   -0.713411   -1.453050
  H      2.125730    1.041286   -1.571582

 Total Charge           Charge          ....    0
 Multiplicity           Mult            ....    1
 Number of Electrons    NEL             ....   56
 Basis Dimension        Dim             ....  118

ORBITAL ENERGIES
----------------

  NO   OCC          E(Eh)            E(eV)
   0   2.0000     -18.797745      -511.5126
   1   2.0000     -18.729487      -509.6553
   2   2.0000     -10.004520      -272.2368
   3   2.0000      -9.946857      -270.6678
   4   2.0000      -9.899051      -269.3669
   5   2.0000      -9.886820      -269.0341
   6   2.0000      -9.884541      -268.9720
   7   2.0000      -1.004633       -27.3375
   8   2.0000      -0.906730       -24.6734
   9   2.0000      -0.721724       -19.6391
  10   2.0000      -0.685152       -18.6439
  11   2.0000      -0.603876       -16.4323
  12   2.0000      -0.568332       -15.4651
  13   2.0000      -0.495653       -13.4874
  14   2.0000      -0.451806       -12.2943
  15   2.0000      -0.435393       -11.8476
  16   2.0000      -0.405029       -11.0214
  17   2.0000      -0.397041       -10.8040
  18   2.0000      -0.390750       -10.6328
  19   2.0000      -0.358309        -9.7501
  20   2.0000      -0.356756        -9.7078
  21   2.0000      -0.340924        -9.2770
  22   2.0000      -0.323276        -8.7968
  23   2.0000      -0.320228        -8.7138
  24   2.0000      -0.308804        -8.4030
  25   2.0000      -0.289450        -7.8763
  26   2.0000      -0.255325        -6.9477
  27   2.0000      -0.213617        -5.8128
  28   0.0000      -0.019068        -0.5189
  29   0.0000       0.040477         1.1014
  30   0.0000       0.058784         1.5996
  31   0.0000       0.079143         2.1536
  32   0.0000       0.086399         2.3510

MULLIKEN ATOMIC CHARGES
-----------------------
   0 C :   -0.295972
   1 C :   -0.152526
   2 C :    0.101040
   3 O :   -0.207837
   4 O :   -0.241632
   5 C :   -0.012173
   6 C :   -0.304144
   7 H :    0.108537
   8 H :    0.118583
   9 H :    0.108729
  10 H :    0.104616
  11 H :    0.114318
  12 H :    0.100393
  13 H :    0.107551
  14 H :    0.111938
  15 H :    0.126407
  16 H :    0.112173
Sum of atomic charges:   -0.0000000

LOEWDIN ATOMIC CHARGES
----------------------
   0 C :   -0.338748
   1 C :   -0.250971
   2 C :    0.034957
   3 O :   -0.172116
   4 O :   -0.066637
   5 C :   -0.112513
   6 C :   -0.356178
   7 H :    0.122250
   8 H :    0.123422
   9 H :    0.121899
  10 H :    0.133930
  11 H :    0.140922
  12 H :    0.116380
  13 H :    0.119170
  14 H :    0.130117
  15 H :    0.130367
  16 H :    0.123750

  Mayer bond orders larger than 0.100000
B(  0-C ,  1-C ) :   1.1369 B(  0-C ,  7-H ) :   0.9505 B(  0-C ,  8-H ) :   0.9488
B(  0-C ,  9-H ) :   0.9583 B(  1-C ,  2-C ) :   1.0351 B(  1-C , 10-H ) :   0.9174
B(  1-C , 11-H ) :   0.8976 B(  2-C ,  3-O ) :   2.0558 B(  2-C ,  4-O ) :   1.1961
B(  4-O ,  5-C ) :   0.9246 B(  5-C ,  6-C ) :   1.1720 B(  5-C , 12-H ) :   0.9372
B(  5-C , 13-H ) :   0.9143 B(  6-C , 14-H ) :   0.9444 B(  6-C , 15-H ) :   0.9463
B(  6-C , 16-H ) :   0.9492

Dispersion correction           -0.012129647
FINAL SINGLE POINT ENERGY      -346.244331405826

DIPOLE MOMENT
-------------

Method             : SCF
Type of density    : Electron Density
Multiplicity       :   1
Irrep              :   0
Energy             :  -346.3090290998510454 Eh
Relativity type    :
Basis              : AO
                                X                 Y                 Z
Electronic contribution:     -0.127233729      -3.315336337       3.319489871
Nuclear contribution   :      0.264284032       4.060620632      -3.373996250
                        -----------------------------------------
Total Dipole Moment    :      0.137050303       0.745284295      -0.054506380
                        -----------------------------------------
Magnitude (a.u.)       :      0.759738384
Magnitude (Debye)      :      1.931101505

Rotational constants in cm-1:             0.147796             0.056874             0.048152
Rotational constants in MHz :          4430.824308          1705.035850          1443.558938

                             ****ORCA TERMINATED NORMALLY****
TOTAL RUN TIME: 0 days 0 hours 0 minutes 9 seconds 187 msec
