                         Program Version 6.0.0  -   RELEASE  -
|  1> ! r2scan-3c def2/J RI DEFGRID2 scfconv6 printgap
|  2> %output
|  3>     printlevel normal
|  4> end
|  5> * xyz 0 1
|  6> C 2.1029039946 0.4517893476 -1.0387119498
|  7> C 1.6427702291 -0.6055759536 -0.0415021209
|  8> C 0.2914765763 -0.3281636072 0.6392722292
|  9> H 0.2211194662 -1.056000896 1.467866278
| 10> C -0.9569579491 -0.5585106406 -0.2479054983
| 11> C -2.1988343918 -0.715981783 0.6352538616
| 12> C -1.193268743 0.5623492133 -1.2599435022
| 13> O 0.3396327383 0.9775402194 1.1851395535
| 14> H 3.1570243557 0.3072104358 -1.2627779447
| 15> H 1.9705123638 1.4411586348 -0.6101015844
| 16> H 1.5485626097 0.3939456623 -1.9694904472
| 17> H 1.5927322816 -1.5842593285 -0.5207785579
| 18> H 2.3860315792 -0.6602521987 0.7572632884
| 19> H -0.7977273143 -1.5016713514 -0.7801519928
| 20> H -2.4507015414 0.2253646598 1.1190049606
| 21> H -3.0498506121 -1.0186706326 0.0302027448
| 22> H -2.0401432824 -1.472740981 1.4007514387
| 23> H -1.0259739773 1.5301414015 -0.7933559898
| 24> H -2.216959092 0.5238041478 -1.6246923161
| 25> H -0.5295351548 0.4745288137 -2.1133930628
| 26> H -0.4394300225 1.1098130208 1.7399854587
| 27> *
| 28>
| 29>                          ****END OF INPUT****

CARTESIAN COORDINATES (ANGSTROEM)
---------------------------------
  C      2.102904    0.451789   -1.038712
  C      1.642770   -0.605576   -0.041502
  C      0.291477   -0.328164    0.639272
  H      0.221119   -1.056001    1.467866
  C     -0.956958   -0.558511   -0.247905
  C     -2.198834   -0.715982    0.635254
  C     -1.193269    0.562349   -1.259944
  O      0.339633    0.977540    1.185140
  H      3.157024    0.307210   -1.262778
  H      1.970512    1.441159   -0.610102
  H      1.548563    0.393946   -1.969490
  H      1.592732   -1.584259   -0.520779
  H      2.386032   -0.660252    0.757263
  H     -0.797727   -1.501671   -0.780152
  H     -2.450702    0.225365    1.119005
  H     -3.049851   -1.018671    0.030203
  H     -2.040143   -1.472741    1.400751
  H     -1.025974    1.530141   -0.793356
  H     -2.216959    0.523804   -1.624692
  H     -0.529535    0.474529   -2.113393
  H     -0.439430    1.109813    1.739985

 Total Charge           Charge          ....    0
 Multiplicity           Mult            ....    1
 Number of Electrons    NEL             ....   58
 Basis Dimension        Dim             ....  208

ORBITAL ENERGIES
----------------

  NO   OCC          E(Eh)            E(eV)
   0   2.0000     -18.947460      -515.5866
   1   2.0000     -10.076948      -274.2077
   2   2.0000     -10.033828      -273.0343
   3   2.0000     -10.022550      -272.7275
   4   2.0000     -10.021952      -272.7112
   5   2.0000     -10.010795      -272.4076
   6   2.0000     -10.007894      -272.3287
   7   2.0000      -0.986226       -26.8366
   8   2.0000      -0.769884       -20.9496
   9   2.0000      -0.727998       -19.8098
  10   2.0000      -0.651365       -17.7246
  11   2.0000      -0.640518       -17.4294
  12   2.0000      -0.560199       -15.2438
  13   2.0000      -0.527547       -14.3553
  14   2.0000      -0.471932       -12.8419
  15   2.0000      -0.437633       -11.9086
  16   2.0000      -0.427499       -11.6328
  17   2.0000      -0.391962       -10.6658
  18   2.0000      -0.388795       -10.5796
  19   2.0000      -0.364707        -9.9242
  20   2.0000      -0.353982        -9.6323
  21   2.0000      -0.346178        -9.4200
  22   2.0000      -0.338843        -9.2204
  23   2.0000      -0.312556        -8.5051
  24   2.0000      -0.309586        -8.4243
  25   2.0000      -0.299883        -8.1602
  26   2.0000      -0.294476        -8.0131
  27   2.0000      -0.270626        -7.3641
  28   2.0000      -0.232660        -6.3310
  29   0.0000       0.050242         1.3672
  30   0.0000       0.094569         2.5734
  31   0.0000       0.111858         3.0438
  32   0.0000       0.115424         3.1408
  33   0.0000       0.126423         3.4401

MULLIKEN ATOMIC CHARGES
-----------------------
   0 C :   -0.503207
   1 C :   -0.278741
   2 C :    0.069497
   3 H :    0.128995
   4 C :   -0.002330
   5 C :   -0.520313
   6 C :   -0.541211
   7 O :   -0.446321
   8 H :    0.143711
   9 H :    0.179246
  10 H :    0.135446
  11 H :    0.137397
  12 H :    0.148267
  13 H :    0.145289
  14 H :    0.138613
  15 H :    0.155949
  16 H :    0.149135
  17 H :    0.185967
  18 H :    0.141099
  19 H :    0.142606
  20 H :    0.290907
Sum of atomic charges:    0.0000000

LOEWDIN ATOMIC CHARGES
----------------------
   0 C :   -0.415706
   1 C :   -0.277358
   2 C :    0.059786
   3 H :    0.167178
   4 C :   -0.226970
   5 C :   -0.418702
   6 C :   -0.408577
   7 O :   -0.624429
   8 H :    0.149206
   9 H :    0.168032
  10 H :    0.146711
  11 H :    0.157534
  12 H :    0.161209
  13 H :    0.161417
  14 H :    0.148755
  15 H :    0.156023
  16 H :    0.153600
  17 H :    0.168270
  18 H :    0.151822
  19 H :    0.152969
  20 H :    0.269230

  Mayer bond orders larger than 0.100000
B(  0-C ,  1-C ) :   0.8807 B(  0-C ,  8-H ) :   0.9717 B(  0-C ,  9-H ) :   0.9806
B(  0-C , 10-H ) :   0.9777 B(  1-C ,  2-C ) :   0.9626 B(  1-C , 11-H ) :   0.9895
B(  1-C , 12-H ) :   0.9660 B(  2-C ,  3-H ) :   0.9655 B(  2-C ,  4-C ) :   0.8793
B(  2-C ,  7-O ) :   0.8540 B(  4-C ,  5-C ) :   0.8958 B(  4-C ,  6-C ) :   0.8681
B(  4-C , 13-H ) :   0.9561 B(  5-C , 14-H ) :   0.9846 B(  5-C , 15-H ) :   0.9744
B(  5-C , 16-H ) :   0.9783 B(  6-C , 17-H ) :   0.9872 B(  6-C , 18-H ) :   0.9728
B(  6-C , 19-H ) :   0.9659 B(  7-O , 20-H ) :   0.8979

Dispersion correction           -0.005788170
FINAL SINGLE POINT ENERGY      -312.197557786115

DIPOLE MOMENT
-------------

Method             : SCF
Type of density    : Electron Density
Multiplicity       :   1
Irrep              :   0
Energy             :  -312.2031675052114110 Eh
Relativity type    :
Basis              : AO
                                X                 Y                 Z
Electronic contribution:      1.161981544       0.818048813       3.038100454
Nuclear contribution   :     -1.565762784      -1.193498772      -2.946696694
                        -----------------------------------------
Total Dipole Moment    :     -0.403781240      -0.375449959       0.091403760
                        -----------------------------------------
Magnitude (a.u.)       :      0.558888727
Magnitude (Debye)      :      1.420582248

Rotational constants in cm-1:             0.124795             0.059706             0.052942
Rotational constants in MHz :          3741.254030          1789.936242          1587.163236

                             ****ORCA TERMINATED NORMALLY****
TOTAL RUN TIME: 0 days 0 hours 0 minutes 27 seconds 879 msec
