                         Program Version 6.0.0  -   RELEASE  -
|  1> ! r2scan-3c def2/J RI DEFGRID2 scfconv6 printgap
|  2> %output
|  3>     printlevel normal
|  4> end
|  5> %cpcm
|  6>     smd true
|  7>     smdsolvent "water"
|  8> end
|  9> * xyz 0 1
| 10> C 2.1029039946 0.4517893476 -1.0387119498
| 11> C 1.6427702291 -0.6055759536 -0.0415021209
| 12> C 0.2914765763 -0.3281636072 0.6392722292
| 13> H 0.2211194662 -1.056000896 1.467866278
| 14> C -0.9569579491 -0.5585106406 -0.2479054983
| 15> C -2.1988343918 -0.715981783 0.6352538616
| 16> C -1.193268743 0.5623492133 -1.2599435022
| 17> O 0.3396327383 0.9775402194 1.1851395535
| 18> H 3.1570243557 0.3072104358 -1.2627779447
| 19> H 1.9705123638 1.4411586348 -0.6101015844
| 20> H 1.5485626097 0.3939456623 -1.9694904472
| 21> H 1.5927322816 -1.5842593285 -0.5207785579
| 22> H 2.3860315792 -0.6602521987 0.7572632884
| 23> H -0.7977273143 -1.5016713514 -0.7801519928
| 24> H -2.4507015414 0.2253646598 1.1190049606
| 25> H -3.0498506121 -1.0186706326 0.0302027448
| 26> H -2.0401432824 -1.472740981 1.4007514387
| 27> H -1.0259739773 1.5301414015 -0.7933559898
| 28> H -2.216959092 0.5238041478 -1.6246923161
| 29> H -0.5295351548 0.4745288137 -2.1133930628
| 30> H -0.4394300225 1.1098130208 1.7399854587
| 31> *
| 32>
| 33>                          ****END OF INPUT****

CARTESIAN COORDINATES (ANGSTROEM)
---------------------------------
  C      2.102904    0.451789   -1.038712
  C      1.642770   -0.605576   -0.041502
  C      0.291477   -0.328164    0.639272
  H      0.221119   -1.056001    1.467866
  C     -0.956958   -0.558511   -0.247905
  C     -2.198834   -0.715982    0.635254
  C     -1.193269    0.562349   -1.259944
  O      0.339633    0.977540    1.185140
  H      3.157024    0.307210   -1.262778
  H      1.970512    1.441159   -0.610102
  H      1.548563    0.393946   -1.969490
  H      1.592732   -1.584259   -0.520779
  H      2.386032   -0.660252    0.757263
  H     -0.797727   -1.501671   -0.780152
  H     -2.450702    0.225365    1.119005
  H     -3.049851   -1.018671    0.030203
  H     -2.040143   -1.472741    1.400751
  H     -1.025974    1.530141   -0.793356
  H     -2.216959    0.523804   -1.624692
  H     -0.529535    0.474529   -2.113393
  H     -0.439430    1.109813    1.739985

 Total Charge           Charge          ....    0
 Multiplicity           Mult            ....    1
 Number of Electrons    NEL             ....   58
 Basis Dimension        Dim             ....  208

ORBITAL ENERGIES
----------------

  NO   OCC          E(Eh)            E(eV)
   0   2.0000     -18.948268      -515.6086
   1   2.0000     -10.070976      -274.0452
   2   2.0000     -10.024553      -272.7820
   3   2.0000     -10.017505      -272.5902
   4   2.0000     -10.007587      -272.3203
   5   2.0000     -10.006459      -272.2896
   6   2.0000     -10.004504      -272.2364
   7   2.0000      -0.986091       -26.8329
   8   2.0000      -0.761983       -20.7346
   9   2.0000      -0.722981       -19.6733
  10   2.0000      -0.643658       -17.5148
  11   2.0000      -0.634530       -17.2664
  12   2.0000      -0.554368       -15.0851
  13   2.0000      -0.522344       -14.2137
  14   2.0000      -0.466196       -12.6858
  15   2.0000      -0.430566       -11.7163
  16   2.0000      -0.421094       -11.4585
  17   2.0000      -0.389620       -10.6021
  18   2.0000      -0.380742       -10.3605
  19   2.0000      -0.357325        -9.7233
  20   2.0000      -0.346902        -9.4397
  21   2.0000      -0.342757        -9.3269
  22   2.0000      -0.333516        -9.0754
  23   2.0000      -0.311222        -8.4688
  24   2.0000      -0.300994        -8.1905
  25   2.0000      -0.295101        -8.0301
  26   2.0000      -0.288331        -7.8459
  27   2.0000      -0.265515        -7.2250
  28   2.0000      -0.232860        -6.3364
  29   0.0000       0.065748         1.7891
  30   0.0000       0.105950         2.8830
  31   0.0000       0.119379         3.2485
  32   0.0000       0.123728         3.3668
  33   0.0000       0.134170         3.6509

MULLIKEN ATOMIC CHARGES
-----------------------
   0 C :   -0.539010
   1 C :   -0.299723
   2 C :    0.075968
   3 H :    0.142362
   4 C :    0.018443
   5 C :   -0.555037
   6 C :   -0.597502
   7 O :   -0.525374
   8 H :    0.157579
   9 H :    0.167373
  10 H :    0.157646
  11 H :    0.156821
  12 H :    0.158728
  13 H :    0.158405
  14 H :    0.160129
  15 H :    0.164814
  16 H :    0.158046
  17 H :    0.180384
  18 H :    0.155316
  19 H :    0.160289
  20 H :    0.344346
Sum of atomic charges:    0.0000000

LOEWDIN ATOMIC CHARGES
----------------------
   0 C :   -0.425280
   1 C :   -0.281337
   2 C :    0.060649
   3 H :    0.174714
   4 C :   -0.222220
   5 C :   -0.423881
   6 C :   -0.417602
   7 O :   -0.657067
   8 H :    0.152984
   9 H :    0.161059
  10 H :    0.152860
  11 H :    0.164780
  12 H :    0.161262
  13 H :    0.166298
  14 H :    0.156432
  15 H :    0.157022
  16 H :    0.156751
  17 H :    0.163922
  18 H :    0.155970
  19 H :    0.156058
  20 H :    0.286626

  Mayer bond orders larger than 0.100000
B(  0-C ,  1-C ) :   0.8569 B(  0-C ,  8-H ) :   0.9682 B(  0-C ,  9-H ) :   0.9833
B(  0-C , 10-H ) :   0.9759 B(  1-C ,  2-C ) :   0.9464 B(  1-C , 11-H ) :   0.9836
B(  1-C , 12-H ) :   0.9735 B(  2-C ,  3-H ) :   0.9613 B(  2-C ,  4-C ) :   0.8949
B(  2-C ,  7-O ) :   0.8462 B(  4-C ,  5-C ) :   0.8935 B(  4-C ,  6-C ) :   0.8419
B(  4-C , 13-H ) :   0.9570 B(  5-C , 14-H ) :   0.9789 B(  5-C , 15-H ) :   0.9732
B(  5-C , 16-H ) :   0.9746 B(  6-C , 17-H ) :   0.9906 B(  6-C , 18-H ) :   0.9699
B(  6-C , 19-H ) :   0.9665 B(  7-O , 20-H ) :   0.8730

Dispersion correction           -0.005788170
FINAL SINGLE POINT ENERGY      -312.202226850904

DIPOLE MOMENT
-------------

Method             : SCF
Type of density    : Electron Density
Multiplicity       :   1
Irrep              :   0
Energy             :  -312.2078365700010636 Eh
Relativity type    :
Basis              : AO
                                X                 Y                 Z
Electronic contribution:      0.967933076       0.584928421       3.069637771
Nuclear contribution   :     -1.565762784      -1.193498772      -2.946696694
                        -----------------------------------------
Total Dipole Moment    :     -0.597829709      -0.608570351       0.122941077
                        -----------------------------------------
Magnitude (a.u.)       :      0.861900656
Magnitude (Debye)      :      2.190777364

Rotational constants in cm-1:             0.124795             0.059706             0.052942
Rotational constants in MHz :          3741.254030          1789.936242          1587.163236

                             ****ORCA TERMINATED NORMALLY****
TOTAL RUN TIME: 0 days 0 hours 0 minutes 32 seconds 457 msec
