                         Program Version 6.0.0  -   RELEASE  -
|  1> ! pbe def2-sv(p) def2/J RI DEFGRID1 loosescf d4 GCP(DFT/SV(P)) printgap
|  2> %output
|  3>     printlevel normal
|  4> end
|  5> * xyz 0 1
|  6> C 1.5461870896 -0.8228763148 0.8363636183
|  7> C 1.07514088 -0.2796699571 -0.5099953121
|  8> C 2.2493462899 0.3014363616 -1.2938252907
|  9> C -0.0021590404 0.8029194268 -0.3055477902
| 10> C -1.2475074863 0.2312938938 0.3180996265
| 11> O -1.5609511561 0.4664352629 1.470646652
| 12> C -2.0839890273 -0.6513980832 -0.5640923365
| 13> H 2.0139648413 -0.0335787011 1.4208982455
| 14> H 0.709558221 -1.2158909136 1.4105765225
| 15> H 2.2708067711 -1.6203811055 0.6920634212
| 16> H 0.6432696243 -1.1032303078 -1.0869481051
| 17> H 3.013759137 -0.4572713161 -1.4405901786
| 18> H 2.6920119282 1.1338243547 -0.7519919107
| 19> H 1.9255867552 0.6569514382 -2.2686051993
| 20> H -0.2640944029 1.2337905749 -1.2727790687
| 21> H 0.3939369707 1.5857957978 0.3436717086
| 22> H -3.064980055 -0.193352814 -0.6760663463
| 23> H -1.6352242412 -0.7955223585 -1.5399335258
| 24> H -2.236495882 -1.6105681524 -0.073658253
| 25> *
| 26>
| 27>                          ****END OF INPUT****

CARTESIAN COORDINATES (ANGSTROEM)
---------------------------------
  C      1.546187   -0.822876    0.836364
  C      1.075141   -0.279670   -0.509995
  C      2.249346    0.301436   -1.293825
  C     -0.002159    0.802919   -0.305548
  C     -1.247507    0.231294    0.318100
  O     -1.560951    0.466435    1.470647
  C     -2.083989   -0.651398   -0.564092
  H      2.013965   -0.033579    1.420898
  H      0.709558   -1.215891    1.410577
  H      2.270807   -1.620381    0.692063
  H      0.643270   -1.103230   -1.086948
  H      3.013759   -0.457271   -1.440590
  H      2.692012    1.133824   -0.751992
  H      1.925587    0.656951   -2.268605
  H     -0.264094    1.233791   -1.272779
  H      0.393937    1.585796    0.343672
  H     -3.064980   -0.193353   -0.676066
  H     -1.635224   -0.795522   -1.539934
  H     -2.236496   -1.610568   -0.073658

 Total Charge           Charge          ....    0
 Multiplicity           Mult            ....    1
 Number of Electrons    NEL             ....   56
 Basis Dimension        Dim             ....  122

ORBITAL ENERGIES
----------------

  NO   OCC          E(Eh)            E(eV)
   0   2.0000     -18.731842      -509.7193
   1   2.0000      -9.970654      -271.3153
   2   2.0000      -9.910675      -269.6832
   3   2.0000      -9.889140      -269.0972
   4   2.0000      -9.886082      -269.0140
   5   2.0000      -9.880615      -268.8652
   6   2.0000      -9.876389      -268.7502
   7   2.0000      -0.929548       -25.2943
   8   2.0000      -0.742938       -20.2164
   9   2.0000      -0.677854       -18.4454
  10   2.0000      -0.626609       -17.0509
  11   2.0000      -0.617145       -16.7934
  12   2.0000      -0.515089       -14.0163
  13   2.0000      -0.472591       -12.8599
  14   2.0000      -0.426646       -11.6096
  15   2.0000      -0.415799       -11.3145
  16   2.0000      -0.408113       -11.1053
  17   2.0000      -0.386609       -10.5202
  18   2.0000      -0.378593       -10.3020
  19   2.0000      -0.359670        -9.7871
  20   2.0000      -0.345709        -9.4072
  21   2.0000      -0.331577        -9.0227
  22   2.0000      -0.329064        -8.9543
  23   2.0000      -0.315503        -8.5853
  24   2.0000      -0.302438        -8.2298
  25   2.0000      -0.295034        -8.0283
  26   2.0000      -0.286907        -7.8071
  27   2.0000      -0.190358        -5.1799
  28   0.0000      -0.050219        -1.3665
  29   0.0000       0.025886         0.7044
  30   0.0000       0.055901         1.5211
  31   0.0000       0.071464         1.9446
  32   0.0000       0.074221         2.0197

MULLIKEN ATOMIC CHARGES
-----------------------
   0 C :   -0.244782
   1 C :   -0.242900
   2 C :   -0.218460
   3 C :   -0.093598
   4 C :   -0.019126
   5 O :   -0.174215
   6 C :   -0.257139
   7 H :    0.100140
   8 H :    0.119889
   9 H :    0.101507
  10 H :    0.083058
  11 H :    0.103047
  12 H :    0.097254
  13 H :    0.097061
  14 H :    0.093434
  15 H :    0.083731
  16 H :    0.133011
  17 H :    0.109414
  18 H :    0.128674
Sum of atomic charges:   -0.0000000

LOEWDIN ATOMIC CHARGES
----------------------
   0 C :   -0.330078
   1 C :   -0.151161
   2 C :   -0.327024
   3 C :   -0.237825
   4 C :    0.039828
   5 O :   -0.137566
   6 C :   -0.365525
   7 H :    0.121330
   8 H :    0.122348
   9 H :    0.119196
  10 H :    0.114955
  11 H :    0.119778
  12 H :    0.119494
  13 H :    0.117011
  14 H :    0.127992
  15 H :    0.127124
  16 H :    0.149987
  17 H :    0.124040
  18 H :    0.146094

  Mayer bond orders larger than 0.100000
B(  0-C ,  1-C ) :   1.1068 B(  0-C ,  7-H ) :   0.9487 B(  0-C ,  8-H ) :   0.9414
B(  0-C ,  9-H ) :   0.9497 B(  1-C ,  2-C ) :   1.1153 B(  1-C ,  3-C ) :   1.0658
B(  1-C , 10-H ) :   0.9006 B(  2-C , 11-H ) :   0.9506 B(  2-C , 12-H ) :   0.9484
B(  2-C , 13-H ) :   0.9488 B(  3-C ,  4-C ) :   1.0402 B(  3-C , 14-H ) :   0.8925
B(  3-C , 15-H ) :   0.8920 B(  4-C ,  5-O ) :   2.1627 B(  4-C ,  6-C ) :   1.0448
B(  6-C , 16-H ) :   0.9213 B(  6-C , 17-H ) :   0.9336 B(  6-C , 18-H ) :   0.9280

Dispersion correction           -0.015045405
FINAL SINGLE POINT ENERGY      -310.354711462561

DIPOLE MOMENT
-------------

Method             : SCF
Type of density    : Electron Density
Multiplicity       :   1
Irrep              :   0
Energy             :  -310.4189845980953351 Eh
Relativity type    :
Basis              : AO
                                X                 Y                 Z
Electronic contribution:     -5.729082967       1.985471327       3.948938367
Nuclear contribution   :      6.039361134      -2.262908975      -4.897324166
                        -----------------------------------------
Total Dipole Moment    :      0.310278167      -0.277437648      -0.948385799
                        -----------------------------------------
Magnitude (a.u.)       :      1.035702570
Magnitude (Debye)      :      2.632546722

Rotational constants in cm-1:             0.144731             0.052945             0.047899
Rotational constants in MHz :          4338.938155          1587.259483          1435.963622

                             ****ORCA TERMINATED NORMALLY****
TOTAL RUN TIME: 0 days 0 hours 0 minutes 9 seconds 107 msec
