                         Program Version 6.0.0  -   RELEASE  -
|  1> ! pbe def2-sv(p) def2/J RI DEFGRID1 loosescf d4 GCP(DFT/SV(P)) printgap
|  2> %output
|  3>     printlevel normal
|  4> end
|  5> * xyz 0 1
|  6> C 1.9457099563 -1.3827237683 -0.1994773406
|  7> C 1.059929505 -0.2531192605 0.3243889375
|  8> C 1.6964736972 1.0982018352 0.0050845963
|  9> C -0.3421464042 -0.3779696798 -0.2782503367
| 10> C -1.363522286 0.5762448465 0.3346741099
| 11> O -2.6440775929 0.2362463139 -0.1660549641
| 12> H 1.519826267 -2.3519374526 0.0480823427
| 13> H 2.9390624016 -1.3215815738 0.2381599526
| 14> H 2.0410571125 -1.3156395736 -1.2807868662
| 15> H 0.9777526315 -0.3523257446 1.4128662423
| 16> H 1.7357063866 1.2512367752 -1.0709736434
| 17> H 2.7111766792 1.1353207904 0.3941400288
| 18> H 1.1328203195 1.9128033577 0.4511938812
| 19> H -0.7157401438 -1.3927446016 -0.1247973738
| 20> H -0.3027729663 -0.2029064896 -1.3549746118
| 21> H -1.3477772 0.4773389613 1.4293257756
| 22> H -1.1239041727 1.6139951505 0.0721996708
| 23> H -3.3033314038 0.8404438488 0.1999802926
| 24> *
| 25>
| 26>                          ****END OF INPUT****

CARTESIAN COORDINATES (ANGSTROEM)
---------------------------------
  C      1.945710   -1.382724   -0.199477
  C      1.059930   -0.253119    0.324389
  C      1.696474    1.098202    0.005085
  C     -0.342146   -0.377970   -0.278250
  C     -1.363522    0.576245    0.334674
  O     -2.644078    0.236246   -0.166055
  H      1.519826   -2.351937    0.048082
  H      2.939062   -1.321582    0.238160
  H      2.041057   -1.315640   -1.280787
  H      0.977753   -0.352326    1.412866
  H      1.735706    1.251237   -1.070974
  H      2.711177    1.135321    0.394140
  H      1.132820    1.912803    0.451194
  H     -0.715740   -1.392745   -0.124797
  H     -0.302773   -0.202906   -1.354975
  H     -1.347777    0.477339    1.429326
  H     -1.123904    1.613995    0.072200
  H     -3.303331    0.840444    0.199980

 Total Charge           Charge          ....    0
 Multiplicity           Mult            ....    1
 Number of Electrons    NEL             ....   50
 Basis Dimension        Dim             ....  108

ORBITAL ENERGIES
----------------

  NO   OCC          E(Eh)            E(eV)
   0   2.0000     -18.735058      -509.8069
   1   2.0000      -9.925146      -270.0770
   2   2.0000      -9.894507      -269.2432
   3   2.0000      -9.876444      -268.7517
   4   2.0000      -9.872214      -268.6366
   5   2.0000      -9.870158      -268.5806
   6   2.0000      -0.910894       -24.7867
   7   2.0000      -0.730134       -19.8680
   8   2.0000      -0.647927       -17.6310
   9   2.0000      -0.609637       -16.5891
  10   2.0000      -0.548173       -14.9165
  11   2.0000      -0.497365       -13.5340
  12   2.0000      -0.454845       -12.3770
  13   2.0000      -0.422294       -11.4912
  14   2.0000      -0.396525       -10.7900
  15   2.0000      -0.381653       -10.3853
  16   2.0000      -0.370422       -10.0797
  17   2.0000      -0.340280        -9.2595
  18   2.0000      -0.329072        -8.9545
  19   2.0000      -0.313517        -8.5312
  20   2.0000      -0.294497        -8.0137
  21   2.0000      -0.283708        -7.7201
  22   2.0000      -0.281245        -7.6531
  23   2.0000      -0.263558        -7.1718
  24   2.0000      -0.207819        -5.6551
  25   0.0000       0.031798         0.8653
  26   0.0000       0.037380         1.0172
  27   0.0000       0.065565         1.7841
  28   0.0000       0.074778         2.0348
  29   0.0000       0.088280         2.4022

MULLIKEN ATOMIC CHARGES
-----------------------
   0 C :   -0.231649
   1 C :   -0.192797
   2 C :   -0.253826
   3 C :   -0.150774
   4 C :    0.009413
   5 O :   -0.436058
   6 H :    0.098234
   7 H :    0.096859
   8 H :    0.092682
   9 H :    0.071076
  10 H :    0.094154
  11 H :    0.097689
  12 H :    0.104046
  13 H :    0.088291
  14 H :    0.083172
  15 H :    0.062756
  16 H :    0.071759
  17 H :    0.294975
Sum of atomic charges:   -0.0000000

LOEWDIN ATOMIC CHARGES
----------------------
   0 C :   -0.327637
   1 C :   -0.157125
   2 C :   -0.331925
   3 C :   -0.228755
   4 C :   -0.121370
   5 O :   -0.351895
   6 H :    0.117175
   7 H :    0.115920
   8 H :    0.117056
   9 H :    0.112343
  10 H :    0.117652
  11 H :    0.117679
  12 H :    0.114836
  13 H :    0.119925
  14 H :    0.117866
  15 H :    0.091878
  16 H :    0.093489
  17 H :    0.282887

  Mayer bond orders larger than 0.100000
B(  0-C ,  1-C ) :   1.1166 B(  0-C ,  6-H ) :   0.9500 B(  0-C ,  7-H ) :   0.9516
B(  0-C ,  8-H ) :   0.9501 B(  1-C ,  2-C ) :   1.1007 B(  1-C ,  3-C ) :   1.0679
B(  1-C ,  9-H ) :   0.9029 B(  2-C , 10-H ) :   0.9504 B(  2-C , 11-H ) :   0.9498
B(  2-C , 12-H ) :   0.9480 B(  3-C ,  4-C ) :   1.1292 B(  3-C , 13-H ) :   0.9171
B(  3-C , 14-H ) :   0.9135 B(  4-C ,  5-O ) :   1.0889 B(  4-C , 15-H ) :   0.9219
B(  4-C , 16-H ) :   0.9171 B(  5-O , 17-H ) :   0.8540

Dispersion correction           -0.012560213
FINAL SINGLE POINT ENERGY      -272.299857065777

DIPOLE MOMENT
-------------

Method             : SCF
Type of density    : Electron Density
Multiplicity       :   1
Irrep              :   0
Energy             :  -272.3693870206682845 Eh
Relativity type    :
Basis              : AO
                                X                 Y                 Z
Electronic contribution:     -5.810097346       0.164930095       0.001127210
Nuclear contribution   :      5.837301246       0.279329343       0.386325398
                        -----------------------------------------
Total Dipole Moment    :      0.027203900       0.444259439       0.387452608
                        -----------------------------------------
Magnitude (a.u.)       :      0.590106790
Magnitude (Debye)      :      1.499932260

Rotational constants in cm-1:             0.231264             0.057884             0.049717
Rotational constants in MHz :          6933.117571          1735.327650          1490.484930

                             ****ORCA TERMINATED NORMALLY****
TOTAL RUN TIME: 0 days 0 hours 0 minutes 8 seconds 170 msec
