                         Program Version 6.0.0  -   RELEASE  -
|  1> ! pbe def2-sv(p) def2/J RI DEFGRID1 loosescf d4 GCP(DFT/SV(P)) printgap
|  2> %output
|  3>     printlevel normal
|  4> end
|  5> * xyz 0 1
|  6> C -1.439989586 0.1114796073 0.6056247769
|  7> C 0.0747912875 0.3613420978 0.4849755342
|  8> C 0.8089611048 -0.871801536 -0.0742595579
|  9> O 2.2112850063 -0.7669930471 0.041827639
| 10> O 0.2733892295 1.4973491729 -0.3367504018
| 11> O -2.0579791318 -0.3501129776 -0.5698528714
| 12> H -1.9186749876 1.0676144988 0.8285161933
| 13> H -1.6165103978 -0.5806271679 1.4371751248
| 14> H 0.4512563855 0.5605707493 1.4977759931
| 15> H 0.5197501154 -1.0180822394 -1.1203006528
| 16> H 0.5295545289 -1.7492231727 0.5133032427
| 17> H 2.5443891755 -0.1564193291 -0.6298582006
| 18> H 1.1532951892 1.8639532439 -0.1777155139
| 19> H -1.807959118 -1.2692336511 -0.7328337691
| 20> *
| 21>
| 22>                          ****END OF INPUT****

CARTESIAN COORDINATES (ANGSTROEM)
---------------------------------
  C     -1.439990    0.111480    0.605625
  C      0.074791    0.361342    0.484976
  C      0.808961   -0.871802   -0.074260
  O      2.211285   -0.766993    0.041828
  O      0.273389    1.497349   -0.336750
  O     -2.057979   -0.350113   -0.569853
  H     -1.918675    1.067614    0.828516
  H     -1.616510   -0.580627    1.437175
  H      0.451256    0.560571    1.497776
  H      0.519750   -1.018082   -1.120301
  H      0.529555   -1.749223    0.513303
  H      2.544389   -0.156419   -0.629858
  H      1.153295    1.863953   -0.177716
  H     -1.807959   -1.269234   -0.732834

 Total Charge           Charge          ....    0
 Multiplicity           Mult            ....    1
 Number of Electrons    NEL             ....   50
 Basis Dimension        Dim             ....  100

ORBITAL ENERGIES
----------------

  NO   OCC          E(Eh)            E(eV)
   0   2.0000     -18.753808      -510.3171
   1   2.0000     -18.751218      -510.2466
   2   2.0000     -18.746090      -510.1070
   3   2.0000      -9.937444      -270.4116
   4   2.0000      -9.934647      -270.3355
   5   2.0000      -9.931069      -270.2381
   6   2.0000      -0.939859       -25.5749
   7   2.0000      -0.923529       -25.1305
   8   2.0000      -0.913591       -24.8601
   9   2.0000      -0.682800       -18.5799
  10   2.0000      -0.611315       -16.6347
  11   2.0000      -0.538381       -14.6501
  12   2.0000      -0.486927       -13.2500
  13   2.0000      -0.471126       -12.8200
  14   2.0000      -0.443860       -12.0781
  15   2.0000      -0.401754       -10.9323
  16   2.0000      -0.394014       -10.7217
  17   2.0000      -0.365869        -9.9558
  18   2.0000      -0.351341        -9.5605
  19   2.0000      -0.304011        -8.2726
  20   2.0000      -0.288324        -7.8457
  21   2.0000      -0.272114        -7.4046
  22   2.0000      -0.242733        -6.6051
  23   2.0000      -0.226189        -6.1549
  24   2.0000      -0.201862        -5.4929
  25   0.0000       0.004480         0.1219
  26   0.0000       0.021009         0.5717
  27   0.0000       0.048831         1.3288
  28   0.0000       0.073607         2.0029
  29   0.0000       0.090801         2.4708

MULLIKEN ATOMIC CHARGES
-----------------------
   0 C :    0.026893
   1 C :    0.004397
   2 C :   -0.006108
   3 O :   -0.433920
   4 O :   -0.423662
   5 O :   -0.432161
   6 H :    0.092392
   7 H :    0.074071
   8 H :    0.062753
   9 H :    0.078660
  10 H :    0.078060
  11 H :    0.288764
  12 H :    0.291214
  13 H :    0.298648
Sum of atomic charges:   -0.0000000

LOEWDIN ATOMIC CHARGES
----------------------
   0 C :   -0.126272
   1 C :   -0.100761
   2 C :   -0.146755
   3 O :   -0.339591
   4 O :   -0.329180
   5 O :   -0.331213
   6 H :    0.119944
   7 H :    0.098351
   8 H :    0.104800
   9 H :    0.100434
  10 H :    0.110647
  11 H :    0.278611
  12 H :    0.280002
  13 H :    0.280982

  Mayer bond orders larger than 0.100000
B(  0-C ,  1-C ) :   1.0044 B(  0-C ,  5-O ) :   1.0913 B(  0-C ,  6-H ) :   0.9191
B(  0-C ,  7-H ) :   0.9216 B(  1-C ,  2-C ) :   1.0193 B(  1-C ,  4-O ) :   1.0548
B(  1-C ,  8-H ) :   0.8936 B(  2-C ,  3-O ) :   1.0732 B(  2-C ,  9-H ) :   0.9065
B(  2-C , 10-H ) :   0.9192 B(  3-O , 11-H ) :   0.8500 B(  4-O , 12-H ) :   0.8496
B(  5-O , 13-H ) :   0.8484

Dispersion correction           -0.009145002
FINAL SINGLE POINT ENERGY      -344.002480601432

DIPOLE MOMENT
-------------

Method             : SCF
Type of density    : Electron Density
Multiplicity       :   1
Irrep              :   0
Energy             :  -344.0752059191192984 Eh
Relativity type    :
Basis              : AO
                                X                 Y                 Z
Electronic contribution:      0.662607085       1.031437273      -1.316244898
Nuclear contribution   :     -0.129603495      -1.196572404       1.503303663
                        -----------------------------------------
Total Dipole Moment    :      0.533003590      -0.165135131       0.187058765
                        -----------------------------------------
Magnitude (a.u.)       :      0.588517986
Magnitude (Debye)      :      1.495893840

Rotational constants in cm-1:             0.190130             0.075782             0.063006
Rotational constants in MHz :          5699.943777          2271.876735          1888.868679

                             ****ORCA TERMINATED NORMALLY****
TOTAL RUN TIME: 0 days 0 hours 0 minutes 6 seconds 625 msec
