                         Program Version 6.0.0  -   RELEASE  -
|  1> ! r2scan-3c def2/J RI DEFGRID2 scfconv6 printgap
|  2> %output
|  3>     printlevel normal
|  4> end
|  5> * xyz 0 1
|  6> C -2.5337250459 0.0187408907 0.9153713772
|  7> C -1.7589282223 0.6137143664 -0.2613444345
|  8> C -0.4307534803 -0.0830693794 -0.414649694
|  9> O -0.2939665799 -1.2692752423 -0.630632879
| 10> O 0.5829775001 0.763006237 -0.2839158008
| 11> C 1.923390245 0.2503455604 -0.3737409855
| 12> C 2.416102067 -0.2286655754 0.9831890709
| 13> H -2.0113164536 0.2073358359 1.8498084567
| 14> H -3.5223704396 0.463616215 0.9708988121
| 15> H -2.6350957752 -1.0560633718 0.7856503424
| 16> H -1.5813038801 1.6781336297 -0.1168903061
| 17> H -2.3235693041 0.4578629066 -1.1817439337
| 18> H 1.935288242 -0.5682890478 -1.0997407192
| 19> H 2.5158986086 1.089977574 -0.7382221747
| 20> H 1.8137464065 -1.068464802 1.3225484802
| 21> H 3.4496932141 -0.5478624997 0.8986226173
| 22> H 2.3463247275 0.5749553127 1.7112800133
| 23> *
| 24>
| 25>                          ****END OF INPUT****

CARTESIAN COORDINATES (ANGSTROEM)
---------------------------------
  C     -2.533725    0.018741    0.915371
  C     -1.758928    0.613714   -0.261344
  C     -0.430753   -0.083069   -0.414650
  O     -0.293967   -1.269275   -0.630633
  O      0.582978    0.763006   -0.283916
  C      1.923390    0.250346   -0.373741
  C      2.416102   -0.228666    0.983189
  H     -2.011316    0.207336    1.849808
  H     -3.522370    0.463616    0.970899
  H     -2.635096   -1.056063    0.785650
  H     -1.581304    1.678134   -0.116890
  H     -2.323569    0.457863   -1.181744
  H      1.935288   -0.568289   -1.099741
  H      2.515899    1.089978   -0.738222
  H      1.813746   -1.068465    1.322548
  H      3.449693   -0.547862    0.898623
  H      2.346325    0.574955    1.711280

 Total Charge           Charge          ....    0
 Multiplicity           Mult            ....    1
 Number of Electrons    NEL             ....   56
 Basis Dimension        Dim             ....  193

ORBITAL ENERGIES
----------------

  NO   OCC          E(Eh)            E(eV)
   0   2.0000     -18.997011      -516.9349
   1   2.0000     -18.927091      -515.0323
   2   2.0000     -10.151286      -276.2305
   3   2.0000     -10.090861      -274.5863
   4   2.0000     -10.042932      -273.2821
   5   2.0000     -10.029179      -272.9078
   6   2.0000     -10.028235      -272.8822
   7   2.0000      -1.071246       -29.1501
   8   2.0000      -0.975128       -26.5346
   9   2.0000      -0.763629       -20.7794
  10   2.0000      -0.730775       -19.8854
  11   2.0000      -0.643717       -17.5164
  12   2.0000      -0.596091       -16.2205
  13   2.0000      -0.521000       -14.1771
  14   2.0000      -0.472334       -12.8529
  15   2.0000      -0.452443       -12.3116
  16   2.0000      -0.443230       -12.0609
  17   2.0000      -0.410779       -11.1779
  18   2.0000      -0.405678       -11.0390
  19   2.0000      -0.379840       -10.3360
  20   2.0000      -0.370054       -10.0697
  21   2.0000      -0.354243        -9.6394
  22   2.0000      -0.336565        -9.1584
  23   2.0000      -0.327205        -8.9037
  24   2.0000      -0.321829        -8.7574
  25   2.0000      -0.305145        -8.3034
  26   2.0000      -0.271014        -7.3747
  27   2.0000      -0.235599        -6.4110
  28   0.0000      -0.014777        -0.4021
  29   0.0000       0.076747         2.0884
  30   0.0000       0.093273         2.5381
  31   0.0000       0.117588         3.1997
  32   0.0000       0.125600         3.4177

MULLIKEN ATOMIC CHARGES
-----------------------
   0 C :   -0.462078
   1 C :   -0.303377
   2 C :    0.410874
   3 O :   -0.437126
   4 O :   -0.178246
   5 C :   -0.138053
   6 C :   -0.467920
   7 H :    0.144462
   8 H :    0.150773
   9 H :    0.171297
  10 H :    0.162496
  11 H :    0.161393
  12 H :    0.168436
  13 H :    0.147469
  14 H :    0.170725
  15 H :    0.147198
  16 H :    0.151677
Sum of atomic charges:    0.0000000

LOEWDIN ATOMIC CHARGES
----------------------
   0 C :   -0.394874
   1 C :   -0.237035
   2 C :    0.358890
   3 O :   -0.437587
   4 O :   -0.596258
   5 C :    0.026997
   6 C :   -0.390243
   7 H :    0.154417
   8 H :    0.152002
   9 H :    0.164765
  10 H :    0.174012
  11 H :    0.177692
  12 H :    0.188696
  13 H :    0.177548
  14 H :    0.164817
  15 H :    0.159218
  16 H :    0.156943

  Mayer bond orders larger than 0.100000
B(  0-C ,  1-C ) :   0.8988 B(  0-C ,  7-H ) :   0.9745 B(  0-C ,  8-H ) :   0.9731
B(  0-C ,  9-H ) :   0.9727 B(  1-C ,  2-C ) :   0.9523 B(  1-C , 10-H ) :   0.9863
B(  1-C , 11-H ) :   0.9526 B(  2-C ,  3-O ) :   1.8223 B(  2-C ,  4-O ) :   1.0618
B(  4-O ,  5-C ) :   0.8144 B(  5-C ,  6-C ) :   0.9398 B(  5-C , 12-H ) :   0.9649
B(  5-C , 13-H ) :   0.9609 B(  6-C , 14-H ) :   0.9714 B(  6-C , 15-H ) :   0.9656
B(  6-C , 16-H ) :   0.9740

Dispersion correction           -0.003989788
FINAL SINGLE POINT ENERGY      -346.936393275321

DIPOLE MOMENT
-------------

Method             : SCF
Type of density    : Electron Density
Multiplicity       :   1
Irrep              :   0
Energy             :  -346.9428377023801318 Eh
Relativity type    :
Basis              : AO
                                X                 Y                 Z
Electronic contribution:      0.234680474      -0.467342925      -3.880067130
Nuclear contribution   :     -0.007634168       1.147567079       4.116451284
                        -----------------------------------------
Total Dipole Moment    :      0.227046306       0.680224154       0.236384154
                        -----------------------------------------
Magnitude (a.u.)       :      0.755071118
Magnitude (Debye)      :      1.919238258

Rotational constants in cm-1:             0.174936             0.048681             0.048012
Rotational constants in MHz :          5244.439519          1459.410057          1439.368079

                             ****ORCA TERMINATED NORMALLY****
TOTAL RUN TIME: 0 days 0 hours 0 minutes 21 seconds 194 msec
