                         Program Version 6.0.0  -   RELEASE  -
|  1> ! r2scan-3c def2/J RI DEFGRID2 scfconv6 printgap
|  2> %output
|  3>     printlevel normal
|  4> end
|  5> %cpcm
|  6>     smd true
|  7>     smdsolvent "water"
|  8> end
|  9> * xyz 0 1
| 10> C -2.5337250459 0.0187408907 0.9153713772
| 11> C -1.7589282223 0.6137143664 -0.2613444345
| 12> C -0.4307534803 -0.0830693794 -0.414649694
| 13> O -0.2939665799 -1.2692752423 -0.630632879
| 14> O 0.5829775001 0.763006237 -0.2839158008
| 15> C 1.923390245 0.2503455604 -0.3737409855
| 16> C 2.416102067 -0.2286655754 0.9831890709
| 17> H -2.0113164536 0.2073358359 1.8498084567
| 18> H -3.5223704396 0.463616215 0.9708988121
| 19> H -2.6350957752 -1.0560633718 0.7856503424
| 20> H -1.5813038801 1.6781336297 -0.1168903061
| 21> H -2.3235693041 0.4578629066 -1.1817439337
| 22> H 1.935288242 -0.5682890478 -1.0997407192
| 23> H 2.5158986086 1.089977574 -0.7382221747
| 24> H 1.8137464065 -1.068464802 1.3225484802
| 25> H 3.4496932141 -0.5478624997 0.8986226173
| 26> H 2.3463247275 0.5749553127 1.7112800133
| 27> *
| 28>
| 29>                          ****END OF INPUT****

CARTESIAN COORDINATES (ANGSTROEM)
---------------------------------
  C     -2.533725    0.018741    0.915371
  C     -1.758928    0.613714   -0.261344
  C     -0.430753   -0.083069   -0.414650
  O     -0.293967   -1.269275   -0.630633
  O      0.582978    0.763006   -0.283916
  C      1.923390    0.250346   -0.373741
  C      2.416102   -0.228666    0.983189
  H     -2.011316    0.207336    1.849808
  H     -3.522370    0.463616    0.970899
  H     -2.635096   -1.056063    0.785650
  H     -1.581304    1.678134   -0.116890
  H     -2.323569    0.457863   -1.181744
  H      1.935288   -0.568289   -1.099741
  H      2.515899    1.089978   -0.738222
  H      1.813746   -1.068465    1.322548
  H      3.449693   -0.547862    0.898623
  H      2.346325    0.574955    1.711280

 Total Charge           Charge          ....    0
 Multiplicity           Mult            ....    1
 Number of Electrons    NEL             ....   56
 Basis Dimension        Dim             ....  193

ORBITAL ENERGIES
----------------

  NO   OCC          E(Eh)            E(eV)
   0   2.0000     -19.002912      -517.0955
   1   2.0000     -18.943017      -515.4657
   2   2.0000     -10.162019      -276.5226
   3   2.0000     -10.083050      -274.3737
   4   2.0000     -10.037251      -273.1275
   5   2.0000     -10.020637      -272.6754
   6   2.0000     -10.018435      -272.6155
   7   2.0000      -1.078766       -29.3547
   8   2.0000      -0.988907       -26.9095
   9   2.0000      -0.759875       -20.6772
  10   2.0000      -0.723628       -19.6909
  11   2.0000      -0.638860       -17.3843
  12   2.0000      -0.590191       -16.0599
  13   2.0000      -0.519306       -14.1310
  14   2.0000      -0.472763       -12.8645
  15   2.0000      -0.458240       -12.4694
  16   2.0000      -0.445289       -12.1169
  17   2.0000      -0.413100       -11.2410
  18   2.0000      -0.400703       -10.9037
  19   2.0000      -0.375000       -10.2043
  20   2.0000      -0.366294        -9.9674
  21   2.0000      -0.347124        -9.4457
  22   2.0000      -0.333206        -9.0670
  23   2.0000      -0.324849        -8.8396
  24   2.0000      -0.315374        -8.5818
  25   2.0000      -0.302988        -8.2447
  26   2.0000      -0.278764        -7.5856
  27   2.0000      -0.251725        -6.8498
  28   0.0000      -0.022808        -0.6207
  29   0.0000       0.079085         2.1520
  30   0.0000       0.100870         2.7448
  31   0.0000       0.127324         3.4647
  32   0.0000       0.134930         3.6716

MULLIKEN ATOMIC CHARGES
-----------------------
   0 C :   -0.492494
   1 C :   -0.315174
   2 C :    0.450434
   3 O :   -0.520150
   4 O :   -0.198266
   5 C :   -0.142903
   6 C :   -0.492806
   7 H :    0.163109
   8 H :    0.170647
   9 H :    0.165812
  10 H :    0.176738
  11 H :    0.186911
  12 H :    0.171157
  13 H :    0.173457
  14 H :    0.167349
  15 H :    0.170450
  16 H :    0.165727
Sum of atomic charges:    0.0000000

LOEWDIN ATOMIC CHARGES
----------------------
   0 C :   -0.397949
   1 C :   -0.233350
   2 C :    0.368787
   3 O :   -0.497215
   4 O :   -0.598582
   5 C :    0.031737
   6 C :   -0.392941
   7 H :    0.159858
   8 H :    0.159739
   9 H :    0.161285
  10 H :    0.181258
  11 H :    0.186784
  12 H :    0.189638
  13 H :    0.188894
  14 H :    0.162320
  15 H :    0.167778
  16 H :    0.161959

  Mayer bond orders larger than 0.100000
B(  0-C ,  1-C ) :   0.8831 B(  0-C ,  7-H ) :   0.9712 B(  0-C ,  8-H ) :   0.9671
B(  0-C ,  9-H ) :   0.9738 B(  1-C ,  2-C ) :   0.9545 B(  1-C , 10-H ) :   0.9776
B(  1-C , 11-H ) :   0.9453 B(  2-C ,  3-O ) :   1.7558 B(  2-C ,  4-O ) :   1.0852
B(  4-O ,  5-C ) :   0.7969 B(  5-C ,  6-C ) :   0.9390 B(  5-C , 12-H ) :   0.9612
B(  5-C , 13-H ) :   0.9516 B(  6-C , 14-H ) :   0.9690 B(  6-C , 15-H ) :   0.9605
B(  6-C , 16-H ) :   0.9700

Dispersion correction           -0.003989788
FINAL SINGLE POINT ENERGY      -346.941339192395

DIPOLE MOMENT
-------------

Method             : SCF
Type of density    : Electron Density
Multiplicity       :   1
Irrep              :   0
Energy             :  -346.9477836194532756 Eh
Relativity type    :
Basis              : AO
                                X                 Y                 Z
Electronic contribution:      0.307002294      -0.125315095      -3.812896492
Nuclear contribution   :     -0.007634168       1.147567079       4.116451284
                        -----------------------------------------
Total Dipole Moment    :      0.299368126       1.022251984       0.303554792
                        -----------------------------------------
Magnitude (a.u.)       :      1.107594648
Magnitude (Debye)      :      2.815281862

Rotational constants in cm-1:             0.174936             0.048681             0.048012
Rotational constants in MHz :          5244.439519          1459.410057          1439.368079

                             ****ORCA TERMINATED NORMALLY****
TOTAL RUN TIME: 0 days 0 hours 0 minutes 25 seconds 327 msec
