                         Program Version 6.0.0  -   RELEASE  -
|  1> ! pbe def2-sv(p) def2/J RI DEFGRID1 loosescf d4 GCP(DFT/SV(P)) printgap
|  2> %output
|  3>     printlevel normal
|  4> end
|  5> * xyz 0 1
|  6> C -2.3799879908 0.1550594066 1.0427814346
|  7> C -1.796344492 0.524146328 -0.3240581001
|  8> C -0.4477661241 -0.1300282257 -0.4795285894
|  9> O -0.2753366785 -1.3048109061 -0.7312251656
| 10> O 0.538709106 0.7355527126 -0.2874386126
| 11> C 1.8943233561 0.2594254 -0.3376852489
| 12> C 2.3652201063 -0.1849838193 1.0386277598
| 13> H -1.748469742 0.5370939249 1.840879454
| 14> H -3.3726663947 0.5824593993 1.1460652482
| 15> H -2.4494141671 -0.9259290783 1.1391298066
| 16> H -1.6773635341 1.6029352642 -0.4085016009
| 17> H -2.4506774272 0.1538135175 -1.1129609369
| 18> H 1.945968585 -0.5691654567 -1.0504913036
| 19> H 2.473970219 1.1088138655 -0.7005738676
| 20> H 3.4069260319 -0.4836200125 0.9832518252
| 21> H 2.2623539389 0.6296707677 1.7502771664
| 22> H 1.7729512432 -1.0312496347 1.3797072936
| 23> *
| 24>
| 25>                          ****END OF INPUT****

CARTESIAN COORDINATES (ANGSTROEM)
---------------------------------
  C     -2.379988    0.155059    1.042781
  C     -1.796344    0.524146   -0.324058
  C     -0.447766   -0.130028   -0.479529
  O     -0.275337   -1.304811   -0.731225
  O      0.538709    0.735553   -0.287439
  C      1.894323    0.259425   -0.337685
  C      2.365220   -0.184984    1.038628
  H     -1.748470    0.537094    1.840879
  H     -3.372666    0.582459    1.146065
  H     -2.449414   -0.925929    1.139130
  H     -1.677364    1.602935   -0.408502
  H     -2.450677    0.153814   -1.112961
  H      1.945969   -0.569165   -1.050491
  H      2.473970    1.108814   -0.700574
  H      3.406926   -0.483620    0.983252
  H      2.262354    0.629671    1.750277
  H      1.772951   -1.031250    1.379707

 Total Charge           Charge          ....    0
 Multiplicity           Mult            ....    1
 Number of Electrons    NEL             ....   56
 Basis Dimension        Dim             ....  118

ORBITAL ENERGIES
----------------

  NO   OCC          E(Eh)            E(eV)
   0   2.0000     -18.797162      -511.4968
   1   2.0000     -18.729685      -509.6606
   2   2.0000     -10.003726      -272.2152
   3   2.0000      -9.945734      -270.6372
   4   2.0000      -9.897966      -269.3373
   5   2.0000      -9.887594      -269.0551
   6   2.0000      -9.887262      -269.0461
   7   2.0000      -1.003409       -27.3041
   8   2.0000      -0.907249       -24.6875
   9   2.0000      -0.720375       -19.6024
  10   2.0000      -0.687474       -18.7071
  11   2.0000      -0.606847       -16.5132
  12   2.0000      -0.562810       -15.3148
  13   2.0000      -0.494986       -13.4693
  14   2.0000      -0.450955       -12.2711
  15   2.0000      -0.432171       -11.7600
  16   2.0000      -0.419079       -11.4037
  17   2.0000      -0.391239       -10.6461
  18   2.0000      -0.385287       -10.4842
  19   2.0000      -0.366767        -9.9802
  20   2.0000      -0.355505        -9.6738
  21   2.0000      -0.340814        -9.2740
  22   2.0000      -0.322929        -8.7873
  23   2.0000      -0.313816        -8.5394
  24   2.0000      -0.312309        -8.4984
  25   2.0000      -0.288951        -7.8628
  26   2.0000      -0.254343        -6.9210
  27   2.0000      -0.215769        -5.8714
  28   0.0000      -0.018946        -0.5156
  29   0.0000       0.040983         1.1152
  30   0.0000       0.062222         1.6932
  31   0.0000       0.077818         2.1175
  32   0.0000       0.088339         2.4038

MULLIKEN ATOMIC CHARGES
-----------------------
   0 C :   -0.303006
   1 C :   -0.135969
   2 C :    0.100227
   3 O :   -0.216220
   4 O :   -0.238838
   5 C :   -0.016138
   6 C :   -0.302333
   7 H :    0.109211
   8 H :    0.115421
   9 H :    0.121013
  10 H :    0.097804
  11 H :    0.108678
  12 H :    0.109323
  13 H :    0.101455
  14 H :    0.112411
  15 H :    0.112725
  16 H :    0.124234
Sum of atomic charges:    0.0000000

LOEWDIN ATOMIC CHARGES
----------------------
   0 C :   -0.330318
   1 C :   -0.250410
   2 C :    0.037360
   3 O :   -0.176226
   4 O :   -0.068001
   5 C :   -0.114008
   6 C :   -0.355524
   7 H :    0.121329
   8 H :    0.123523
   9 H :    0.126544
  10 H :    0.128230
  11 H :    0.137251
  12 H :    0.119792
  13 H :    0.116738
  14 H :    0.130245
  15 H :    0.123801
  16 H :    0.129674

  Mayer bond orders larger than 0.100000
B(  0-C ,  1-C ) :   1.1420 B(  0-C ,  7-H ) :   0.9545 B(  0-C ,  8-H ) :   0.9531
B(  0-C ,  9-H ) :   0.9519 B(  1-C ,  2-C ) :   1.0231 B(  1-C , 10-H ) :   0.9106
B(  1-C , 11-H ) :   0.9063 B(  2-C ,  3-O ) :   2.0382 B(  2-C ,  4-O ) :   1.2135
B(  4-O ,  5-C ) :   0.9206 B(  5-C ,  6-C ) :   1.1736 B(  5-C , 12-H ) :   0.9109
B(  5-C , 13-H ) :   0.9370 B(  6-C , 14-H ) :   0.9447 B(  6-C , 15-H ) :   0.9495
B(  6-C , 16-H ) :   0.9471

Dispersion correction           -0.012032248
FINAL SINGLE POINT ENERGY      -346.244518235195

DIPOLE MOMENT
-------------

Method             : SCF
Type of density    : Electron Density
Multiplicity       :   1
Irrep              :   0
Energy             :  -346.3089998653467205 Eh
Relativity type    :
Basis              : AO
                                X                 Y                 Z
Electronic contribution:      0.064823672      -0.874114443      -4.364761966
Nuclear contribution   :      0.157369022       1.497151976       4.644570118
                        -----------------------------------------
Total Dipole Moment    :      0.222192693       0.623037533       0.279808153
                        -----------------------------------------
Magnitude (a.u.)       :      0.718218603
Magnitude (Debye)      :      1.825566610

Rotational constants in cm-1:             0.161407             0.051355             0.048685
Rotational constants in MHz :          4838.850462          1539.592447          1459.535257

                             ****ORCA TERMINATED NORMALLY****
TOTAL RUN TIME: 0 days 0 hours 0 minutes 8 seconds 991 msec
