                         Program Version 6.0.0  -   RELEASE  -
|  1> ! r2scan-3c def2/J RI DEFGRID2 scfconv6 printgap
|  2> %output
|  3>     printlevel normal
|  4> end
|  5> %cpcm
|  6>     smd true
|  7>     smdsolvent "water"
|  8> end
|  9> * xyz 0 1
| 10> C -3.2555340365 1.313229326 0.7024571951
| 11> O -2.2345167528 1.3888641561 -0.2926586787
| 12> C -1.1462571114 0.5578157412 -0.1527864165
| 13> C -1.1868759557 -0.8295537992 -0.0929521069
| 14> C -0.0173406187 -1.5600027015 0.0385581773
| 15> C 1.1891857454 -0.8947228139 0.0882816109
| 16> C 1.289686194 0.4987837057 -0.0058174427
| 17> C 0.0956103001 1.2219119332 -0.1273470597
| 18> O 0.0935114197 2.5722886808 -0.2295487093
| 19> O 2.5485071189 0.9953802161 0.0439864371
| 20> C 2.7942201755 2.3903160984 -0.0699999342
| 21> Cl 2.6524751639 -1.7979611486 0.2508636383
| 22> Cl -2.6767009174 -1.7046608276 -0.2290531374
| 23> H -3.8980019747 2.1691333692 0.5113755346
| 24> H -2.8226750588 1.381970184 1.7024199504
| 25> H -3.8353292933 0.3948499162 0.6183473731
| 26> H -0.0457363165 -2.6346413722 0.0927385886
| 27> H -0.8309272858 2.8656838366 -0.3445874228
| 28> H 2.4371075068 2.777537742 -1.0241880065
| 29> H 3.8767984608 2.4803238742 -0.0131819521
| 30> H 2.3301595477 2.941267627 0.7480650986
| 31> *
| 32>
| 33>                          ****END OF INPUT****

CARTESIAN COORDINATES (ANGSTROEM)
---------------------------------
  C     -3.255534    1.313229    0.702457
  O     -2.234517    1.388864   -0.292659
  C     -1.146257    0.557816   -0.152786
  C     -1.186876   -0.829554   -0.092952
  C     -0.017341   -1.560003    0.038558
  C      1.189186   -0.894723    0.088282
  C      1.289686    0.498784   -0.005817
  C      0.095610    1.221912   -0.127347
  O      0.093511    2.572289   -0.229549
  O      2.548507    0.995380    0.043986
  C      2.794220    2.390316   -0.070000
  Cl     2.652475   -1.797961    0.250864
  Cl    -2.676701   -1.704661   -0.229053
  H     -3.898002    2.169133    0.511376
  H     -2.822675    1.381970    1.702420
  H     -3.835329    0.394850    0.618347
  H     -0.045736   -2.634641    0.092739
  H     -0.830927    2.865684   -0.344587
  H      2.437108    2.777538   -1.024188
  H      3.876798    2.480324   -0.013182
  H      2.330160    2.941268    0.748065

 Total Charge           Charge          ....    0
 Multiplicity           Mult            ....    1
 Number of Electrons    NEL             ....  114
 Basis Dimension        Dim             ....  318

ORBITAL ENERGIES
----------------

  NO   OCC          E(Eh)            E(eV)
   0   2.0000    -101.229812     -2754.6032
   1   2.0000    -101.225871     -2754.4960
   2   2.0000     -18.995782      -516.9015
   3   2.0000     -18.995200      -516.8857
   4   2.0000     -18.989159      -516.7213
   5   2.0000     -10.115460      -275.2557
   6   2.0000     -10.114943      -275.2416
   7   2.0000     -10.110254      -275.1140
   8   2.0000     -10.105214      -274.9768
   9   2.0000     -10.103210      -274.9223
  10   2.0000     -10.074950      -274.1533
  11   2.0000     -10.073367      -274.1102
  12   2.0000     -10.051591      -273.5177
  13   2.0000      -9.385746      -255.3991
  14   2.0000      -9.381830      -255.2926
  15   2.0000      -7.132037      -194.0726
  16   2.0000      -7.128096      -193.9654
  17   2.0000      -7.121924      -193.7974
  18   2.0000      -7.121528      -193.7866
  19   2.0000      -7.118163      -193.6950
  20   2.0000      -7.117479      -193.6764
  21   2.0000      -1.056591       -28.7513
  22   2.0000      -1.041907       -28.3517
  23   2.0000      -1.020411       -27.7668
  24   2.0000      -0.875867       -23.8336
  25   2.0000      -0.845524       -23.0079
  26   2.0000      -0.795255       -21.6400
  27   2.0000      -0.727232       -19.7890
  28   2.0000      -0.720917       -19.6172
  29   2.0000      -0.672138       -18.2898
  30   2.0000      -0.648341       -17.6423
  31   2.0000      -0.597623       -16.2622
  32   2.0000      -0.573469       -15.6049
  33   2.0000      -0.528491       -14.3810
  34   2.0000      -0.508834       -13.8461
  35   2.0000      -0.490611       -13.3502
  36   2.0000      -0.467487       -12.7210
  37   2.0000      -0.451006       -12.2725
  38   2.0000      -0.449070       -12.2198
  39   2.0000      -0.433469       -11.7953
  40   2.0000      -0.422947       -11.5090
  41   2.0000      -0.402376       -10.9492
  42   2.0000      -0.397598       -10.8192
  43   2.0000      -0.387967       -10.5571
  44   2.0000      -0.376266       -10.2387
  45   2.0000      -0.361978        -9.8499
  46   2.0000      -0.357517        -9.7285
  47   2.0000      -0.348661        -9.4875
  48   2.0000      -0.329015        -8.9529
  49   2.0000      -0.308539        -8.3958
  50   2.0000      -0.306814        -8.3488
  51   2.0000      -0.300172        -8.1681
  52   2.0000      -0.286282        -7.7901
  53   2.0000      -0.275893        -7.5074
  54   2.0000      -0.267908        -7.2901
  55   2.0000      -0.211491        -5.7550
  56   2.0000      -0.198649        -5.4055
  57   0.0000      -0.039038        -1.0623
  58   0.0000      -0.033027        -0.8987
  59   0.0000      -0.019849        -0.5401
  60   0.0000       0.026384         0.7179
  61   0.0000       0.041935         1.1411

MULLIKEN ATOMIC CHARGES
-----------------------
   0 C :   -0.300372
   1 O :   -0.301379
   2 C :    0.228009
   3 C :    0.072792
   4 C :   -0.410531
   5 C :    0.041760
   6 C :    0.153294
   7 C :    0.131127
   8 O :   -0.404290
   9 O :   -0.208231
  10 C :   -0.322920
  11 Cl:   -0.145863
  12 Cl:   -0.146297
  13 H :    0.174982
  14 H :    0.171900
  15 H :    0.168017
  16 H :    0.205812
  17 H :    0.377653
  18 H :    0.172098
  19 H :    0.170563
  20 H :    0.171877
Sum of atomic charges:   -0.0000000

LOEWDIN ATOMIC CHARGES
----------------------
   0 C :   -0.046970
   1 O :   -0.718463
   2 C :    0.172772
   3 C :   -0.161923
   4 C :   -0.197402
   5 C :   -0.145756
   6 C :    0.188626
   7 C :    0.225477
   8 O :   -0.489081
   9 O :   -0.703353
  10 C :   -0.029338
  11 Cl:    0.164951
  12 Cl:    0.144680
  13 H :    0.187590
  14 H :    0.176686
  15 H :    0.168903
  16 H :    0.199111
  17 H :    0.318522
  18 H :    0.180384
  19 H :    0.184120
  20 H :    0.180463

  Mayer bond orders larger than 0.100000
B(  0-C ,  1-O ) :   0.8413 B(  0-C , 13-H ) :   0.9614 B(  0-C , 14-H ) :   0.9550
B(  0-C , 15-H ) :   0.9510 B(  1-O ,  2-C ) :   0.9796 B(  2-C ,  3-C ) :   1.2266
B(  2-C ,  7-C ) :   1.2450 B(  3-C ,  4-C ) :   1.2472 B(  3-C , 12-Cl) :   1.0300
B(  4-C ,  5-C ) :   1.3246 B(  4-C , 11-Cl) :   0.1078 B(  4-C , 16-H ) :   0.9071
B(  5-C ,  6-C ) :   1.2652 B(  5-C , 11-Cl) :   0.9756 B(  6-C ,  7-C ) :   1.2386
B(  6-C ,  9-O ) :   1.1708 B(  7-C ,  8-O ) :   1.0163 B(  8-O , 17-H ) :   0.8092
B(  9-O , 10-C ) :   0.8500 B( 10-C , 18-H ) :   0.9550 B( 10-C , 19-H ) :   0.9595
B( 10-C , 20-H ) :   0.9547

Dispersion correction           -0.008938640
FINAL SINGLE POINT ENERGY     -1455.552256772927

DIPOLE MOMENT
-------------

Method             : SCF
Type of density    : Electron Density
Multiplicity       :   1
Irrep              :   0
Energy             : -1455.5601866587674067 Eh
Relativity type    :
Basis              : AO
                                X                 Y                 Z
Electronic contribution:      1.553381547     -14.855437476      -1.681884717
Nuclear contribution   :     -2.577650605      16.385553962       2.112996065
                        -----------------------------------------
Total Dipole Moment    :     -1.024269058       1.530116486       0.431111348
                        -----------------------------------------
Magnitude (a.u.)       :      1.891095069
Magnitude (Debye)      :      4.806781664

Rotational constants in cm-1:             0.028441             0.015857             0.010403
Rotational constants in MHz :           852.633963           475.390670           311.864774

                             ****ORCA TERMINATED NORMALLY****
TOTAL RUN TIME: 0 days 0 hours 1 minutes 4 seconds 301 msec
