                         Program Version 6.0.0  -   RELEASE  -
|  1> ! pbe def2-sv(p) def2/J RI DEFGRID1 loosescf d4 GCP(DFT/SV(P)) printgap
|  2> %output
|  3>     printlevel normal
|  4> end
|  5> * xyz 0 1
|  6> C 2.8590105842 -0.8482453829 -1.1237472829
|  7> C 2.0602663512 -0.2454807017 0.0297127165
|  8> C 3.0036935376 0.3560401823 1.0689160075
|  9> C 1.0546341631 0.815875383 -0.4858164563
| 10> C -0.3614818978 0.4098212241 -0.1979452569
| 11> C -0.9930073194 0.814225527 0.9718547816
| 12> C -2.2841529361 0.4066912615 1.2575899704
| 13> C -2.9639711193 -0.4161203993 0.375712881
| 14> C -2.3441554447 -0.8276666226 -0.7922127349
| 15> C -1.0535409555 -0.4173342486 -1.0747493542
| 16> H 3.4448682136 -0.0785555505 -1.6220326018
| 17> H 2.1942964729 -1.3062838636 -1.8523500839
| 18> H 3.5396576881 -1.6130156703 -0.7560628605
| 19> H 1.4940232637 -1.0518490961 0.5102770571
| 20> H 3.5867736691 1.1629445872 0.6298918505
| 21> H 2.4423341992 0.750663083 1.9125515486
| 22> H 3.6910275972 -0.4004748058 1.4411145282
| 23> H 1.1826477495 0.9450911334 -1.5612391509
| 24> H 1.2599219239 1.7742304197 -0.0075686895
| 25> H -0.4686014218 1.4575447708 1.6640096128
| 26> H -2.7619295807 0.7328011436 2.1698931965
| 27> H -3.9720944171 -0.7339145245 0.5965489431
| 28> H -2.8691055391 -1.4686979151 -1.4853645309
| 29> H -0.5763903158 -0.7401836237 -1.9890147177
| 30> *
| 31>
| 32>                          ****END OF INPUT****

CARTESIAN COORDINATES (ANGSTROEM)
---------------------------------
  C      2.859011   -0.848245   -1.123747
  C      2.060266   -0.245481    0.029713
  C      3.003694    0.356040    1.068916
  C      1.054634    0.815875   -0.485816
  C     -0.361482    0.409821   -0.197945
  C     -0.993007    0.814226    0.971855
  C     -2.284153    0.406691    1.257590
  C     -2.963971   -0.416120    0.375713
  C     -2.344155   -0.827667   -0.792213
  C     -1.053541   -0.417334   -1.074749
  H      3.444868   -0.078556   -1.622033
  H      2.194296   -1.306284   -1.852350
  H      3.539658   -1.613016   -0.756063
  H      1.494023   -1.051849    0.510277
  H      3.586774    1.162945    0.629892
  H      2.442334    0.750663    1.912552
  H      3.691028   -0.400475    1.441115
  H      1.182648    0.945091   -1.561239
  H      1.259922    1.774230   -0.007569
  H     -0.468601    1.457545    1.664010
  H     -2.761930    0.732801    2.169893
  H     -3.972094   -0.733915    0.596549
  H     -2.869106   -1.468698   -1.485365
  H     -0.576390   -0.740184   -1.989015

 Total Charge           Charge          ....    0
 Multiplicity           Mult            ....    1
 Number of Electrons    NEL             ....   74
 Basis Dimension        Dim             ....  168

ORBITAL ENERGIES
----------------

  NO   OCC          E(Eh)            E(eV)
   0   2.0000      -9.899275      -269.3730
   1   2.0000      -9.896293      -269.2918
   2   2.0000      -9.887146      -269.0429
   3   2.0000      -9.887047      -269.0402
   4   2.0000      -9.886351      -269.0213
   5   2.0000      -9.886250      -269.0185
   6   2.0000      -9.885243      -268.9911
   7   2.0000      -9.884673      -268.9756
   8   2.0000      -9.874003      -268.6853
   9   2.0000      -9.873824      -268.6804
  10   2.0000      -0.776096       -21.1186
  11   2.0000      -0.730878       -19.8882
  12   2.0000      -0.677822       -18.4445
  13   2.0000      -0.665636       -18.1129
  14   2.0000      -0.611776       -16.6473
  15   2.0000      -0.604935       -16.4611
  16   2.0000      -0.539299       -14.6751
  17   2.0000      -0.522293       -14.2123
  18   2.0000      -0.501197       -13.6383
  19   2.0000      -0.461312       -12.5529
  20   2.0000      -0.415494       -11.3062
  21   2.0000      -0.411121       -11.1872
  22   2.0000      -0.394599       -10.7376
  23   2.0000      -0.389138       -10.5890
  24   2.0000      -0.374951       -10.2029
  25   2.0000      -0.367908       -10.0113
  26   2.0000      -0.357336        -9.7236
  27   2.0000      -0.344105        -9.3636
  28   2.0000      -0.331482        -9.0201
  29   2.0000      -0.319035        -8.6814
  30   2.0000      -0.308663        -8.3991
  31   2.0000      -0.294560        -8.0154
  32   2.0000      -0.287109        -7.8126
  33   2.0000      -0.283819        -7.7231
  34   2.0000      -0.277051        -7.5390
  35   2.0000      -0.225648        -6.1402
  36   2.0000      -0.215007        -5.8506
  37   0.0000      -0.031928        -0.8688
  38   0.0000      -0.028844        -0.7849
  39   0.0000       0.033897         0.9224
  40   0.0000       0.049337         1.3425
  41   0.0000       0.062997         1.7142

MULLIKEN ATOMIC CHARGES
-----------------------
   0 C :   -0.260546
   1 C :   -0.164458
   2 C :   -0.259858
   3 C :   -0.064491
   4 C :    0.047213
   5 C :   -0.116285
   6 C :   -0.047317
   7 C :   -0.050907
   8 C :   -0.047150
   9 C :   -0.115750
  10 H :    0.096628
  11 H :    0.103620
  12 H :    0.098705
  13 H :    0.094898
  14 H :    0.096793
  15 H :    0.103110
  16 H :    0.098646
  17 H :    0.081653
  18 H :    0.079231
  19 H :    0.037744
  20 H :    0.049469
  21 H :    0.050951
  22 H :    0.049404
  23 H :    0.038700
Sum of atomic charges:    0.0000000

LOEWDIN ATOMIC CHARGES
----------------------
   0 C :   -0.329952
   1 C :   -0.149975
   2 C :   -0.329931
   3 C :   -0.199559
   4 C :   -0.035617
   5 C :   -0.126418
   6 C :   -0.121147
   7 C :   -0.130551
   8 C :   -0.121002
   9 C :   -0.125841
  10 H :    0.116061
  11 H :    0.115829
  12 H :    0.117146
  13 H :    0.119313
  14 H :    0.116037
  15 H :    0.116328
  16 H :    0.117105
  17 H :    0.123455
  18 H :    0.122274
  19 H :    0.119654
  20 H :    0.122488
  21 H :    0.122157
  22 H :    0.122472
  23 H :    0.119674

  Mayer bond orders larger than 0.100000
B(  0-C ,  1-C ) :   1.1169 B(  0-C , 10-H ) :   0.9482 B(  0-C , 11-H ) :   0.9485
B(  0-C , 12-H ) :   0.9496 B(  1-C ,  2-C ) :   1.1188 B(  1-C ,  3-C ) :   1.0078
B(  1-C , 13-H ) :   0.9153 B(  2-C , 14-H ) :   0.9482 B(  2-C , 15-H ) :   0.9486
B(  2-C , 16-H ) :   0.9502 B(  3-C ,  4-C ) :   1.0844 B(  3-C , 17-H ) :   0.9049
B(  3-C , 18-H ) :   0.9055 B(  4-C ,  5-C ) :   1.3903 B(  4-C ,  9-C ) :   1.3854
B(  5-C ,  6-C ) :   1.3724 B(  5-C , 19-H ) :   0.9609 B(  6-C ,  7-C ) :   1.3819
B(  6-C , 20-H ) :   0.9634 B(  7-C ,  8-C ) :   1.3788 B(  7-C , 21-H ) :   0.9651
B(  8-C ,  9-C ) :   1.3758 B(  8-C , 22-H ) :   0.9636 B(  9-C , 23-H ) :   0.9608

Dispersion correction           -0.024206770
FINAL SINGLE POINT ENERGY      -388.577496965936

DIPOLE MOMENT
-------------

Method             : SCF
Type of density    : Electron Density
Multiplicity       :   1
Irrep              :   0
Energy             :  -388.6474417589460018 Eh
Relativity type    :
Basis              : AO
                                X                 Y                 Z
Electronic contribution:    -11.284059808       0.504089925       0.335872934
Nuclear contribution   :     11.433839673      -0.534473447      -0.327744664
                        -----------------------------------------
Total Dipole Moment    :      0.149779866      -0.030383522       0.008128270
                        -----------------------------------------
Magnitude (a.u.)       :      0.153046514
Magnitude (Debye)      :      0.389013322

Rotational constants in cm-1:             0.096907             0.025321             0.021723
Rotational constants in MHz :          2905.191455           759.114384           651.248048

                             ****ORCA TERMINATED NORMALLY****
TOTAL RUN TIME: 0 days 0 hours 0 minutes 12 seconds 234 msec
