                         Program Version 6.0.0  -   RELEASE  -
|  1> ! r2scan-3c def2/J RI DEFGRID2 scfconv6 printgap
|  2> %output
|  3>     printlevel normal
|  4> end
|  5> * xyz 0 1
|  6> C 1.9050757867 -0.9824519196 0.5795221291
|  7> C 1.1842007854 0.3426421791 0.3399620846
|  8> H 0.8451896722 0.7502509653 1.3054085009
|  9> C -0.0166629454 0.189440885 -0.5997966446
| 10> C -1.2425232688 -0.4993466964 0.0082491393
| 11> C -1.9418883333 0.3909450113 1.0335071968
| 12> C -2.2213579842 -0.8718197198 -1.1049428344
| 13> O 2.0484018681 1.2912425841 -0.2732076294
| 14> H 1.2242027781 -1.7078208966 1.0135390285
| 15> H 2.2825200629 -1.3712387003 -0.3634750989
| 16> H 2.7406586425 -0.8453223304 1.2626077782
| 17> H -0.2945725967 1.19071327 -0.9368943962
| 18> H 0.3189500083 -0.3669041913 -1.4774703673
| 19> H -0.9238147694 -1.4210986066 0.5057143276
| 20> H -2.8186080975 -0.1131220334 1.4331586436
| 21> H -2.2617814941 1.3206332286 0.5682858853
| 22> H -1.2824759671 0.6311254827 1.8629612284
| 23> H -3.098400431 -1.3639027966 -0.6914430663
| 24> H -2.5455256061 0.0205610678 -1.6356843852
| 25> H -1.7541597604 -1.5454705072 -1.8191356856
| 26> H 2.8553811866 1.3725564781 0.2526377306
| 27> *
| 28>
| 29>                          ****END OF INPUT****

CARTESIAN COORDINATES (ANGSTROEM)
---------------------------------
  C      1.905076   -0.982452    0.579522
  C      1.184201    0.342642    0.339962
  H      0.845190    0.750251    1.305409
  C     -0.016663    0.189441   -0.599797
  C     -1.242523   -0.499347    0.008249
  C     -1.941888    0.390945    1.033507
  C     -2.221358   -0.871820   -1.104943
  O      2.048402    1.291243   -0.273208
  H      1.224203   -1.707821    1.013539
  H      2.282520   -1.371239   -0.363475
  H      2.740659   -0.845322    1.262608
  H     -0.294573    1.190713   -0.936894
  H      0.318950   -0.366904   -1.477470
  H     -0.923815   -1.421099    0.505714
  H     -2.818608   -0.113122    1.433159
  H     -2.261781    1.320633    0.568286
  H     -1.282476    0.631125    1.862961
  H     -3.098400   -1.363903   -0.691443
  H     -2.545526    0.020561   -1.635684
  H     -1.754160   -1.545471   -1.819136
  H      2.855381    1.372556    0.252638

 Total Charge           Charge          ....    0
 Multiplicity           Mult            ....    1
 Number of Electrons    NEL             ....   58
 Basis Dimension        Dim             ....  208

ORBITAL ENERGIES
----------------

  NO   OCC          E(Eh)            E(eV)
   0   2.0000     -18.942964      -515.4642
   1   2.0000     -10.079464      -274.2762
   2   2.0000     -10.034944      -273.0647
   3   2.0000     -10.020313      -272.6666
   4   2.0000     -10.018895      -272.6280
   5   2.0000     -10.014977      -272.5214
   6   2.0000     -10.014705      -272.5140
   7   2.0000      -0.980401       -26.6781
   8   2.0000      -0.779282       -21.2053
   9   2.0000      -0.719417       -19.5763
  10   2.0000      -0.651245       -17.7213
  11   2.0000      -0.649601       -17.6765
  12   2.0000      -0.567249       -15.4356
  13   2.0000      -0.520880       -14.1739
  14   2.0000      -0.471787       -12.8380
  15   2.0000      -0.441546       -12.0151
  16   2.0000      -0.415115       -11.2959
  17   2.0000      -0.401538       -10.9264
  18   2.0000      -0.392349       -10.6764
  19   2.0000      -0.377616       -10.2754
  20   2.0000      -0.354413        -9.6441
  21   2.0000      -0.346925        -9.4403
  22   2.0000      -0.330151        -8.9839
  23   2.0000      -0.325120        -8.8470
  24   2.0000      -0.311190        -8.4679
  25   2.0000      -0.294611        -8.0168
  26   2.0000      -0.291684        -7.9371
  27   2.0000      -0.276444        -7.5224
  28   2.0000      -0.232904        -6.3376
  29   0.0000       0.064435         1.7534
  30   0.0000       0.084277         2.2933
  31   0.0000       0.114476         3.1151
  32   0.0000       0.118238         3.2174
  33   0.0000       0.123868         3.3706

MULLIKEN ATOMIC CHARGES
-----------------------
   0 C :   -0.513215
   1 C :    0.060381
   2 H :    0.116639
   3 C :   -0.271535
   4 C :   -0.057176
   5 C :   -0.492367
   6 C :   -0.475635
   7 O :   -0.423932
   8 H :    0.147913
   9 H :    0.163075
  10 H :    0.138730
  11 H :    0.162681
  12 H :    0.142260
  13 H :    0.137311
  14 H :    0.145802
  15 H :    0.153269
  16 H :    0.142101
  17 H :    0.145402
  18 H :    0.148140
  19 H :    0.147476
  20 H :    0.282679
Sum of atomic charges:   -0.0000000

LOEWDIN ATOMIC CHARGES
----------------------
   0 C :   -0.401681
   1 C :    0.050632
   2 H :    0.159551
   3 C :   -0.265407
   4 C :   -0.244734
   5 C :   -0.416413
   6 C :   -0.414484
   7 O :   -0.618006
   8 H :    0.157213
   9 H :    0.162071
  10 H :    0.151220
  11 H :    0.174909
  12 H :    0.165062
  13 H :    0.153770
  14 H :    0.153014
  15 H :    0.155352
  16 H :    0.150519
  17 H :    0.151913
  18 H :    0.155237
  19 H :    0.152899
  20 H :    0.267363

  Mayer bond orders larger than 0.100000
B(  0-C ,  1-C ) :   0.9146 B(  0-C ,  8-H ) :   0.9708 B(  0-C ,  9-H ) :   0.9831
B(  0-C , 10-H ) :   0.9696 B(  1-C ,  2-H ) :   0.9566 B(  1-C ,  3-C ) :   0.9402
B(  1-C ,  7-O ) :   0.8891 B(  3-C ,  4-C ) :   0.8795 B(  3-C , 11-H ) :   0.9640
B(  3-C , 12-H ) :   0.9761 B(  4-C ,  5-C ) :   0.9076 B(  4-C ,  6-C ) :   0.8965
B(  4-C , 13-H ) :   0.9657 B(  5-C , 14-H ) :   0.9744 B(  5-C , 15-H ) :   0.9863
B(  5-C , 16-H ) :   0.9714 B(  6-C , 17-H ) :   0.9761 B(  6-C , 18-H ) :   0.9831
B(  6-C , 19-H ) :   0.9815 B(  7-O , 20-H ) :   0.9028

Dispersion correction           -0.005520367
FINAL SINGLE POINT ENERGY      -312.202569061022

DIPOLE MOMENT
-------------

Method             : SCF
Type of density    : Electron Density
Multiplicity       :   1
Irrep              :   0
Energy             :  -312.2081718757470981 Eh
Relativity type    :
Basis              : AO
                                X                 Y                 Z
Electronic contribution:      4.481340513       2.875596539      -0.715472966
Nuclear contribution   :     -4.390636153      -3.216600158       1.196991858
                        -----------------------------------------
Total Dipole Moment    :      0.090704360      -0.341003618       0.481518892
                        -----------------------------------------
Magnitude (a.u.)       :      0.596968335
Magnitude (Debye)      :      1.517372919

Rotational constants in cm-1:             0.140722             0.044852             0.043855
Rotational constants in MHz :          4218.752470          1344.640322          1314.750284

                             ****ORCA TERMINATED NORMALLY****
TOTAL RUN TIME: 0 days 0 hours 0 minutes 32 seconds 132 msec
