                         Program Version 6.0.0  -   RELEASE  -
|  1> ! r2scan-3c def2/J RI DEFGRID2 scfconv6 printgap
|  2> %output
|  3>     printlevel normal
|  4> end
|  5> %cpcm
|  6>     smd true
|  7>     smdsolvent "water"
|  8> end
|  9> * xyz 0 1
| 10> C 1.9050757867 -0.9824519196 0.5795221291
| 11> C 1.1842007854 0.3426421791 0.3399620846
| 12> H 0.8451896722 0.7502509653 1.3054085009
| 13> C -0.0166629454 0.189440885 -0.5997966446
| 14> C -1.2425232688 -0.4993466964 0.0082491393
| 15> C -1.9418883333 0.3909450113 1.0335071968
| 16> C -2.2213579842 -0.8718197198 -1.1049428344
| 17> O 2.0484018681 1.2912425841 -0.2732076294
| 18> H 1.2242027781 -1.7078208966 1.0135390285
| 19> H 2.2825200629 -1.3712387003 -0.3634750989
| 20> H 2.7406586425 -0.8453223304 1.2626077782
| 21> H -0.2945725967 1.19071327 -0.9368943962
| 22> H 0.3189500083 -0.3669041913 -1.4774703673
| 23> H -0.9238147694 -1.4210986066 0.5057143276
| 24> H -2.8186080975 -0.1131220334 1.4331586436
| 25> H -2.2617814941 1.3206332286 0.5682858853
| 26> H -1.2824759671 0.6311254827 1.8629612284
| 27> H -3.098400431 -1.3639027966 -0.6914430663
| 28> H -2.5455256061 0.0205610678 -1.6356843852
| 29> H -1.7541597604 -1.5454705072 -1.8191356856
| 30> H 2.8553811866 1.3725564781 0.2526377306
| 31> *
| 32>
| 33>                          ****END OF INPUT****

CARTESIAN COORDINATES (ANGSTROEM)
---------------------------------
  C      1.905076   -0.982452    0.579522
  C      1.184201    0.342642    0.339962
  H      0.845190    0.750251    1.305409
  C     -0.016663    0.189441   -0.599797
  C     -1.242523   -0.499347    0.008249
  C     -1.941888    0.390945    1.033507
  C     -2.221358   -0.871820   -1.104943
  O      2.048402    1.291243   -0.273208
  H      1.224203   -1.707821    1.013539
  H      2.282520   -1.371239   -0.363475
  H      2.740659   -0.845322    1.262608
  H     -0.294573    1.190713   -0.936894
  H      0.318950   -0.366904   -1.477470
  H     -0.923815   -1.421099    0.505714
  H     -2.818608   -0.113122    1.433159
  H     -2.261781    1.320633    0.568286
  H     -1.282476    0.631125    1.862961
  H     -3.098400   -1.363903   -0.691443
  H     -2.545526    0.020561   -1.635684
  H     -1.754160   -1.545471   -1.819136
  H      2.855381    1.372556    0.252638

 Total Charge           Charge          ....    0
 Multiplicity           Mult            ....    1
 Number of Electrons    NEL             ....   58
 Basis Dimension        Dim             ....  208

ORBITAL ENERGIES
----------------

  NO   OCC          E(Eh)            E(eV)
   0   2.0000     -18.947433      -515.5859
   1   2.0000     -10.074298      -274.1356
   2   2.0000     -10.026783      -272.8426
   3   2.0000     -10.014144      -272.4987
   4   2.0000     -10.009311      -272.3672
   5   2.0000     -10.006441      -272.2891
   6   2.0000     -10.005997      -272.2770
   7   2.0000      -0.983634       -26.7660
   8   2.0000      -0.772174       -21.0119
   9   2.0000      -0.712237       -19.3809
  10   2.0000      -0.644008       -17.5244
  11   2.0000      -0.641724       -17.4622
  12   2.0000      -0.562009       -15.2931
  13   2.0000      -0.514302       -13.9949
  14   2.0000      -0.468123       -12.7383
  15   2.0000      -0.434701       -11.8288
  16   2.0000      -0.411089       -11.1863
  17   2.0000      -0.393885       -10.7182
  18   2.0000      -0.384989       -10.4761
  19   2.0000      -0.369486       -10.0542
  20   2.0000      -0.346413        -9.4264
  21   2.0000      -0.339892        -9.2489
  22   2.0000      -0.326047        -8.8722
  23   2.0000      -0.318796        -8.6749
  24   2.0000      -0.307774        -8.3750
  25   2.0000      -0.287985        -7.8365
  26   2.0000      -0.284114        -7.7311
  27   2.0000      -0.272494        -7.4149
  28   2.0000      -0.237547        -6.4640
  29   0.0000       0.080270         2.1842
  30   0.0000       0.093497         2.5442
  31   0.0000       0.123666         3.3651
  32   0.0000       0.127356         3.4655
  33   0.0000       0.130655         3.5553

MULLIKEN ATOMIC CHARGES
-----------------------
   0 C :   -0.554203
   1 C :    0.075158
   2 H :    0.133432
   3 C :   -0.292426
   4 C :   -0.036063
   5 C :   -0.541245
   6 C :   -0.522951
   7 O :   -0.515317
   8 H :    0.165902
   9 H :    0.165372
  10 H :    0.163068
  11 H :    0.160694
  12 H :    0.152962
  13 H :    0.153897
  14 H :    0.157805
  15 H :    0.162935
  16 H :    0.157076
  17 H :    0.157760
  18 H :    0.158037
  19 H :    0.158981
  20 H :    0.339125
Sum of atomic charges:   -0.0000000

LOEWDIN ATOMIC CHARGES
----------------------
   0 C :   -0.405343
   1 C :    0.051866
   2 H :    0.167545
   3 C :   -0.272737
   4 C :   -0.240500
   5 C :   -0.424821
   6 C :   -0.423283
   7 O :   -0.656624
   8 H :    0.163823
   9 H :    0.161908
  10 H :    0.159482
  11 H :    0.172142
  12 H :    0.166702
  13 H :    0.159648
  14 H :    0.155926
  15 H :    0.156836
  16 H :    0.154504
  17 H :    0.154966
  18 H :    0.156748
  19 H :    0.155293
  20 H :    0.285917

  Mayer bond orders larger than 0.100000
B(  0-C ,  1-C ) :   0.9219 B(  0-C ,  8-H ) :   0.9660 B(  0-C ,  9-H ) :   0.9789
B(  0-C , 10-H ) :   0.9653 B(  1-C ,  2-H ) :   0.9538 B(  1-C ,  3-C ) :   0.9295
B(  1-C ,  7-O ) :   0.8698 B(  3-C ,  4-C ) :   0.8881 B(  3-C , 11-H ) :   0.9640
B(  3-C , 12-H ) :   0.9700 B(  4-C ,  5-C ) :   0.8978 B(  4-C ,  6-C ) :   0.8811
B(  4-C , 13-H ) :   0.9661 B(  5-C , 14-H ) :   0.9722 B(  5-C , 15-H ) :   0.9855
B(  5-C , 16-H ) :   0.9686 B(  6-C , 17-H ) :   0.9737 B(  6-C , 18-H ) :   0.9824
B(  6-C , 19-H ) :   0.9792 B(  7-O , 20-H ) :   0.8772

Dispersion correction           -0.005520367
FINAL SINGLE POINT ENERGY      -312.208618683779

DIPOLE MOMENT
-------------

Method             : SCF
Type of density    : Electron Density
Multiplicity       :   1
Irrep              :   0
Energy             :  -312.2142214985046280 Eh
Relativity type    :
Basis              : AO
                                X                 Y                 Z
Electronic contribution:      4.527903095       2.705877360      -0.445170332
Nuclear contribution   :     -4.390636153      -3.216600158       1.196991858
                        -----------------------------------------
Total Dipole Moment    :      0.137266942      -0.510722798       0.751821526
                        -----------------------------------------
Magnitude (a.u.)       :      0.919192905
Magnitude (Debye)      :      2.336402687

Rotational constants in cm-1:             0.140722             0.044852             0.043855
Rotational constants in MHz :          4218.752470          1344.640322          1314.750284

                             ****ORCA TERMINATED NORMALLY****
TOTAL RUN TIME: 0 days 0 hours 0 minutes 36 seconds 486 msec
