                         Program Version 6.0.0  -   RELEASE  -
|  1> ! pbe def2-sv(p) def2/J RI DEFGRID1 loosescf d4 GCP(DFT/SV(P)) printgap
|  2> %output
|  3>     printlevel normal
|  4> end
|  5> * xyz 0 1
|  6> C 1.5011908007 -1.4393017342 -0.0558793338
|  7> C 1.1963733732 -0.0304645006 0.4508178994
|  8> C 1.7373865986 1.0156233883 -0.5225856081
|  9> C -0.296246068 0.1687153012 0.7433526843
| 10> C -1.2236335806 0.0318569318 -0.4615794672
| 11> O -2.5513139033 0.2450944925 -0.0116250726
| 12> H 2.5765175646 -1.5921195113 -0.1079008927
| 13> H 1.0902218188 -1.5910311521 -1.0506768254
| 14> H 1.0799989429 -2.1863982044 0.6123502334
| 15> H 1.7150472322 0.1014902741 1.4076458021
| 16> H 1.3300112191 0.8654794542 -1.5191005633
| 17> H 2.820368943 0.9409891384 -0.5857891689
| 18> H 1.481107951 2.0182277855 -0.1891473951
| 19> H -0.4527178906 1.1625834813 1.1685009679
| 20> H -0.6188324941 -0.5581095763 1.4921267369
| 21> H -0.9661280771 0.7761014088 -1.2251909705
| 22> H -1.1353761171 -0.9712792701 -0.8966426036
| 23> H -3.1591590704 0.1652020141 -0.7583385296
| 24> *
| 25>
| 26>                          ****END OF INPUT****

CARTESIAN COORDINATES (ANGSTROEM)
---------------------------------
  C      1.501191   -1.439302   -0.055879
  C      1.196373   -0.030465    0.450818
  C      1.737387    1.015623   -0.522586
  C     -0.296246    0.168715    0.743353
  C     -1.223634    0.031857   -0.461579
  O     -2.551314    0.245094   -0.011625
  H      2.576518   -1.592120   -0.107901
  H      1.090222   -1.591031   -1.050677
  H      1.079999   -2.186398    0.612350
  H      1.715047    0.101490    1.407646
  H      1.330011    0.865479   -1.519101
  H      2.820369    0.940989   -0.585789
  H      1.481108    2.018228   -0.189147
  H     -0.452718    1.162583    1.168501
  H     -0.618832   -0.558110    1.492127
  H     -0.966128    0.776101   -1.225191
  H     -1.135376   -0.971279   -0.896643
  H     -3.159159    0.165202   -0.758339

 Total Charge           Charge          ....    0
 Multiplicity           Mult            ....    1
 Number of Electrons    NEL             ....   50
 Basis Dimension        Dim             ....  108

ORBITAL ENERGIES
----------------

  NO   OCC          E(Eh)            E(eV)
   0   2.0000     -18.734734      -509.7980
   1   2.0000      -9.924777      -270.0669
   2   2.0000      -9.894428      -269.2411
   3   2.0000      -9.876218      -268.7455
   4   2.0000      -9.871884      -268.6276
   5   2.0000      -9.871836      -268.6263
   6   2.0000      -0.910155       -24.7666
   7   2.0000      -0.729435       -19.8489
   8   2.0000      -0.645425       -17.5629
   9   2.0000      -0.610102       -16.6017
  10   2.0000      -0.558158       -15.1883
  11   2.0000      -0.482770       -13.1368
  12   2.0000      -0.459334       -12.4991
  13   2.0000      -0.417575       -11.3628
  14   2.0000      -0.404356       -11.0031
  15   2.0000      -0.381147       -10.3715
  16   2.0000      -0.365086        -9.9345
  17   2.0000      -0.344111        -9.3637
  18   2.0000      -0.335725        -9.1355
  19   2.0000      -0.309840        -8.4312
  20   2.0000      -0.294801        -8.0219
  21   2.0000      -0.283522        -7.7150
  22   2.0000      -0.281351        -7.6559
  23   2.0000      -0.259395        -7.0585
  24   2.0000      -0.207374        -5.6429
  25   0.0000       0.032402         0.8817
  26   0.0000       0.033103         0.9008
  27   0.0000       0.068111         1.8534
  28   0.0000       0.071561         1.9473
  29   0.0000       0.092128         2.5069

MULLIKEN ATOMIC CHARGES
-----------------------
   0 C :   -0.257585
   1 C :   -0.167154
   2 C :   -0.257294
   3 C :   -0.141829
   4 C :   -0.019273
   5 O :   -0.438587
   6 H :    0.097932
   7 H :    0.100126
   8 H :    0.099851
   9 H :    0.073936
  10 H :    0.099975
  11 H :    0.097906
  12 H :    0.099845
  13 H :    0.087273
  14 H :    0.087269
  15 H :    0.071673
  16 H :    0.071508
  17 H :    0.294429
Sum of atomic charges:   -0.0000000

LOEWDIN ATOMIC CHARGES
----------------------
   0 C :   -0.332601
   1 C :   -0.156185
   2 C :   -0.332535
   3 C :   -0.229410
   4 C :   -0.123190
   5 O :   -0.352060
   6 H :    0.118239
   7 H :    0.113856
   8 H :    0.118032
   9 H :    0.117133
  10 H :    0.113851
  11 H :    0.118228
  12 H :    0.118019
  13 H :    0.118622
  14 H :    0.118621
  15 H :    0.094383
  16 H :    0.094343
  17 H :    0.282654

  Mayer bond orders larger than 0.100000
B(  0-C ,  1-C ) :   1.1058 B(  0-C ,  6-H ) :   0.9501 B(  0-C ,  7-H ) :   0.9457
B(  0-C ,  8-H ) :   0.9517 B(  1-C ,  2-C ) :   1.1064 B(  1-C ,  3-C ) :   1.0716
B(  1-C ,  9-H ) :   0.9017 B(  2-C , 10-H ) :   0.9456 B(  2-C , 11-H ) :   0.9500
B(  2-C , 12-H ) :   0.9517 B(  3-C ,  4-C ) :   1.1216 B(  3-C , 13-H ) :   0.9163
B(  3-C , 14-H ) :   0.9164 B(  4-C ,  5-O ) :   1.0770 B(  4-C , 15-H ) :   0.9200
B(  4-C , 16-H ) :   0.9201 B(  5-O , 17-H ) :   0.8546

Dispersion correction           -0.012896715
FINAL SINGLE POINT ENERGY      -272.298663021657

DIPOLE MOMENT
-------------

Method             : SCF
Type of density    : Electron Density
Multiplicity       :   1
Irrep              :   0
Energy             :  -272.3680297257038774 Eh
Relativity type    :
Basis              : AO
                                X                 Y                 Z
Electronic contribution:     -5.260980565       0.701613181       1.013325403
Nuclear contribution   :      5.366954322      -0.811499438      -1.550171951
                        -----------------------------------------
Total Dipole Moment    :      0.105973757      -0.109886257      -0.536846549
                        -----------------------------------------
Magnitude (a.u.)       :      0.558130490
Magnitude (Debye)      :      1.418654962

Rotational constants in cm-1:             0.201865             0.062671             0.056336
Rotational constants in MHz :          6051.773367          1878.818060          1688.908192

                             ****ORCA TERMINATED NORMALLY****
TOTAL RUN TIME: 0 days 0 hours 0 minutes 8 seconds 218 msec
