                         Program Version 6.0.0  -   RELEASE  -
|  1> ! pbe def2-sv(p) def2/J RI DEFGRID1 loosescf d4 GCP(DFT/SV(P)) printgap
|  2> %output
|  3>     printlevel normal
|  4> end
|  5> * xyz 0 1
|  6> C 2.0885795469 -1.068716901 -0.4654438201
|  7> C 0.8700241128 -0.4464238681 0.2152827941
|  8> C 1.194264618 0.9736708088 0.671929302
|  9> C -0.3318002031 -0.4696910595 -0.7373321644
| 10> C -1.6831852314 -0.2655951654 -0.0531104305
| 11> O -1.8626887411 1.0924745264 0.3029130998
| 12> H 2.9481777473 -1.040840738 0.1998060152
| 13> H 2.336706913 -0.5179752209 -1.3701529249
| 14> H 1.8952566512 -2.1046374096 -0.7344328063
| 15> H 0.6209952174 -1.0491834229 1.0965355948
| 16> H 0.3140279857 1.4482011821 1.0949655364
| 17> H 1.5287603658 1.5713073607 -0.1734810043
| 18> H 1.9830389697 0.9628720093 1.4206952324
| 19> H -0.3662586458 -1.4382126066 -1.2395261538
| 20> H -0.2100018497 0.3057188509 -1.4954002833
| 21> H -2.4783890562 -0.5707179468 -0.7475271561
| 22> H -1.7415142884 -0.9012469754 0.8416341383
| 23> H -2.7393311992 1.2076999379 0.6918817231
| 24> *
| 25>
| 26>                          ****END OF INPUT****

CARTESIAN COORDINATES (ANGSTROEM)
---------------------------------
  C      2.088580   -1.068717   -0.465444
  C      0.870024   -0.446424    0.215283
  C      1.194265    0.973671    0.671929
  C     -0.331800   -0.469691   -0.737332
  C     -1.683185   -0.265595   -0.053110
  O     -1.862689    1.092475    0.302913
  H      2.948178   -1.040841    0.199806
  H      2.336707   -0.517975   -1.370153
  H      1.895257   -2.104637   -0.734433
  H      0.620995   -1.049183    1.096536
  H      0.314028    1.448201    1.094966
  H      1.528760    1.571307   -0.173481
  H      1.983039    0.962872    1.420695
  H     -0.366259   -1.438213   -1.239526
  H     -0.210002    0.305719   -1.495400
  H     -2.478389   -0.570718   -0.747527
  H     -1.741514   -0.901247    0.841634
  H     -2.739331    1.207700    0.691882

 Total Charge           Charge          ....    0
 Multiplicity           Mult            ....    1
 Number of Electrons    NEL             ....   50
 Basis Dimension        Dim             ....  108

ORBITAL ENERGIES
----------------

  NO   OCC          E(Eh)            E(eV)
   0   2.0000     -18.740540      -509.9560
   1   2.0000      -9.928409      -270.1658
   2   2.0000      -9.887084      -269.0412
   3   2.0000      -9.878623      -268.8110
   4   2.0000      -9.866111      -268.4705
   5   2.0000      -9.855780      -268.1894
   6   2.0000      -0.916662       -24.9436
   7   2.0000      -0.723897       -19.6983
   8   2.0000      -0.649036       -17.6612
   9   2.0000      -0.599412       -16.3108
  10   2.0000      -0.547337       -14.8938
  11   2.0000      -0.491693       -13.3796
  12   2.0000      -0.465819       -12.6756
  13   2.0000      -0.407979       -11.1017
  14   2.0000      -0.401478       -10.9248
  15   2.0000      -0.374711       -10.1964
  16   2.0000      -0.359407        -9.7800
  17   2.0000      -0.334451        -9.1009
  18   2.0000      -0.330377        -8.9900
  19   2.0000      -0.311248        -8.4695
  20   2.0000      -0.299142        -8.1401
  21   2.0000      -0.277697        -7.5565
  22   2.0000      -0.274784        -7.4773
  23   2.0000      -0.258767        -7.0414
  24   2.0000      -0.210634        -5.7317
  25   0.0000       0.025825         0.7027
  26   0.0000       0.050767         1.3814
  27   0.0000       0.068735         1.8704
  28   0.0000       0.076165         2.0726
  29   0.0000       0.097355         2.6492

MULLIKEN ATOMIC CHARGES
-----------------------
   0 C :   -0.231140
   1 C :   -0.194569
   2 C :   -0.245110
   3 C :   -0.150635
   4 C :    0.021570
   5 O :   -0.431495
   6 H :    0.096173
   7 H :    0.091560
   8 H :    0.092833
   9 H :    0.064740
  10 H :    0.116995
  11 H :    0.085954
  12 H :    0.087852
  13 H :    0.078709
  14 H :    0.086381
  15 H :    0.068905
  16 H :    0.063220
  17 H :    0.298057
Sum of atomic charges:    0.0000000

LOEWDIN ATOMIC CHARGES
----------------------
   0 C :   -0.329833
   1 C :   -0.156737
   2 C :   -0.337634
   3 C :   -0.230074
   4 C :   -0.118889
   5 O :   -0.343447
   6 H :    0.116294
   7 H :    0.116038
   8 H :    0.113282
   9 H :    0.110036
  10 H :    0.121856
  11 H :    0.114400
  12 H :    0.111910
  13 H :    0.118962
  14 H :    0.122561
  15 H :    0.094287
  16 H :    0.092564
  17 H :    0.284424

  Mayer bond orders larger than 0.100000
B(  0-C ,  1-C ) :   1.1119 B(  0-C ,  6-H ) :   0.9525 B(  0-C ,  7-H ) :   0.9494
B(  0-C ,  8-H ) :   0.9491 B(  1-C ,  2-C ) :   1.1174 B(  1-C ,  3-C ) :   1.0857
B(  1-C ,  9-H ) :   0.9057 B(  2-C , 10-H ) :   0.9326 B(  2-C , 11-H ) :   0.9487
B(  2-C , 12-H ) :   0.9487 B(  3-C ,  4-C ) :   1.1274 B(  3-C , 13-H ) :   0.9171
B(  3-C , 14-H ) :   0.9082 B(  4-C ,  5-O ) :   1.0710 B(  4-C , 15-H ) :   0.9245
B(  4-C , 16-H ) :   0.9170 B(  5-O , 17-H ) :   0.8510

Dispersion correction           -0.012920892
FINAL SINGLE POINT ENERGY      -272.299489714292

DIPOLE MOMENT
-------------

Method             : SCF
Type of density    : Electron Density
Multiplicity       :   1
Irrep              :   0
Energy             :  -272.3695609846325851 Eh
Relativity type    :
Basis              : AO
                                X                 Y                 Z
Electronic contribution:     -4.371791932       1.640482048       0.508296583
Nuclear contribution   :      3.810824082      -1.979275275      -0.384844498
                        -----------------------------------------
Total Dipole Moment    :     -0.560967849      -0.338793227       0.123452086
                        -----------------------------------------
Magnitude (a.u.)       :      0.666862951
Magnitude (Debye)      :      1.695030916

Rotational constants in cm-1:             0.206565             0.070534             0.057200
Rotational constants in MHz :          6192.672897          2114.545805          1714.806006

                             ****ORCA TERMINATED NORMALLY****
TOTAL RUN TIME: 0 days 0 hours 0 minutes 8 seconds 94 msec
