                         Program Version 6.0.0  -   RELEASE  -
|  1> ! pbe def2-sv(p) def2/J RI DEFGRID1 loosescf d4 GCP(DFT/SV(P)) printgap
|  2> %output
|  3>     printlevel normal
|  4> end
|  5> * xyz 0 1
|  6> C -3.0708490353 0.7923484321 0.0564062183
|  7> C -1.5473582277 0.8319425258 0.0831618726
|  8> C -0.9612237104 -0.5678953909 -0.0768625184
|  9> C 0.5430520695 -0.6236818704 -0.0658199621
| 10> O 1.1830499371 -1.6515257371 -0.1776030583
| 11> O 1.1119198471 0.5654696782 0.0770605539
| 12> C 2.5403138436 0.6159387393 0.0975938847
| 13> H -3.4513902212 0.1721039456 0.864186284
| 14> H -3.4761057377 1.7937501003 0.1717068588
| 15> H -3.4260733078 0.3839647376 -0.8864947084
| 16> H -1.2064253489 1.2610039888 1.0262339467
| 17> H -1.1813808607 1.4711639575 -0.7212812121
| 18> H -1.2901777759 -1.0175178145 -1.0171063385
| 19> H -1.3113414768 -1.2257093915 0.7225277085
| 20> H 2.9211707 0.0522818281 0.9499330988
| 21> H 2.7939372015 1.6679410417 0.1799951399
| 22> H 2.9426969128 0.1844255842 -0.8195881379
| 23> *
| 24>
| 25>                          ****END OF INPUT****

CARTESIAN COORDINATES (ANGSTROEM)
---------------------------------
  C     -3.070849    0.792348    0.056406
  C     -1.547358    0.831943    0.083162
  C     -0.961224   -0.567895   -0.076863
  C      0.543052   -0.623682   -0.065820
  O      1.183050   -1.651526   -0.177603
  O      1.111920    0.565470    0.077061
  C      2.540314    0.615939    0.097594
  H     -3.451390    0.172104    0.864186
  H     -3.476106    1.793750    0.171707
  H     -3.426073    0.383965   -0.886495
  H     -1.206425    1.261004    1.026234
  H     -1.181381    1.471164   -0.721281
  H     -1.290178   -1.017518   -1.017106
  H     -1.311341   -1.225709    0.722528
  H      2.921171    0.052282    0.949933
  H      2.793937    1.667941    0.179995
  H      2.942697    0.184426   -0.819588

 Total Charge           Charge          ....    0
 Multiplicity           Mult            ....    1
 Number of Electrons    NEL             ....   56
 Basis Dimension        Dim             ....  118

ORBITAL ENERGIES
----------------

  NO   OCC          E(Eh)            E(eV)
   0   2.0000     -18.800559      -511.5892
   1   2.0000     -18.728908      -509.6395
   2   2.0000     -10.001902      -272.1656
   3   2.0000      -9.941171      -270.5130
   4   2.0000      -9.897136      -269.3148
   5   2.0000      -9.889007      -269.0936
   6   2.0000      -9.877834      -268.7895
   7   2.0000      -1.005794       -27.3690
   8   2.0000      -0.905020       -24.6268
   9   2.0000      -0.726436       -19.7673
  10   2.0000      -0.669232       -18.2107
  11   2.0000      -0.622113       -16.9285
  12   2.0000      -0.535682       -14.5766
  13   2.0000      -0.509371       -13.8607
  14   2.0000      -0.448705       -12.2099
  15   2.0000      -0.445672       -12.1274
  16   2.0000      -0.415057       -11.2943
  17   2.0000      -0.406628       -11.0649
  18   2.0000      -0.374882       -10.2011
  19   2.0000      -0.367078        -9.9887
  20   2.0000      -0.358752        -9.7621
  21   2.0000      -0.324363        -8.8264
  22   2.0000      -0.322617        -8.7789
  23   2.0000      -0.309418        -8.4197
  24   2.0000      -0.295395        -8.0381
  25   2.0000      -0.295107        -8.0303
  26   2.0000      -0.255454        -6.9513
  27   2.0000      -0.213083        -5.7983
  28   0.0000      -0.017568        -0.4780
  29   0.0000       0.033928         0.9232
  30   0.0000       0.058465         1.5909
  31   0.0000       0.078486         2.1357
  32   0.0000       0.080842         2.1998

MULLIKEN ATOMIC CHARGES
-----------------------
   0 C :   -0.256733
   1 C :   -0.183510
   2 C :   -0.202881
   3 C :    0.130192
   4 O :   -0.216785
   5 O :   -0.236806
   6 C :   -0.108465
   7 H :    0.097129
   8 H :    0.104373
   9 H :    0.097057
  10 H :    0.092626
  11 H :    0.092598
  12 H :    0.115341
  13 H :    0.115155
  14 H :    0.119735
  15 H :    0.120552
  16 H :    0.120422
Sum of atomic charges:   -0.0000000

LOEWDIN ATOMIC CHARGES
----------------------
   0 C :   -0.339814
   1 C :   -0.236960
   2 C :   -0.248103
   3 C :    0.033347
   4 O :   -0.176082
   5 O :   -0.066235
   6 C :   -0.202736
   7 H :    0.117116
   8 H :    0.120287
   9 H :    0.117111
  10 H :    0.118482
  11 H :    0.118477
  12 H :    0.142332
  13 H :    0.142200
  14 H :    0.120110
  15 H :    0.120129
  16 H :    0.120338

  Mayer bond orders larger than 0.100000
B(  0-C ,  1-C ) :   1.1499 B(  0-C ,  7-H ) :   0.9538 B(  0-C ,  8-H ) :   0.9535
B(  0-C ,  9-H ) :   0.9538 B(  1-C ,  2-C ) :   1.1298 B(  1-C , 10-H ) :   0.9266
B(  1-C , 11-H ) :   0.9264 B(  2-C ,  3-C ) :   1.0332 B(  2-C , 12-H ) :   0.8990
B(  2-C , 13-H ) :   0.8994 B(  3-C ,  4-O ) :   2.0516 B(  3-C ,  5-O ) :   1.2273
B(  5-O ,  6-C ) :   0.9376 B(  6-C , 14-H ) :   0.9530 B(  6-C , 15-H ) :   0.9588
B(  6-C , 16-H ) :   0.9511

Dispersion correction           -0.011869052
FINAL SINGLE POINT ENERGY      -346.238586756473

DIPOLE MOMENT
-------------

Method             : SCF
Type of density    : Electron Density
Multiplicity       :   1
Irrep              :   0
Energy             :  -346.3035307125035729 Eh
Relativity type    :
Basis              : AO
                                X                 Y                 Z
Electronic contribution:      6.166933353      -3.679791357      -0.354141575
Nuclear contribution   :     -6.237706515       4.434007751       0.439553601
                        -----------------------------------------
Total Dipole Moment    :     -0.070773162       0.754216394       0.085412025
                        -----------------------------------------
Magnitude (a.u.)       :      0.762329603
Magnitude (Debye)      :      1.937687861

Rotational constants in cm-1:             0.189647             0.046977             0.038735
Rotational constants in MHz :          5685.482880          1408.346868          1161.239277

                             ****ORCA TERMINATED NORMALLY****
TOTAL RUN TIME: 0 days 0 hours 0 minutes 9 seconds 186 msec
