                         Program Version 6.0.0  -   RELEASE  -
|  1> ! r2scan-3c def2/J RI DEFGRID2 scfconv6 printgap
|  2> %output
|  3>     printlevel normal
|  4> end
|  5> * xyz 0 1
|  6> C -2.8976801779 -0.5953870084 -0.5861079244
|  7> C -2.1165913703 -0.1606063532 0.6492343756
|  8> C -1.3284989 1.1332437527 0.4422815687
|  9> C -0.2035233099 1.0194751616 -0.5676115425
| 10> Br 1.194591968 -0.2464974756 0.0220281816
| 11> H -3.5456159664 0.2073274581 -0.9310778154
| 12> H -2.232193521 -0.8779267265 -1.3982326701
| 13> H -3.5155504662 -1.4575220059 -0.349398971
| 14> H -1.4315220781 -0.9576454156 0.9474741035
| 15> H -2.8146546809 -0.0032307125 1.4732692498
| 16> H -2.0030327244 1.9143998838 0.08250902
| 17> H -0.9172553258 1.4587333663 1.4004730981
| 18> H 0.3119526491 1.9686374186 -0.7009053995
| 19> H -0.5458740738 0.6445360784 -1.5291491967
| 20> *
| 21>
| 22>                          ****END OF INPUT****

CARTESIAN COORDINATES (ANGSTROEM)
---------------------------------
  C     -2.897680   -0.595387   -0.586108
  C     -2.116591   -0.160606    0.649234
  C     -1.328499    1.133244    0.442282
  C     -0.203523    1.019475   -0.567612
  Br     1.194592   -0.246497    0.022028
  H     -3.545616    0.207327   -0.931078
  H     -2.232194   -0.877927   -1.398233
  H     -3.515550   -1.457522   -0.349399
  H     -1.431522   -0.957645    0.947474
  H     -2.814655   -0.003231    1.473269
  H     -2.003033    1.914400    0.082509
  H     -0.917255    1.458733    1.400473
  H      0.311953    1.968637   -0.700905
  H     -0.545874    0.644536   -1.529149

 Total Charge           Charge          ....    0
 Multiplicity           Mult            ....    1
 Number of Electrons    NEL             ....   68
 Basis Dimension        Dim             ....  157

ORBITAL ENERGIES
----------------

  NO   OCC          E(Eh)            E(eV)
   0   2.0000    -482.210740    -13121.6213
   1   2.0000     -62.282713     -1694.7988
   2   2.0000     -56.063173     -1525.5565
   3   2.0000     -56.060475     -1525.4831
   4   2.0000     -56.060403     -1525.4811
   5   2.0000     -10.092213      -274.6231
   6   2.0000     -10.045062      -273.3400
   7   2.0000     -10.031815      -272.9796
   8   2.0000     -10.022669      -272.7307
   9   2.0000      -8.614875      -234.4227
  10   2.0000      -6.422179      -174.7564
  11   2.0000      -6.408787      -174.3920
  12   2.0000      -6.408677      -174.3890
  13   2.0000      -2.519759       -68.5661
  14   2.0000      -2.516470       -68.4766
  15   2.0000      -2.516373       -68.4740
  16   2.0000      -2.506423       -68.2032
  17   2.0000      -2.506403       -68.2027
  18   2.0000      -0.796081       -21.6625
  19   2.0000      -0.739333       -20.1183
  20   2.0000      -0.679303       -18.4848
  21   2.0000      -0.611395       -16.6369
  22   2.0000      -0.541617       -14.7381
  23   2.0000      -0.451238       -12.2788
  24   2.0000      -0.443207       -12.0603
  25   2.0000      -0.395716       -10.7680
  26   2.0000      -0.382119       -10.3980
  27   2.0000      -0.375953       -10.2302
  28   2.0000      -0.341751        -9.2995
  29   2.0000      -0.310614        -8.4522
  30   2.0000      -0.309850        -8.4315
  31   2.0000      -0.307833        -8.3766
  32   2.0000      -0.250538        -6.8175
  33   2.0000      -0.248355        -6.7581
  34   0.0000      -0.025830        -0.7029
  35   0.0000       0.081681         2.2227
  36   0.0000       0.111282         3.0281
  37   0.0000       0.119863         3.2616
  38   0.0000       0.122813         3.3419

MULLIKEN ATOMIC CHARGES
-----------------------
   0 C :   -0.476757
   1 C :   -0.239417
   2 C :   -0.260688
   3 C :   -0.219657
   4 Br:   -0.185760
   5 H :    0.141879
   6 H :    0.147520
   7 H :    0.149958
   8 H :    0.157214
   9 H :    0.144157
  10 H :    0.142312
  11 H :    0.162616
  12 H :    0.171954
  13 H :    0.164668
Sum of atomic charges:   -0.0000000

LOEWDIN ATOMIC CHARGES
----------------------
   0 C :   -0.425788
   1 C :   -0.325199
   2 C :   -0.333701
   3 C :   -0.382847
   4 Br:    0.055617
   5 H :    0.149265
   6 H :    0.148994
   7 H :    0.154292
   8 H :    0.161044
   9 H :    0.154130
  10 H :    0.163446
  11 H :    0.163717
  12 H :    0.158847
  13 H :    0.158183

  Mayer bond orders larger than 0.100000
B(  0-C ,  1-C ) :   0.8997 B(  0-C ,  5-H ) :   0.9808 B(  0-C ,  6-H ) :   0.9811
B(  0-C ,  7-H ) :   0.9675 B(  1-C ,  2-C ) :   0.9124 B(  1-C ,  8-H ) :   0.9661
B(  1-C ,  9-H ) :   0.9654 B(  2-C ,  3-C ) :   0.9197 B(  2-C , 10-H ) :   0.9581
B(  2-C , 11-H ) :   0.9629 B(  3-C ,  4-Br) :   0.9671 B(  3-C , 12-H ) :   0.9522
B(  3-C , 13-H ) :   0.9680

Dispersion correction           -0.003498418
FINAL SINGLE POINT ENERGY     -2731.931584228147

DIPOLE MOMENT
-------------

Method             : SCF
Type of density    : Electron Density
Multiplicity       :   1
Irrep              :   0
Energy             : -2731.9349703587122349 Eh
Relativity type    :
Basis              : AO
                                X                 Y                 Z
Electronic contribution:     26.018987758      -4.504682661       1.013972799
Nuclear contribution   :    -26.753513218       5.006926102      -1.147436201
                        -----------------------------------------
Total Dipole Moment    :     -0.734525460       0.502243441      -0.133463402
                        -----------------------------------------
Magnitude (a.u.)       :      0.899771419
Magnitude (Debye)      :      2.287037193

Rotational constants in cm-1:             0.219592             0.046443             0.043509
Rotational constants in MHz :          6583.194575          1392.324380          1304.378893

                             ****ORCA TERMINATED NORMALLY****
TOTAL RUN TIME: 0 days 0 hours 0 minutes 15 seconds 19 msec
