                         Program Version 6.0.0  -   RELEASE  -
|  1> ! r2scan-3c def2/J RI DEFGRID2 scfconv6 printgap
|  2> %output
|  3>     printlevel normal
|  4> end
|  5> %cpcm
|  6>     smd true
|  7>     smdsolvent "water"
|  8> end
|  9> * xyz 0 1
| 10> C -2.8976801779 -0.5953870084 -0.5861079244
| 11> C -2.1165913703 -0.1606063532 0.6492343756
| 12> C -1.3284989 1.1332437527 0.4422815687
| 13> C -0.2035233099 1.0194751616 -0.5676115425
| 14> Br 1.194591968 -0.2464974756 0.0220281816
| 15> H -3.5456159664 0.2073274581 -0.9310778154
| 16> H -2.232193521 -0.8779267265 -1.3982326701
| 17> H -3.5155504662 -1.4575220059 -0.349398971
| 18> H -1.4315220781 -0.9576454156 0.9474741035
| 19> H -2.8146546809 -0.0032307125 1.4732692498
| 20> H -2.0030327244 1.9143998838 0.08250902
| 21> H -0.9172553258 1.4587333663 1.4004730981
| 22> H 0.3119526491 1.9686374186 -0.7009053995
| 23> H -0.5458740738 0.6445360784 -1.5291491967
| 24> *
| 25>
| 26>                          ****END OF INPUT****

CARTESIAN COORDINATES (ANGSTROEM)
---------------------------------
  C     -2.897680   -0.595387   -0.586108
  C     -2.116591   -0.160606    0.649234
  C     -1.328499    1.133244    0.442282
  C     -0.203523    1.019475   -0.567612
  Br     1.194592   -0.246497    0.022028
  H     -3.545616    0.207327   -0.931078
  H     -2.232194   -0.877927   -1.398233
  H     -3.515550   -1.457522   -0.349399
  H     -1.431522   -0.957645    0.947474
  H     -2.814655   -0.003231    1.473269
  H     -2.003033    1.914400    0.082509
  H     -0.917255    1.458733    1.400473
  H      0.311953    1.968637   -0.700905
  H     -0.545874    0.644536   -1.529149

 Total Charge           Charge          ....    0
 Multiplicity           Mult            ....    1
 Number of Electrons    NEL             ....   68
 Basis Dimension        Dim             ....  157

ORBITAL ENERGIES
----------------

  NO   OCC          E(Eh)            E(eV)
   0   2.0000    -482.208528    -13121.5611
   1   2.0000     -62.280483     -1694.7381
   2   2.0000     -56.060870     -1525.4938
   3   2.0000     -56.058308     -1525.4241
   4   2.0000     -56.058235     -1525.4221
   5   2.0000     -10.078019      -274.2368
   6   2.0000     -10.029185      -272.9080
   7   2.0000     -10.019307      -272.6392
   8   2.0000     -10.008944      -272.3572
   9   2.0000      -8.612411      -234.3556
  10   2.0000      -6.419242      -174.6764
  11   2.0000      -6.406572      -174.3317
  12   2.0000      -6.406453      -174.3284
  13   2.0000      -2.516966       -68.4901
  14   2.0000      -2.513846       -68.4052
  15   2.0000      -2.513745       -68.4025
  16   2.0000      -2.504317       -68.1459
  17   2.0000      -2.504297       -68.1454
  18   2.0000      -0.784468       -21.3465
  19   2.0000      -0.730023       -19.8649
  20   2.0000      -0.668088       -18.1796
  21   2.0000      -0.598529       -16.2868
  22   2.0000      -0.528163       -14.3721
  23   2.0000      -0.436793       -11.8858
  24   2.0000      -0.429454       -11.6860
  25   2.0000      -0.383262       -10.4291
  26   2.0000      -0.368219       -10.0197
  27   2.0000      -0.362172        -9.8552
  28   2.0000      -0.331457        -9.0194
  29   2.0000      -0.297031        -8.0826
  30   2.0000      -0.296444        -8.0667
  31   2.0000      -0.295224        -8.0334
  32   2.0000      -0.248063        -6.7501
  33   2.0000      -0.245473        -6.6797
  34   0.0000      -0.018383        -0.5002
  35   0.0000       0.096657         2.6302
  36   0.0000       0.125284         3.4092
  37   0.0000       0.132697         3.6109
  38   0.0000       0.135579         3.6893

MULLIKEN ATOMIC CHARGES
-----------------------
   0 C :   -0.510929
   1 C :   -0.252776
   2 C :   -0.265835
   3 C :   -0.228869
   4 Br:   -0.233305
   5 H :    0.155801
   6 H :    0.157843
   7 H :    0.157671
   8 H :    0.148674
   9 H :    0.155717
  10 H :    0.166135
  11 H :    0.168576
  12 H :    0.194052
  13 H :    0.187244
Sum of atomic charges:   -0.0000000

LOEWDIN ATOMIC CHARGES
----------------------
   0 C :   -0.433240
   1 C :   -0.327796
   2 C :   -0.332117
   3 C :   -0.375320
   4 Br:    0.024306
   5 H :    0.154048
   6 H :    0.151557
   7 H :    0.154691
   8 H :    0.156095
   9 H :    0.157269
  10 H :    0.173455
  11 H :    0.164528
  12 H :    0.166532
  13 H :    0.165992

  Mayer bond orders larger than 0.100000
B(  0-C ,  1-C ) :   0.8984 B(  0-C ,  5-H ) :   0.9771 B(  0-C ,  6-H ) :   0.9778
B(  0-C ,  7-H ) :   0.9667 B(  1-C ,  2-C ) :   0.9038 B(  1-C ,  8-H ) :   0.9717
B(  1-C ,  9-H ) :   0.9657 B(  2-C ,  3-C ) :   0.9148 B(  2-C , 10-H ) :   0.9527
B(  2-C , 11-H ) :   0.9644 B(  3-C ,  4-Br) :   0.9280 B(  3-C , 12-H ) :   0.9469
B(  3-C , 13-H ) :   0.9622

Dispersion correction           -0.003498418
FINAL SINGLE POINT ENERGY     -2731.933385122649

DIPOLE MOMENT
-------------

Method             : SCF
Type of density    : Electron Density
Multiplicity       :   1
Irrep              :   0
Energy             : -2731.9367712532143742 Eh
Relativity type    :
Basis              : AO
                                X                 Y                 Z
Electronic contribution:     25.820619942      -4.283571411       0.922850904
Nuclear contribution   :    -26.753513218       5.006926102      -1.147436201
                        -----------------------------------------
Total Dipole Moment    :     -0.932893276       0.723354691      -0.224585298
                        -----------------------------------------
Magnitude (a.u.)       :      1.201653206
Magnitude (Debye)      :      3.054359717

Rotational constants in cm-1:             0.219592             0.046443             0.043509
Rotational constants in MHz :          6583.194575          1392.324380          1304.378893

                             ****ORCA TERMINATED NORMALLY****
TOTAL RUN TIME: 0 days 0 hours 0 minutes 19 seconds 362 msec
