                         Program Version 6.0.0  -   RELEASE  -
|  1> ! r2scan-3c def2/J RI DEFGRID2 scfconv6 printgap
|  2> %output
|  3>     printlevel normal
|  4> end
|  5> * xyz 0 1
|  6> C -2.0716174702 -0.5500928644 0.1333513587
|  7> O -1.301473435 0.6250574543 -0.0338920714
|  8> C -0.003387715 0.4168505754 -0.5479976759
|  9> C 0.9647812226 -0.2063297415 0.4720634026
| 10> O 2.2817676726 -0.2715300045 -0.0200372021
| 11> H -2.0946623815 -1.1333519986 -0.7925998956
| 12> H -3.0753324921 -0.2128849477 0.3805654012
| 13> H -1.6856631666 -1.1730571064 0.9445482085
| 14> H -0.0404360098 -0.2111304193 -1.4491698788
| 15> H 0.3496066218 1.4140189381 -0.8252355227
| 16> H 0.6839451033 -1.2406664165 0.6824259192
| 17> H 0.9180026229 0.3677605524 1.4068238073
| 18> H 2.6135320058 0.624022125 -0.1755078235
| 19> *
| 20>
| 21>                          ****END OF INPUT****

CARTESIAN COORDINATES (ANGSTROEM)
---------------------------------
  C     -2.071617   -0.550093    0.133351
  O     -1.301473    0.625057   -0.033892
  C     -0.003388    0.416851   -0.547998
  C      0.964781   -0.206330    0.472063
  O      2.281768   -0.271530   -0.020037
  H     -2.094662   -1.133352   -0.792600
  H     -3.075332   -0.212885    0.380565
  H     -1.685663   -1.173057    0.944548
  H     -0.040436   -0.211130   -1.449170
  H      0.349607    1.414019   -0.825236
  H      0.683945   -1.240666    0.682426
  H      0.918003    0.367761    1.406824
  H      2.613532    0.624022   -0.175508

 Total Charge           Charge          ....    0
 Multiplicity           Mult            ....    1
 Number of Electrons    NEL             ....   42
 Basis Dimension        Dim             ....  145

ORBITAL ENERGIES
----------------

  NO   OCC          E(Eh)            E(eV)
   0   2.0000     -18.956195      -515.8243
   1   2.0000     -18.956046      -515.8202
   2   2.0000     -10.078309      -274.2447
   3   2.0000     -10.077918      -274.2341
   4   2.0000     -10.074067      -274.1293
   5   2.0000      -1.002825       -27.2883
   6   2.0000      -0.990374       -26.9495
   7   2.0000      -0.715325       -19.4650
   8   2.0000      -0.651247       -17.7213
   9   2.0000      -0.578253       -15.7351
  10   2.0000      -0.486189       -13.2299
  11   2.0000      -0.457556       -12.4507
  12   2.0000      -0.453376       -12.3370
  13   2.0000      -0.419710       -11.4209
  14   2.0000      -0.395119       -10.7517
  15   2.0000      -0.371095       -10.0980
  16   2.0000      -0.342687        -9.3250
  17   2.0000      -0.320726        -8.7274
  18   2.0000      -0.280316        -7.6278
  19   2.0000      -0.255099        -6.9416
  20   2.0000      -0.218270        -5.9394
  21   0.0000       0.042845         1.1659
  22   0.0000       0.077382         2.1057
  23   0.0000       0.102799         2.7973
  24   0.0000       0.121373         3.3027
  25   0.0000       0.134845         3.6693

MULLIKEN ATOMIC CHARGES
-----------------------
   0 C :   -0.284884
   1 O :   -0.243169
   2 C :   -0.158343
   3 C :   -0.158972
   4 O :   -0.415827
   5 H :    0.133490
   6 H :    0.149516
   7 H :    0.133488
   8 H :    0.137475
   9 H :    0.133726
  10 H :    0.135721
  11 H :    0.140742
  12 H :    0.297036
Sum of atomic charges:    0.0000000

LOEWDIN ATOMIC CHARGES
----------------------
   0 C :   -0.072867
   1 O :   -0.784552
   2 C :    0.015746
   3 C :    0.017369
   4 O :   -0.610433
   5 H :    0.157238
   6 H :    0.176106
   7 H :    0.153555
   8 H :    0.166054
   9 H :    0.177957
  10 H :    0.176033
  11 H :    0.160758
  12 H :    0.267037

  Mayer bond orders larger than 0.100000
B(  0-C ,  1-O ) :   0.8907 B(  0-C ,  5-H ) :   0.9672 B(  0-C ,  6-H ) :   0.9742
B(  0-C ,  7-H ) :   0.9618 B(  1-O ,  2-C ) :   0.9082 B(  2-C ,  3-C ) :   0.8950
B(  2-C ,  8-H ) :   0.9710 B(  2-C ,  9-H ) :   0.9674 B(  3-C ,  4-O ) :   0.9656
B(  3-C , 10-H ) :   0.9665 B(  3-C , 11-H ) :   0.9773 B(  4-O , 12-H ) :   0.8949

Dispersion correction           -0.002452390
FINAL SINGLE POINT ENERGY      -269.488474729907

DIPOLE MOMENT
-------------

Method             : SCF
Type of density    : Electron Density
Multiplicity       :   1
Irrep              :   0
Energy             :  -269.4964535509059260 Eh
Relativity type    :
Basis              : AO
                                X                 Y                 Z
Electronic contribution:      2.020139924       1.520522780      -0.175423887
Nuclear contribution   :     -2.172316568      -1.463256819       0.160423571
                        -----------------------------------------
Total Dipole Moment    :     -0.152176644       0.057265961      -0.015000316
                        -----------------------------------------
Magnitude (a.u.)       :      0.163285427
Magnitude (Debye)      :      0.415038573

Rotational constants in cm-1:             0.497811             0.081072             0.075657
Rotational constants in MHz :         14923.984518          2430.490860          2268.145912

                             ****ORCA TERMINATED NORMALLY****
TOTAL RUN TIME: 0 days 0 hours 0 minutes 15 seconds 425 msec
