                         Program Version 6.0.0  -   RELEASE  -
|  1> ! r2scan-3c def2/J RI DEFGRID2 scfconv6 printgap
|  2> %output
|  3>     printlevel normal
|  4> end
|  5> %cpcm
|  6>     smd true
|  7>     smdsolvent "water"
|  8> end
|  9> * xyz 0 1
| 10> C -2.0716174702 -0.5500928644 0.1333513587
| 11> O -1.301473435 0.6250574543 -0.0338920714
| 12> C -0.003387715 0.4168505754 -0.5479976759
| 13> C 0.9647812226 -0.2063297415 0.4720634026
| 14> O 2.2817676726 -0.2715300045 -0.0200372021
| 15> H -2.0946623815 -1.1333519986 -0.7925998956
| 16> H -3.0753324921 -0.2128849477 0.3805654012
| 17> H -1.6856631666 -1.1730571064 0.9445482085
| 18> H -0.0404360098 -0.2111304193 -1.4491698788
| 19> H 0.3496066218 1.4140189381 -0.8252355227
| 20> H 0.6839451033 -1.2406664165 0.6824259192
| 21> H 0.9180026229 0.3677605524 1.4068238073
| 22> H 2.6135320058 0.624022125 -0.1755078235
| 23> *
| 24>
| 25>                          ****END OF INPUT****

CARTESIAN COORDINATES (ANGSTROEM)
---------------------------------
  C     -2.071617   -0.550093    0.133351
  O     -1.301473    0.625057   -0.033892
  C     -0.003388    0.416851   -0.547998
  C      0.964781   -0.206330    0.472063
  O      2.281768   -0.271530   -0.020037
  H     -2.094662   -1.133352   -0.792600
  H     -3.075332   -0.212885    0.380565
  H     -1.685663   -1.173057    0.944548
  H     -0.040436   -0.211130   -1.449170
  H      0.349607    1.414019   -0.825236
  H      0.683945   -1.240666    0.682426
  H      0.918003    0.367761    1.406824
  H      2.613532    0.624022   -0.175508

 Total Charge           Charge          ....    0
 Multiplicity           Mult            ....    1
 Number of Electrons    NEL             ....   42
 Basis Dimension        Dim             ....  145

ORBITAL ENERGIES
----------------

  NO   OCC          E(Eh)            E(eV)
   0   2.0000     -18.959237      -515.9071
   1   2.0000     -18.955982      -515.8185
   2   2.0000     -10.070427      -274.0303
   3   2.0000     -10.070263      -274.0258
   4   2.0000     -10.063176      -273.8329
   5   2.0000      -1.003402       -27.3040
   6   2.0000      -0.989619       -26.9289
   7   2.0000      -0.709020       -19.2934
   8   2.0000      -0.644106       -17.5270
   9   2.0000      -0.570766       -15.5313
  10   2.0000      -0.480789       -13.0829
  11   2.0000      -0.452554       -12.3146
  12   2.0000      -0.448417       -12.2020
  13   2.0000      -0.413868       -11.2619
  14   2.0000      -0.390488       -10.6257
  15   2.0000      -0.364127        -9.9084
  16   2.0000      -0.335862        -9.1393
  17   2.0000      -0.320393        -8.7183
  18   2.0000      -0.279053        -7.5934
  19   2.0000      -0.257292        -7.0013
  20   2.0000      -0.219378        -5.9696
  21   0.0000       0.052265         1.4222
  22   0.0000       0.091928         2.5015
  23   0.0000       0.117324         3.1925
  24   0.0000       0.132849         3.6150
  25   0.0000       0.145168         3.9502

MULLIKEN ATOMIC CHARGES
-----------------------
   0 C :   -0.303087
   1 O :   -0.314950
   2 C :   -0.165993
   3 C :   -0.155000
   4 O :   -0.499268
   5 H :    0.153789
   6 H :    0.162577
   7 H :    0.154619
   8 H :    0.150042
   9 H :    0.160378
  10 H :    0.156793
  11 H :    0.146859
  12 H :    0.353241
Sum of atomic charges:    0.0000000

LOEWDIN ATOMIC CHARGES
----------------------
   0 C :   -0.073477
   1 O :   -0.822815
   2 C :    0.016581
   3 C :    0.017816
   4 O :   -0.642373
   5 H :    0.166565
   6 H :    0.180129
   7 H :    0.163245
   8 H :    0.172384
   9 H :    0.187068
  10 H :    0.182226
  11 H :    0.166059
  12 H :    0.286594

  Mayer bond orders larger than 0.100000
B(  0-C ,  1-O ) :   0.8817 B(  0-C ,  5-H ) :   0.9624 B(  0-C ,  6-H ) :   0.9678
B(  0-C ,  7-H ) :   0.9560 B(  1-O ,  2-C ) :   0.9052 B(  2-C ,  3-C ) :   0.9022
B(  2-C ,  8-H ) :   0.9621 B(  2-C ,  9-H ) :   0.9623 B(  3-C ,  4-O ) :   0.9586
B(  3-C , 10-H ) :   0.9630 B(  3-C , 11-H ) :   0.9676 B(  4-O , 12-H ) :   0.8664

Dispersion correction           -0.002452390
FINAL SINGLE POINT ENERGY      -269.499397409383

DIPOLE MOMENT
-------------

Method             : SCF
Type of density    : Electron Density
Multiplicity       :   1
Irrep              :   0
Energy             :  -269.5073762303822491 Eh
Relativity type    :
Basis              : AO
                                X                 Y                 Z
Electronic contribution:      2.009008993       1.512633031      -0.194611981
Nuclear contribution   :     -2.172316568      -1.463256819       0.160423571
                        -----------------------------------------
Total Dipole Moment    :     -0.163307575       0.049376212      -0.034188410
                        -----------------------------------------
Magnitude (a.u.)       :      0.174000637
Magnitude (Debye)      :      0.442274472

Rotational constants in cm-1:             0.497811             0.081072             0.075657
Rotational constants in MHz :         14923.984518          2430.490860          2268.145912

                             ****ORCA TERMINATED NORMALLY****
TOTAL RUN TIME: 0 days 0 hours 0 minutes 19 seconds 757 msec
