                         Program Version 6.0.0  -   RELEASE  -
|  1> ! pbe def2-sv(p) def2/J RI DEFGRID1 loosescf d4 GCP(DFT/SV(P)) printgap
|  2> %output
|  3>     printlevel normal
|  4> end
|  5> * xyz 0 1
|  6> C 1.9520608942 -0.75727952 -0.7971138011
|  7> C 1.19782867 -0.1147651486 0.3631550321
|  8> H 0.9008312782 -0.8998191152 1.076938555
|  9> C -0.059055165 0.6447389009 -0.1072546065
| 10> C -1.3818156268 -0.0724235983 0.1870522694
| 11> C -2.5522314841 0.8540780888 -0.140972012
| 12> C -1.5122016809 -1.3735280185 -0.6009122184
| 13> O 2.1219375333 0.7533854648 1.0080527933
| 14> H 2.8080514925 -1.3094812653 -0.4177834492
| 15> H 1.3041622625 -1.430339637 -1.3478522815
| 16> H 2.3153233482 0.0217399923 -1.4625428149
| 17> H -0.0747728183 1.6163166829 0.3926007875
| 18> H 0.0147856641 0.8388231106 -1.1785442436
| 19> H -1.4188540285 -0.3102051244 1.2567650018
| 20> H -2.5418838116 1.1145303095 -1.1969285044
| 21> H -2.4940384959 1.7717415977 0.4396192221
| 22> H -3.497823966 0.3663818726 0.0828978935
| 23> H -0.734591221 -2.079154807 -0.3214437339
| 24> H -2.4766015372 -1.8360865378 -0.403703302
| 25> H -1.4382909171 -1.1774818764 -1.6682614626
| 26> H 1.7192121238 1.1158397558 1.8078282465
| 27> *
| 28>
| 29>                          ****END OF INPUT****

CARTESIAN COORDINATES (ANGSTROEM)
---------------------------------
  C      1.952061   -0.757280   -0.797114
  C      1.197829   -0.114765    0.363155
  H      0.900831   -0.899819    1.076939
  C     -0.059055    0.644739   -0.107255
  C     -1.381816   -0.072424    0.187052
  C     -2.552231    0.854078   -0.140972
  C     -1.512202   -1.373528   -0.600912
  O      2.121938    0.753385    1.008053
  H      2.808051   -1.309481   -0.417783
  H      1.304162   -1.430340   -1.347852
  H      2.315323    0.021740   -1.462543
  H     -0.074773    1.616317    0.392601
  H      0.014786    0.838823   -1.178544
  H     -1.418854   -0.310205    1.256765
  H     -2.541884    1.114530   -1.196929
  H     -2.494038    1.771742    0.439619
  H     -3.497824    0.366382    0.082898
  H     -0.734591   -2.079155   -0.321444
  H     -2.476602   -1.836087   -0.403703
  H     -1.438291   -1.177482   -1.668261
  H      1.719212    1.115840    1.807828

 Total Charge           Charge          ....    0
 Multiplicity           Mult            ....    1
 Number of Electrons    NEL             ....   58
 Basis Dimension        Dim             ....  126

ORBITAL ENERGIES
----------------

  NO   OCC          E(Eh)            E(eV)
   0   2.0000     -18.733417      -509.7622
   1   2.0000      -9.933887      -270.3148
   2   2.0000      -9.897304      -269.3193
   3   2.0000      -9.878418      -268.8054
   4   2.0000      -9.874774      -268.7063
   5   2.0000      -9.873364      -268.6679
   6   2.0000      -9.868757      -268.5425
   7   2.0000      -0.911231       -24.7958
   8   2.0000      -0.733917       -19.9709
   9   2.0000      -0.674346       -18.3499
  10   2.0000      -0.614221       -16.7138
  11   2.0000      -0.607259       -16.5244
  12   2.0000      -0.524707       -14.2780
  13   2.0000      -0.501736       -13.6529
  14   2.0000      -0.459184       -12.4950
  15   2.0000      -0.419990       -11.4285
  16   2.0000      -0.405073       -11.0226
  17   2.0000      -0.383850       -10.4451
  18   2.0000      -0.360100        -9.7988
  19   2.0000      -0.352611        -9.5950
  20   2.0000      -0.340321        -9.2606
  21   2.0000      -0.337012        -9.1706
  22   2.0000      -0.319659        -8.6984
  23   2.0000      -0.307829        -8.3765
  24   2.0000      -0.303916        -8.2700
  25   2.0000      -0.286138        -7.7862
  26   2.0000      -0.281397        -7.6572
  27   2.0000      -0.258647        -7.0381
  28   2.0000      -0.206916        -5.6305
  29   0.0000       0.025585         0.6962
  30   0.0000       0.046853         1.2749
  31   0.0000       0.061022         1.6605
  32   0.0000       0.064583         1.7574
  33   0.0000       0.083551         2.2735

MULLIKEN ATOMIC CHARGES
-----------------------
   0 C :   -0.255994
   1 C :    0.028281
   2 H :    0.063082
   3 C :   -0.122101
   4 C :   -0.207320
   5 C :   -0.233102
   6 C :   -0.251640
   7 O :   -0.431561
   8 H :    0.104982
   9 H :    0.102562
  10 H :    0.104842
  11 H :    0.066571
  12 H :    0.075788
  13 H :    0.069906
  14 H :    0.093794
  15 H :    0.096579
  16 H :    0.097578
  17 H :    0.112066
  18 H :    0.098688
  19 H :    0.095526
  20 H :    0.291473
Sum of atomic charges:    0.0000000

LOEWDIN ATOMIC CHARGES
----------------------
   0 C :   -0.340893
   1 C :   -0.053443
   2 H :    0.093268
   3 C :   -0.230444
   4 C :   -0.157919
   5 C :   -0.329078
   6 C :   -0.332309
   7 O :   -0.337245
   8 H :    0.122528
   9 H :    0.120710
  10 H :    0.123381
  11 H :    0.113349
  12 H :    0.117422
  13 H :    0.110660
  14 H :    0.117243
  15 H :    0.115716
  16 H :    0.116526
  17 H :    0.116291
  18 H :    0.118390
  19 H :    0.117332
  20 H :    0.278516

  Mayer bond orders larger than 0.100000
B(  0-C ,  1-C ) :   1.1230 B(  0-C ,  8-H ) :   0.9449 B(  0-C ,  9-H ) :   0.9408
B(  0-C , 10-H ) :   0.9396 B(  1-C ,  2-H ) :   0.9183 B(  1-C ,  3-C ) :   1.0244
B(  1-C ,  7-O ) :   1.0638 B(  3-C ,  4-C ) :   1.0708 B(  3-C , 11-H ) :   0.9183
B(  3-C , 12-H ) :   0.9102 B(  4-C ,  5-C ) :   1.1083 B(  4-C ,  6-C ) :   1.1079
B(  4-C , 13-H ) :   0.9027 B(  5-C , 14-H ) :   0.9499 B(  5-C , 15-H ) :   0.9500
B(  5-C , 16-H ) :   0.9504 B(  6-C , 17-H ) :   0.9404 B(  6-C , 18-H ) :   0.9481
B(  6-C , 19-H ) :   0.9469 B(  7-O , 20-H ) :   0.8536

Dispersion correction           -0.016282694
FINAL SINGLE POINT ENERGY      -311.514315526744

DIPOLE MOMENT
-------------

Method             : SCF
Type of density    : Electron Density
Multiplicity       :   1
Irrep              :   0
Energy             :  -311.5937303712709650 Eh
Relativity type    :
Basis              : AO
                                X                 Y                 Z
Electronic contribution:      4.684510270       1.975771248       3.005115395
Nuclear contribution   :     -5.235819246      -2.050147471      -2.743625272
                        -----------------------------------------
Total Dipole Moment    :     -0.551308976      -0.074376223       0.261490123
                        -----------------------------------------
Magnitude (a.u.)       :      0.614695448
Magnitude (Debye)      :      1.562431660

Rotational constants in cm-1:             0.142406             0.048659             0.040359
Rotational constants in MHz :          4269.220260          1458.773628          1209.918818

                             ****ORCA TERMINATED NORMALLY****
TOTAL RUN TIME: 0 days 0 hours 0 minutes 9 seconds 368 msec
