                         Program Version 6.0.0  -   RELEASE  -
|  1> ! r2scan-3c def2/J RI DEFGRID2 scfconv6 printgap
|  2> %output
|  3>     printlevel normal
|  4> end
|  5> * xyz 0 1
|  6> C -4.2755855715 0.8004172341 0.0008799991
|  7> O -3.4693039586 -0.3669683247 -0.0011327545
|  8> C -2.1252431179 -0.2393421829 -0.0001682129
|  9> C -1.4000227664 -1.4380107819 -0.0039023381
| 10> C -0.0270606739 -1.4180606622 -0.003666507
| 11> C 0.6633896075 -0.2021219144 0.0002822774
| 12> C -0.0588590617 0.9895308964 0.004364997
| 13> C -1.438744166 0.9758198216 0.0039841768
| 14> C 2.1319667846 -0.2200438077 -0.0008593538
| 15> O 2.8104031179 -1.2340895637 -0.003741208
| 16> O 2.675512269 1.0010139629 0.0024127352
| 17> C 4.1007486765 1.0747966214 0.0016369183
| 18> H -4.0989602237 1.3978016208 0.8979371581
| 19> H -5.3005234508 0.4372892371 -0.0021136606
| 20> H -4.095592158 1.4032857092 -0.8918121715
| 21> H -1.947772033 -2.3663270857 -0.0072117505
| 22> H 0.5430959621 -2.3343755885 -0.0066204648
| 23> H 0.4713320285 1.9283236325 0.0075574798
| 24> H -1.972290871 1.9117866609 0.0068131706
| 25> H 4.5000705581 0.5872815421 -0.8889702043
| 26> H 4.5017347323 0.5771467609 0.885790662
| 27> H 4.338159442 2.133913368 0.0072879852
| 28> *
| 29>
| 30>                          ****END OF INPUT****

CARTESIAN COORDINATES (ANGSTROEM)
---------------------------------
  C     -4.275586    0.800417    0.000880
  O     -3.469304   -0.366968   -0.001133
  C     -2.125243   -0.239342   -0.000168
  C     -1.400023   -1.438011   -0.003902
  C     -0.027061   -1.418061   -0.003667
  C      0.663390   -0.202122    0.000282
  C     -0.058859    0.989531    0.004365
  C     -1.438744    0.975820    0.003984
  C      2.131967   -0.220044   -0.000859
  O      2.810403   -1.234090   -0.003741
  O      2.675512    1.001014    0.002413
  C      4.100749    1.074797    0.001637
  H     -4.098960    1.397802    0.897937
  H     -5.300523    0.437289   -0.002114
  H     -4.095592    1.403286   -0.891812
  H     -1.947772   -2.366327   -0.007212
  H      0.543096   -2.334376   -0.006620
  H      0.471332    1.928324    0.007557
  H     -1.972291    1.911787    0.006813
  H      4.500071    0.587282   -0.888970
  H      4.501735    0.577147    0.885791
  H      4.338159    2.133913    0.007288

 Total Charge           Charge          ....    0
 Multiplicity           Mult            ....    1
 Number of Electrons    NEL             ....   88
 Basis Dimension        Dim             ....  293

ORBITAL ENERGIES
----------------

  NO   OCC          E(Eh)            E(eV)
   0   2.0000     -19.000047      -517.0176
   1   2.0000     -18.994616      -516.8698
   2   2.0000     -18.922871      -514.9175
   3   2.0000     -10.149272      -276.1757
   4   2.0000     -10.109519      -275.0940
   5   2.0000     -10.097556      -274.7685
   6   2.0000     -10.083658      -274.3903
   7   2.0000     -10.048235      -273.4264
   8   2.0000     -10.045236      -273.3448
   9   2.0000     -10.044108      -273.3141
  10   2.0000     -10.043530      -273.2983
  11   2.0000     -10.038697      -273.1668
  12   2.0000      -1.067368       -29.0446
  13   2.0000      -1.049665       -28.5628
  14   2.0000      -0.968903       -26.3652
  15   2.0000      -0.835325       -22.7304
  16   2.0000      -0.750311       -20.4170
  17   2.0000      -0.729317       -19.8457
  18   2.0000      -0.704779       -19.1780
  19   2.0000      -0.670462       -18.2442
  20   2.0000      -0.595449       -16.2030
  21   2.0000      -0.583900       -15.8887
  22   2.0000      -0.536265       -14.5925
  23   2.0000      -0.518108       -14.0984
  24   2.0000      -0.489783       -13.3277
  25   2.0000      -0.465785       -12.6747
  26   2.0000      -0.450903       -12.2697
  27   2.0000      -0.447543       -12.1783
  28   2.0000      -0.434007       -11.8099
  29   2.0000      -0.417568       -11.3626
  30   2.0000      -0.408703       -11.1214
  31   2.0000      -0.399001       -10.8574
  32   2.0000      -0.392933       -10.6922
  33   2.0000      -0.376695       -10.2504
  34   2.0000      -0.358150        -9.7458
  35   2.0000      -0.354505        -9.6466
  36   2.0000      -0.338450        -9.2097
  37   2.0000      -0.320775        -8.7287
  38   2.0000      -0.302793        -8.2394
  39   2.0000      -0.302729        -8.2377
  40   2.0000      -0.270295        -7.3551
  41   2.0000      -0.247429        -6.7329
  42   2.0000      -0.234898        -6.3919
  43   2.0000      -0.214505        -5.8370
  44   0.0000      -0.063981        -1.7410
  45   0.0000      -0.039155        -1.0655
  46   0.0000       0.036504         0.9933
  47   0.0000       0.055877         1.5205
  48   0.0000       0.067595         1.8394

MULLIKEN ATOMIC CHARGES
-----------------------
   0 C :   -0.328243
   1 O :   -0.176216
   2 C :    0.369617
   3 C :   -0.307054
   4 C :   -0.228215
   5 C :    0.111583
   6 C :   -0.213552
   7 C :   -0.264378
   8 C :    0.329764
   9 O :   -0.429648
  10 O :   -0.170210
  11 C :   -0.293492
  12 H :    0.156215
  13 H :    0.158315
  14 H :    0.156179
  15 H :    0.157720
  16 H :    0.181838
  17 H :    0.169770
  18 H :    0.147936
  19 H :    0.161752
  20 H :    0.161949
  21 H :    0.148370
Sum of atomic charges:    0.0000000

LOEWDIN ATOMIC CHARGES
----------------------
   0 C :   -0.051558
   1 O :   -0.670713
   2 C :    0.205107
   3 C :   -0.127091
   4 C :   -0.096131
   5 C :   -0.053825
   6 C :   -0.100171
   7 C :   -0.171809
   8 C :    0.380132
   9 O :   -0.439289
  10 O :   -0.616615
  11 C :   -0.042111
  12 H :    0.167137
  13 H :    0.182150
  14 H :    0.167156
  15 H :    0.182931
  16 H :    0.191221
  17 H :    0.188477
  18 H :    0.175925
  19 H :    0.177014
  20 H :    0.177109
  21 H :    0.174954

  Mayer bond orders larger than 0.100000
B(  0-C ,  1-O ) :   0.8505 B(  0-C , 12-H ) :   0.9625 B(  0-C , 13-H ) :   0.9673
B(  0-C , 14-H ) :   0.9625 B(  1-O ,  2-C ) :   1.0725 B(  2-C ,  3-C ) :   1.3602
B(  2-C ,  7-C ) :   1.3328 B(  3-C ,  4-C ) :   1.3335 B(  3-C , 15-H ) :   0.9595
B(  4-C ,  5-C ) :   1.4322 B(  4-C , 16-H ) :   0.9445 B(  5-C ,  6-C ) :   1.3896
B(  5-C ,  8-C ) :   1.0371 B(  5-C , 10-O ) :  -0.1251 B(  6-C ,  7-C ) :   1.3436
B(  6-C , 17-H ) :   0.9607 B(  7-C , 18-H ) :   0.9196 B(  8-C ,  9-O ) :   1.8491
B(  8-C , 10-O ) :   1.1562 B( 10-O , 11-C ) :   0.8414 B( 11-C , 19-H ) :   0.9623
B( 11-C , 20-H ) :   0.9624 B( 11-C , 21-H ) :   0.9716

Dispersion correction           -0.007436531
FINAL SINGLE POINT ENERGY      -574.531441172821

DIPOLE MOMENT
-------------

Method             : SCF
Type of density    : Electron Density
Multiplicity       :   1
Irrep              :   0
Energy             :  -574.5368076359879979 Eh
Relativity type    :
Basis              : AO
                                X                 Y                 Z
Electronic contribution:      1.943220336      -4.112244364      -0.005730114
Nuclear contribution   :     -2.841632342       5.316287375       0.008086418
                        -----------------------------------------
Total Dipole Moment    :     -0.898412006       1.204043012       0.002356304
                        -----------------------------------------
Magnitude (a.u.)       :      1.502288008
Magnitude (Debye)      :      3.818512653

Rotational constants in cm-1:             0.100022             0.014636             0.012830
Rotational constants in MHz :          2998.598958           438.789596           384.642961

                             ****ORCA TERMINATED NORMALLY****
TOTAL RUN TIME: 0 days 0 hours 0 minutes 41 seconds 296 msec
