                         Program Version 6.0.0  -   RELEASE  -
|  1> ! r2scan-3c def2/J RI DEFGRID2 scfconv6 printgap
|  2> %output
|  3>     printlevel normal
|  4> end
|  5> %cpcm
|  6>     smd true
|  7>     smdsolvent "water"
|  8> end
|  9> * xyz 0 1
| 10> C -4.2755855715 0.8004172341 0.0008799991
| 11> O -3.4693039586 -0.3669683247 -0.0011327545
| 12> C -2.1252431179 -0.2393421829 -0.0001682129
| 13> C -1.4000227664 -1.4380107819 -0.0039023381
| 14> C -0.0270606739 -1.4180606622 -0.003666507
| 15> C 0.6633896075 -0.2021219144 0.0002822774
| 16> C -0.0588590617 0.9895308964 0.004364997
| 17> C -1.438744166 0.9758198216 0.0039841768
| 18> C 2.1319667846 -0.2200438077 -0.0008593538
| 19> O 2.8104031179 -1.2340895637 -0.003741208
| 20> O 2.675512269 1.0010139629 0.0024127352
| 21> C 4.1007486765 1.0747966214 0.0016369183
| 22> H -4.0989602237 1.3978016208 0.8979371581
| 23> H -5.3005234508 0.4372892371 -0.0021136606
| 24> H -4.095592158 1.4032857092 -0.8918121715
| 25> H -1.947772033 -2.3663270857 -0.0072117505
| 26> H 0.5430959621 -2.3343755885 -0.0066204648
| 27> H 0.4713320285 1.9283236325 0.0075574798
| 28> H -1.972290871 1.9117866609 0.0068131706
| 29> H 4.5000705581 0.5872815421 -0.8889702043
| 30> H 4.5017347323 0.5771467609 0.885790662
| 31> H 4.338159442 2.133913368 0.0072879852
| 32> *
| 33>
| 34>                          ****END OF INPUT****

CARTESIAN COORDINATES (ANGSTROEM)
---------------------------------
  C     -4.275586    0.800417    0.000880
  O     -3.469304   -0.366968   -0.001133
  C     -2.125243   -0.239342   -0.000168
  C     -1.400023   -1.438011   -0.003902
  C     -0.027061   -1.418061   -0.003667
  C      0.663390   -0.202122    0.000282
  C     -0.058859    0.989531    0.004365
  C     -1.438744    0.975820    0.003984
  C      2.131967   -0.220044   -0.000859
  O      2.810403   -1.234090   -0.003741
  O      2.675512    1.001014    0.002413
  C      4.100749    1.074797    0.001637
  H     -4.098960    1.397802    0.897937
  H     -5.300523    0.437289   -0.002114
  H     -4.095592    1.403286   -0.891812
  H     -1.947772   -2.366327   -0.007212
  H      0.543096   -2.334376   -0.006620
  H      0.471332    1.928324    0.007557
  H     -1.972291    1.911787    0.006813
  H      4.500071    0.587282   -0.888970
  H      4.501735    0.577147    0.885791
  H      4.338159    2.133913    0.007288

 Total Charge           Charge          ....    0
 Multiplicity           Mult            ....    1
 Number of Electrons    NEL             ....   88
 Basis Dimension        Dim             ....  293

ORBITAL ENERGIES
----------------

  NO   OCC          E(Eh)            E(eV)
   0   2.0000     -19.002311      -517.0792
   1   2.0000     -18.998044      -516.9631
   2   2.0000     -18.941897      -515.4352
   3   2.0000     -10.164577      -276.5922
   4   2.0000     -10.110468      -275.1198
   5   2.0000     -10.076907      -274.2066
   6   2.0000     -10.076086      -274.1843
   7   2.0000     -10.049176      -273.4520
   8   2.0000     -10.048729      -273.4398
   9   2.0000     -10.047140      -273.3966
  10   2.0000     -10.040982      -273.2290
  11   2.0000     -10.039296      -273.1831
  12   2.0000      -1.077852       -29.3299
  13   2.0000      -1.046309       -28.4715
  14   2.0000      -0.986099       -26.8331
  15   2.0000      -0.837669       -22.7941
  16   2.0000      -0.750848       -20.4316
  17   2.0000      -0.729777       -19.8582
  18   2.0000      -0.700664       -19.0660
  19   2.0000      -0.663651       -18.0589
  20   2.0000      -0.596086       -16.2203
  21   2.0000      -0.580860       -15.8060
  22   2.0000      -0.536337       -14.5945
  23   2.0000      -0.514953       -14.0126
  24   2.0000      -0.490318       -13.3422
  25   2.0000      -0.467683       -12.7263
  26   2.0000      -0.452816       -12.3217
  27   2.0000      -0.441101       -12.0030
  28   2.0000      -0.438708       -11.9379
  29   2.0000      -0.420991       -11.4557
  30   2.0000      -0.406996       -11.0749
  31   2.0000      -0.396827       -10.7982
  32   2.0000      -0.385897       -10.5008
  33   2.0000      -0.379145       -10.3171
  34   2.0000      -0.360050        -9.7975
  35   2.0000      -0.353866        -9.6292
  36   2.0000      -0.334035        -9.0896
  37   2.0000      -0.324696        -8.8354
  38   2.0000      -0.302100        -8.2205
  39   2.0000      -0.300126        -8.1668
  40   2.0000      -0.281046        -7.6476
  41   2.0000      -0.256018        -6.9666
  42   2.0000      -0.250374        -6.8130
  43   2.0000      -0.216835        -5.9004
  44   0.0000      -0.071910        -1.9568
  45   0.0000      -0.041364        -1.1256
  46   0.0000       0.029084         0.7914
  47   0.0000       0.063574         1.7299
  48   0.0000       0.072059         1.9608

MULLIKEN ATOMIC CHARGES
-----------------------
   0 C :   -0.338302
   1 O :   -0.207725
   2 C :    0.366002
   3 C :   -0.354619
   4 C :   -0.259041
   5 C :    0.110963
   6 C :   -0.232608
   7 C :   -0.273755
   8 C :    0.372650
   9 O :   -0.509166
  10 O :   -0.179363
  11 C :   -0.325717
  12 H :    0.176730
  13 H :    0.176831
  14 H :    0.176704
  15 H :    0.187749
  16 H :    0.195510
  17 H :    0.194277
  18 H :    0.189277
  19 H :    0.177574
  20 H :    0.177559
  21 H :    0.178471
Sum of atomic charges:    0.0000000

LOEWDIN ATOMIC CHARGES
----------------------
   0 C :   -0.045732
   1 O :   -0.686611
   2 C :    0.202360
   3 C :   -0.133031
   4 C :   -0.108707
   5 C :   -0.068366
   6 C :   -0.101545
   7 C :   -0.161429
   8 C :    0.384770
   9 O :   -0.501707
  10 O :   -0.615345
  11 C :   -0.039061
  12 H :    0.177669
  13 H :    0.189280
  14 H :    0.177690
  15 H :    0.192919
  16 H :    0.194063
  17 H :    0.197206
  18 H :    0.193012
  19 H :    0.182168
  20 H :    0.182198
  21 H :    0.188198

  Mayer bond orders larger than 0.100000
B(  0-C ,  1-O ) :   0.8411 B(  0-C , 12-H ) :   0.9541 B(  0-C , 13-H ) :   0.9593
B(  0-C , 14-H ) :   0.9541 B(  1-O ,  2-C ) :   1.0641 B(  2-C ,  3-C ) :   1.3159
B(  2-C ,  7-C ) :   1.3178 B(  3-C ,  4-C ) :   1.3695 B(  3-C , 15-H ) :   0.9617
B(  4-C ,  5-C ) :   1.3571 B(  4-C , 16-H ) :   0.9519 B(  5-C ,  6-C ) :   1.3266
B(  5-C ,  8-C ) :   1.0490 B(  5-C , 10-O ) :  -0.1086 B(  6-C ,  7-C ) :   1.3537
B(  6-C , 17-H ) :   0.9724 B(  7-C , 18-H ) :   0.9262 B(  8-C ,  9-O ) :   1.7908
B(  8-C , 10-O ) :   1.1702 B( 10-O , 11-C ) :   0.8222 B( 11-C , 19-H ) :   0.9569
B( 11-C , 20-H ) :   0.9570 B( 11-C , 21-H ) :   0.9607

Dispersion correction           -0.007436531
FINAL SINGLE POINT ENERGY      -574.539228142459

DIPOLE MOMENT
-------------

Method             : SCF
Type of density    : Electron Density
Multiplicity       :   1
Irrep              :   0
Energy             :  -574.5445946056262301 Eh
Relativity type    :
Basis              : AO
                                X                 Y                 Z
Electronic contribution:      1.537460142      -3.507178558      -0.004345213
Nuclear contribution   :     -2.841632342       5.316287375       0.008086418
                        -----------------------------------------
Total Dipole Moment    :     -1.304172200       1.809108817       0.003741205
                        -----------------------------------------
Magnitude (a.u.)       :      2.230191435
Magnitude (Debye)      :      5.668696128

Rotational constants in cm-1:             0.100022             0.014636             0.012830
Rotational constants in MHz :          2998.598958           438.789596           384.642961

                             ****ORCA TERMINATED NORMALLY****
TOTAL RUN TIME: 0 days 0 hours 0 minutes 54 seconds 919 msec
