                         Program Version 6.0.0  -   RELEASE  -
|  1> ! r2scan-3c def2/J RI DEFGRID2 scfconv6 printgap
|  2> %output
|  3>     printlevel normal
|  4> end
|  5> * xyz 0 1
|  6> C 1.7271744635 -2.4279667471 0.8842122447
|  7> O 0.9662677767 -1.8127105327 -0.1566657701
|  8> C 0.6878603079 -0.4871069494 -0.0533069652
|  9> C 1.6503776446 0.5250258614 0.0214776932
| 10> C 1.283841185 1.8579901396 0.1222640921
| 11> C -0.0484530048 2.2230177938 0.1327964559
| 12> C -1.0173163281 1.2389370152 0.0325331923
| 13> C -0.666055313 -0.1047704741 -0.0622156787
| 14> C -1.7182340932 -1.1624843093 -0.1469771541
| 15> O -2.6534352474 -1.2406298175 0.6207582558
| 16> O -1.521457302 -1.9970992844 -1.1425803297
| 17> Cl -2.6850292145 1.6897301693 0.0020230456
| 18> Cl 3.3405347837 0.1585824915 -0.0853986869
| 19> H 2.7570586108 -2.0733935016 0.9099886188
| 20> H 1.7095052973 -3.4885572563 0.6469125935
| 21> H 1.2529653616 -2.2545042442 1.8528981708
| 22> H 2.0521227559 2.6117171689 0.1794467379
| 23> H -0.3371759599 3.2574210243 0.2049540329
| 24> H -2.1906991473 -2.7101114085 -1.1831575514
| 25> *
| 26>
| 27>                          ****END OF INPUT****

CARTESIAN COORDINATES (ANGSTROEM)
---------------------------------
  C      1.727174   -2.427967    0.884212
  O      0.966268   -1.812711   -0.156666
  C      0.687860   -0.487107   -0.053307
  C      1.650378    0.525026    0.021478
  C      1.283841    1.857990    0.122264
  C     -0.048453    2.223018    0.132796
  C     -1.017316    1.238937    0.032533
  C     -0.666055   -0.104770   -0.062216
  C     -1.718234   -1.162484   -0.146977
  O     -2.653435   -1.240630    0.620758
  O     -1.521457   -1.997099   -1.142580
  Cl    -2.685029    1.689730    0.002023
  Cl     3.340535    0.158582   -0.085399
  H      2.757059   -2.073394    0.909989
  H      1.709505   -3.488557    0.646913
  H      1.252965   -2.254504    1.852898
  H      2.052123    2.611717    0.179447
  H     -0.337176    3.257421    0.204954
  H     -2.190699   -2.710111   -1.183158

 Total Charge           Charge          ....    0
 Multiplicity           Mult            ....    1
 Number of Electrons    NEL             ....  112
 Basis Dimension        Dim             ....  308

ORBITAL ENERGIES
----------------

  NO   OCC          E(Eh)            E(eV)
   0   2.0000    -101.236323     -2754.7804
   1   2.0000    -101.226134     -2754.5031
   2   2.0000     -19.011319      -517.3243
   3   2.0000     -18.997084      -516.9369
   4   2.0000     -18.942635      -515.4553
   5   2.0000     -10.176632      -276.9202
   6   2.0000     -10.132434      -275.7175
   7   2.0000     -10.121234      -275.4128
   8   2.0000     -10.117355      -275.3072
   9   2.0000     -10.092450      -274.6295
  10   2.0000     -10.079107      -274.2664
  11   2.0000     -10.070545      -274.0335
  12   2.0000     -10.063896      -273.8525
  13   2.0000      -9.392239      -255.5758
  14   2.0000      -9.382054      -255.2987
  15   2.0000      -7.138561      -194.2501
  16   2.0000      -7.128536      -193.9773
  17   2.0000      -7.128437      -193.9746
  18   2.0000      -7.127970      -193.9619
  19   2.0000      -7.118380      -193.7010
  20   2.0000      -7.117495      -193.6769
  21   2.0000      -1.089079       -29.6353
  22   2.0000      -1.047446       -28.5025
  23   2.0000      -0.988870       -26.9085
  24   2.0000      -0.887188       -24.1416
  25   2.0000      -0.856886       -23.3171
  26   2.0000      -0.803237       -21.8572
  27   2.0000      -0.764403       -20.8005
  28   2.0000      -0.713321       -19.4105
  29   2.0000      -0.678488       -18.4626
  30   2.0000      -0.654992       -17.8232
  31   2.0000      -0.597228       -16.2514
  32   2.0000      -0.575098       -15.6492
  33   2.0000      -0.518499       -14.1091
  34   2.0000      -0.501320       -13.6416
  35   2.0000      -0.492032       -13.3889
  36   2.0000      -0.459036       -12.4910
  37   2.0000      -0.456649       -12.4260
  38   2.0000      -0.445000       -12.1091
  39   2.0000      -0.435005       -11.8371
  40   2.0000      -0.425207       -11.5705
  41   2.0000      -0.419821       -11.4239
  42   2.0000      -0.392525       -10.6812
  43   2.0000      -0.388374       -10.5682
  44   2.0000      -0.378248       -10.2926
  45   2.0000      -0.361348        -9.8328
  46   2.0000      -0.354847        -9.6559
  47   2.0000      -0.337991        -9.1972
  48   2.0000      -0.309134        -8.4120
  49   2.0000      -0.305978        -8.3261
  50   2.0000      -0.296887        -8.0787
  51   2.0000      -0.286588        -7.7985
  52   2.0000      -0.277648        -7.5552
  53   2.0000      -0.256412        -6.9773
  54   2.0000      -0.241295        -6.5660
  55   2.0000      -0.229377        -6.2417
  56   0.0000      -0.080084        -2.1792
  57   0.0000      -0.056955        -1.5498
  58   0.0000      -0.019826        -0.5395
  59   0.0000      -0.005026        -0.1368
  60   0.0000       0.011692         0.3182

MULLIKEN ATOMIC CHARGES
-----------------------
   0 C :   -0.273646
   1 O :   -0.220111
   2 C :    0.252299
   3 C :    0.015640
   4 C :   -0.161259
   5 C :   -0.252981
   6 C :    0.076744
   7 C :    0.044834
   8 C :    0.290826
   9 O :   -0.377188
  10 O :   -0.303031
  11 Cl:   -0.095738
  12 Cl:   -0.130981
  13 H :    0.159107
  14 H :    0.155303
  15 H :    0.151909
  16 H :    0.165506
  17 H :    0.166078
  18 H :    0.336688
Sum of atomic charges:    0.0000000

LOEWDIN ATOMIC CHARGES
----------------------
   0 C :   -0.046086
   1 O :   -0.680096
   2 C :    0.200657
   3 C :   -0.150204
   4 C :   -0.146779
   5 C :   -0.169659
   6 C :   -0.128689
   7 C :   -0.010137
   8 C :    0.358529
   9 O :   -0.405087
  10 O :   -0.359906
  11 Cl:    0.194353
  12 Cl:    0.158469
  13 H :    0.165615
  14 H :    0.180632
  15 H :    0.167882
  16 H :    0.183246
  17 H :    0.182969
  18 H :    0.304292

  Mayer bond orders larger than 0.100000
B(  0-C ,  1-O ) :   0.8380 B(  0-C , 13-H ) :   0.9502 B(  0-C , 14-H ) :   0.9713
B(  0-C , 15-H ) :   0.9634 B(  1-O ,  2-C ) :   1.0533 B(  2-C ,  3-C ) :   1.2507
B(  2-C ,  7-C ) :   1.3793 B(  3-C ,  4-C ) :   1.2954 B(  3-C , 12-Cl) :   1.0283
B(  4-C ,  5-C ) :   1.3356 B(  4-C , 16-H ) :   0.9446 B(  5-C ,  6-C ) :   1.3287
B(  5-C , 17-H ) :   0.9370 B(  6-C ,  7-C ) :   1.2352 B(  6-C , 11-Cl) :   1.0384
B(  7-C ,  8-C ) :   0.9442 B(  8-C ,  9-O ) :   1.9396 B(  8-C , 10-O ) :   1.0880
B( 10-O , 18-H ) :   0.8551

Dispersion correction           -0.008649361
FINAL SINGLE POINT ENERGY     -1454.383220175057

DIPOLE MOMENT
-------------

Method             : SCF
Type of density    : Electron Density
Multiplicity       :   1
Irrep              :   0
Energy             : -1454.3876185783474284 Eh
Relativity type    :
Basis              : AO
                                X                 Y                 Z
Electronic contribution:     -3.196971544       6.666402816      -2.587266175
Nuclear contribution   :      3.992285627      -6.925021808       2.551484439
                        -----------------------------------------
Total Dipole Moment    :      0.795314083      -0.258618992      -0.035781736
                        -----------------------------------------
Magnitude (a.u.)       :      0.837071446
Magnitude (Debye)      :      2.127666528

Rotational constants in cm-1:             0.031622             0.016190             0.011332
Rotational constants in MHz :           947.995170           485.370861           339.733206

                             ****ORCA TERMINATED NORMALLY****
TOTAL RUN TIME: 0 days 0 hours 0 minutes 46 seconds 303 msec
