                         Program Version 6.0.0  -   RELEASE  -
|  1> ! r2scan-3c def2/J RI DEFGRID2 scfconv6 printgap
|  2> %output
|  3>     printlevel normal
|  4> end
|  5> %cpcm
|  6>     smd true
|  7>     smdsolvent "water"
|  8> end
|  9> * xyz 0 1
| 10> C 1.7271744635 -2.4279667471 0.8842122447
| 11> O 0.9662677767 -1.8127105327 -0.1566657701
| 12> C 0.6878603079 -0.4871069494 -0.0533069652
| 13> C 1.6503776446 0.5250258614 0.0214776932
| 14> C 1.283841185 1.8579901396 0.1222640921
| 15> C -0.0484530048 2.2230177938 0.1327964559
| 16> C -1.0173163281 1.2389370152 0.0325331923
| 17> C -0.666055313 -0.1047704741 -0.0622156787
| 18> C -1.7182340932 -1.1624843093 -0.1469771541
| 19> O -2.6534352474 -1.2406298175 0.6207582558
| 20> O -1.521457302 -1.9970992844 -1.1425803297
| 21> Cl -2.6850292145 1.6897301693 0.0020230456
| 22> Cl 3.3405347837 0.1585824915 -0.0853986869
| 23> H 2.7570586108 -2.0733935016 0.9099886188
| 24> H 1.7095052973 -3.4885572563 0.6469125935
| 25> H 1.2529653616 -2.2545042442 1.8528981708
| 26> H 2.0521227559 2.6117171689 0.1794467379
| 27> H -0.3371759599 3.2574210243 0.2049540329
| 28> H -2.1906991473 -2.7101114085 -1.1831575514
| 29> *
| 30>
| 31>                          ****END OF INPUT****

CARTESIAN COORDINATES (ANGSTROEM)
---------------------------------
  C      1.727174   -2.427967    0.884212
  O      0.966268   -1.812711   -0.156666
  C      0.687860   -0.487107   -0.053307
  C      1.650378    0.525026    0.021478
  C      1.283841    1.857990    0.122264
  C     -0.048453    2.223018    0.132796
  C     -1.017316    1.238937    0.032533
  C     -0.666055   -0.104770   -0.062216
  C     -1.718234   -1.162484   -0.146977
  O     -2.653435   -1.240630    0.620758
  O     -1.521457   -1.997099   -1.142580
  Cl    -2.685029    1.689730    0.002023
  Cl     3.340535    0.158582   -0.085399
  H      2.757059   -2.073394    0.909989
  H      1.709505   -3.488557    0.646913
  H      1.252965   -2.254504    1.852898
  H      2.052123    2.611717    0.179447
  H     -0.337176    3.257421    0.204954
  H     -2.190699   -2.710111   -1.183158

 Total Charge           Charge          ....    0
 Multiplicity           Mult            ....    1
 Number of Electrons    NEL             ....  112
 Basis Dimension        Dim             ....  308

ORBITAL ENERGIES
----------------

  NO   OCC          E(Eh)            E(eV)
   0   2.0000    -101.233516     -2754.7040
   1   2.0000    -101.231197     -2754.6409
   2   2.0000     -19.008886      -517.2581
   3   2.0000     -18.994411      -516.8642
   4   2.0000     -18.954475      -515.7775
   5   2.0000     -10.185112      -277.1510
   6   2.0000     -10.130272      -275.6587
   7   2.0000     -10.119990      -275.3789
   8   2.0000     -10.114191      -275.2211
   9   2.0000     -10.077556      -274.2242
  10   2.0000     -10.076381      -274.1923
  11   2.0000     -10.064268      -273.8627
  12   2.0000     -10.058077      -273.6942
  13   2.0000      -9.389496      -255.5012
  14   2.0000      -9.387329      -255.4422
  15   2.0000      -7.135780      -194.1744
  16   2.0000      -7.133648      -194.1164
  17   2.0000      -7.125744      -193.9014
  18   2.0000      -7.125200      -193.8866
  19   2.0000      -7.123689      -193.8454
  20   2.0000      -7.122856      -193.8228
  21   2.0000      -1.090715       -29.6799
  22   2.0000      -1.044536       -28.4233
  23   2.0000      -0.997508       -27.1436
  24   2.0000      -0.885752       -24.1025
  25   2.0000      -0.856585       -23.3089
  26   2.0000      -0.803205       -21.8563
  27   2.0000      -0.760153       -20.6848
  28   2.0000      -0.710541       -19.3348
  29   2.0000      -0.670200       -18.2371
  30   2.0000      -0.650650       -17.7051
  31   2.0000      -0.591582       -16.0978
  32   2.0000      -0.570792       -15.5320
  33   2.0000      -0.515947       -14.0396
  34   2.0000      -0.497297       -13.5321
  35   2.0000      -0.488440       -13.2911
  36   2.0000      -0.467220       -12.7137
  37   2.0000      -0.451741       -12.2925
  38   2.0000      -0.443234       -12.0610
  39   2.0000      -0.435295       -11.8450
  40   2.0000      -0.426069       -11.5939
  41   2.0000      -0.411349       -11.1934
  42   2.0000      -0.388990       -10.5849
  43   2.0000      -0.384552       -10.4642
  44   2.0000      -0.373792       -10.1714
  45   2.0000      -0.362753        -9.8710
  46   2.0000      -0.354273        -9.6403
  47   2.0000      -0.331757        -9.0276
  48   2.0000      -0.315433        -8.5834
  49   2.0000      -0.304246        -8.2789
  50   2.0000      -0.296672        -8.0728
  51   2.0000      -0.292859        -7.9691
  52   2.0000      -0.275811        -7.5052
  53   2.0000      -0.262835        -7.1521
  54   2.0000      -0.244196        -6.6449
  55   2.0000      -0.228066        -6.2060
  56   0.0000      -0.080325        -2.1857
  57   0.0000      -0.054217        -1.4753
  58   0.0000      -0.020547        -0.5591
  59   0.0000      -0.004742        -0.1290
  60   0.0000       0.010882         0.2961

MULLIKEN ATOMIC CHARGES
-----------------------
   0 C :   -0.293181
   1 O :   -0.258014
   2 C :    0.283481
   3 C :    0.005608
   4 C :   -0.172242
   5 C :   -0.269753
   6 C :    0.066895
   7 C :    0.043072
   8 C :    0.312612
   9 O :   -0.450022
  10 O :   -0.327143
  11 Cl:   -0.118772
  12 Cl:   -0.135616
  13 H :    0.166203
  14 H :    0.177806
  15 H :    0.173805
  16 H :    0.203501
  17 H :    0.202443
  18 H :    0.389318
Sum of atomic charges:    0.0000000

LOEWDIN ATOMIC CHARGES
----------------------
   0 C :   -0.042691
   1 O :   -0.702628
   2 C :    0.202735
   3 C :   -0.149890
   4 C :   -0.136014
   5 C :   -0.163103
   6 C :   -0.134990
   7 C :   -0.016186
   8 C :    0.366649
   9 O :   -0.461748
  10 O :   -0.350926
  11 Cl:    0.176640
  12 Cl:    0.155413
  13 H :    0.168876
  14 H :    0.189304
  15 H :    0.177451
  16 H :    0.197731
  17 H :    0.196315
  18 H :    0.327061

  Mayer bond orders larger than 0.100000
B(  0-C ,  1-O ) :   0.8285 B(  0-C , 13-H ) :   0.9465 B(  0-C , 14-H ) :   0.9624
B(  0-C , 15-H ) :   0.9567 B(  1-O ,  2-C ) :   1.0521 B(  2-C ,  3-C ) :   1.2376
B(  2-C ,  7-C ) :   1.3736 B(  3-C ,  4-C ) :   1.2735 B(  3-C , 12-Cl) :   1.0312
B(  4-C ,  5-C ) :   1.3554 B(  4-C , 16-H ) :   0.9429 B(  5-C ,  6-C ) :   1.3026
B(  5-C , 17-H ) :   0.9382 B(  6-C ,  7-C ) :   1.2035 B(  6-C , 11-Cl) :   1.0278
B(  7-C ,  8-C ) :   0.9503 B(  8-C ,  9-O ) :   1.8875 B(  8-C , 10-O ) :   1.1272
B( 10-O , 18-H ) :   0.8282

Dispersion correction           -0.008649361
FINAL SINGLE POINT ENERGY     -1454.395299464372

DIPOLE MOMENT
-------------

Method             : SCF
Type of density    : Electron Density
Multiplicity       :   1
Irrep              :   0
Energy             : -1454.3996978676632352 Eh
Relativity type    :
Basis              : AO
                                X                 Y                 Z
Electronic contribution:     -2.811732870       6.733162259      -2.598644523
Nuclear contribution   :      3.992285627      -6.925021808       2.551484439
                        -----------------------------------------
Total Dipole Moment    :      1.180552756      -0.191859550      -0.047160084
                        -----------------------------------------
Magnitude (a.u.)       :      1.196970748
Magnitude (Debye)      :      3.042457853

Rotational constants in cm-1:             0.031622             0.016190             0.011332
Rotational constants in MHz :           947.995170           485.370861           339.733206

                             ****ORCA TERMINATED NORMALLY****
TOTAL RUN TIME: 0 days 0 hours 1 minutes 4 seconds 28 msec
