                         Program Version 6.0.0  -   RELEASE  -
|  1> ! r2scan-3c def2/J RI DEFGRID2 scfconv6 printgap
|  2> %output
|  3>     printlevel normal
|  4> end
|  5> * xyz 0 1
|  6> C -1.0705375746 -0.5664519546 -0.185406679
|  7> C 0.0058122909 0.1912851498 0.6020679308
|  8> C 1.3266929271 -0.594101111 0.6257261747
|  9> O 1.8379038423 -0.8007065458 -0.6690050807
| 10> O 0.1858856497 1.4396596489 -0.0458619755
| 11> O -2.2995628131 0.1172809134 -0.185330529
| 12> H -1.2547477241 -1.5346174707 0.2819608167
| 13> H -0.7160335403 -0.7266393771 -1.2110450665
| 14> H -0.3484841704 0.3396076641 1.6303692387
| 15> H 1.1669496994 -1.5818403937 1.0599196899
| 16> H 2.0625205427 -0.0531154609 1.2379671207
| 17> H 1.8161633108 0.0496794892 -1.1359802977
| 18> H 0.6717484296 2.0425419127 0.5323781079
| 19> H -2.1423037929 1.0103159827 -0.5276169663
| 20> *
| 21>
| 22>                          ****END OF INPUT****

CARTESIAN COORDINATES (ANGSTROEM)
---------------------------------
  C     -1.070538   -0.566452   -0.185407
  C      0.005812    0.191285    0.602068
  C      1.326693   -0.594101    0.625726
  O      1.837904   -0.800707   -0.669005
  O      0.185886    1.439660   -0.045862
  O     -2.299563    0.117281   -0.185331
  H     -1.254748   -1.534617    0.281961
  H     -0.716034   -0.726639   -1.211045
  H     -0.348484    0.339608    1.630369
  H      1.166950   -1.581840    1.059920
  H      2.062521   -0.053115    1.237967
  H      1.816163    0.049679   -1.135980
  H      0.671748    2.042542    0.532378
  H     -2.142304    1.010316   -0.527617

 Total Charge           Charge          ....    0
 Multiplicity           Mult            ....    1
 Number of Electrons    NEL             ....   50
 Basis Dimension        Dim             ....  169

ORBITAL ENERGIES
----------------

  NO   OCC          E(Eh)            E(eV)
   0   2.0000     -18.975363      -516.3459
   1   2.0000     -18.951988      -515.7098
   2   2.0000     -18.945213      -515.5255
   3   2.0000     -10.092681      -274.6358
   4   2.0000     -10.084206      -274.4052
   5   2.0000     -10.076123      -274.1852
   6   2.0000      -1.018795       -27.7228
   7   2.0000      -0.987403       -26.8686
   8   2.0000      -0.979498       -26.6535
   9   2.0000      -0.731399       -19.9024
  10   2.0000      -0.644497       -17.5377
  11   2.0000      -0.580048       -15.7839
  12   2.0000      -0.512666       -13.9504
  13   2.0000      -0.475635       -12.9427
  14   2.0000      -0.472845       -12.8668
  15   2.0000      -0.425328       -11.5738
  16   2.0000      -0.410076       -11.1587
  17   2.0000      -0.391342       -10.6490
  18   2.0000      -0.386646       -10.5212
  19   2.0000      -0.329206        -8.9582
  20   2.0000      -0.315321        -8.5803
  21   2.0000      -0.298365        -8.1189
  22   2.0000      -0.271962        -7.4005
  23   2.0000      -0.250451        -6.8151
  24   2.0000      -0.224320        -6.1041
  25   0.0000       0.035150         0.9565
  26   0.0000       0.074282         2.0213
  27   0.0000       0.076867         2.0917
  28   0.0000       0.113380         3.0852
  29   0.0000       0.121938         3.3181

MULLIKEN ATOMIC CHARGES
-----------------------
   0 C :   -0.216467
   1 C :    0.067037
   2 C :   -0.164478
   3 O :   -0.427751
   4 O :   -0.465753
   5 O :   -0.417593
   6 H :    0.137352
   7 H :    0.152909
   8 H :    0.137867
   9 H :    0.139260
  10 H :    0.130536
  11 H :    0.312315
  12 H :    0.302233
  13 H :    0.312531
Sum of atomic charges:    0.0000000

LOEWDIN ATOMIC CHARGES
----------------------
   0 C :    0.030309
   1 C :    0.066508
   2 C :    0.016411
   3 O :   -0.606117
   4 O :   -0.604942
   5 O :   -0.595765
   6 H :    0.183049
   7 H :    0.173568
   8 H :    0.174058
   9 H :    0.182426
  10 H :    0.158482
  11 H :    0.274181
  12 H :    0.273358
  13 H :    0.274477

  Mayer bond orders larger than 0.100000
B(  0-C ,  1-C ) :   0.9425 B(  0-C ,  5-O ) :   0.9670 B(  0-C ,  6-H ) :   0.9669
B(  0-C ,  7-H ) :   0.9761 B(  1-C ,  2-C ) :   0.9395 B(  1-C ,  4-O ) :   0.9048
B(  1-C ,  8-H ) :   0.9374 B(  2-C ,  3-O ) :   0.9533 B(  2-C ,  9-H ) :   0.9677
B(  2-C , 10-H ) :   0.9680 B(  3-O , 11-H ) :   0.8728 B(  4-O , 12-H ) :   0.8955
B(  5-O , 13-H ) :   0.8765

Dispersion correction           -0.003052353
FINAL SINGLE POINT ENERGY      -344.726324208295

DIPOLE MOMENT
-------------

Method             : SCF
Type of density    : Electron Density
Multiplicity       :   1
Irrep              :   0
Energy             :  -344.7339188249934523 Eh
Relativity type    :
Basis              : AO
                                X                 Y                 Z
Electronic contribution:     -0.637870903       1.135127781      -1.171886266
Nuclear contribution   :      1.174074490      -0.414763100       1.739094303
                        -----------------------------------------
Total Dipole Moment    :      0.536203588       0.720364681       0.567208037
                        -----------------------------------------
Magnitude (a.u.)       :      1.062150892
Magnitude (Debye)      :      2.699773013

Rotational constants in cm-1:             0.201154             0.076418             0.066293
Rotational constants in MHz :          6030.442876          2290.944970          1987.407617

                             ****ORCA TERMINATED NORMALLY****
TOTAL RUN TIME: 0 days 0 hours 0 minutes 20 seconds 816 msec
