                         Program Version 6.0.0  -   RELEASE  -
|  1> ! r2scan-3c def2/J RI DEFGRID2 scfconv6 printgap
|  2> %output
|  3>     printlevel normal
|  4> end
|  5> %cpcm
|  6>     smd true
|  7>     smdsolvent "water"
|  8> end
|  9> * xyz 0 1
| 10> C -1.0705375746 -0.5664519546 -0.185406679
| 11> C 0.0058122909 0.1912851498 0.6020679308
| 12> C 1.3266929271 -0.594101111 0.6257261747
| 13> O 1.8379038423 -0.8007065458 -0.6690050807
| 14> O 0.1858856497 1.4396596489 -0.0458619755
| 15> O -2.2995628131 0.1172809134 -0.185330529
| 16> H -1.2547477241 -1.5346174707 0.2819608167
| 17> H -0.7160335403 -0.7266393771 -1.2110450665
| 18> H -0.3484841704 0.3396076641 1.6303692387
| 19> H 1.1669496994 -1.5818403937 1.0599196899
| 20> H 2.0625205427 -0.0531154609 1.2379671207
| 21> H 1.8161633108 0.0496794892 -1.1359802977
| 22> H 0.6717484296 2.0425419127 0.5323781079
| 23> H -2.1423037929 1.0103159827 -0.5276169663
| 24> *
| 25>
| 26>                          ****END OF INPUT****

CARTESIAN COORDINATES (ANGSTROEM)
---------------------------------
  C     -1.070538   -0.566452   -0.185407
  C      0.005812    0.191285    0.602068
  C      1.326693   -0.594101    0.625726
  O      1.837904   -0.800707   -0.669005
  O      0.185886    1.439660   -0.045862
  O     -2.299563    0.117281   -0.185331
  H     -1.254748   -1.534617    0.281961
  H     -0.716034   -0.726639   -1.211045
  H     -0.348484    0.339608    1.630369
  H      1.166950   -1.581840    1.059920
  H      2.062521   -0.053115    1.237967
  H      1.816163    0.049679   -1.135980
  H      0.671748    2.042542    0.532378
  H     -2.142304    1.010316   -0.527617

 Total Charge           Charge          ....    0
 Multiplicity           Mult            ....    1
 Number of Electrons    NEL             ....   50
 Basis Dimension        Dim             ....  169

ORBITAL ENERGIES
----------------

  NO   OCC          E(Eh)            E(eV)
   0   2.0000     -18.959157      -515.9049
   1   2.0000     -18.953281      -515.7450
   2   2.0000     -18.952712      -515.7295
   3   2.0000     -10.080309      -274.2992
   4   2.0000     -10.071440      -274.0578
   5   2.0000     -10.071222      -274.0519
   6   2.0000      -1.008417       -27.4404
   7   2.0000      -0.989280       -26.9197
   8   2.0000      -0.977565       -26.6009
   9   2.0000      -0.721107       -19.6223
  10   2.0000      -0.637456       -17.3461
  11   2.0000      -0.571097       -15.5403
  12   2.0000      -0.501573       -13.6485
  13   2.0000      -0.469043       -12.7633
  14   2.0000      -0.467405       -12.7187
  15   2.0000      -0.418991       -11.4013
  16   2.0000      -0.401364       -10.9217
  17   2.0000      -0.388269       -10.5653
  18   2.0000      -0.384046       -10.4504
  19   2.0000      -0.322673        -8.7804
  20   2.0000      -0.313268        -8.5245
  21   2.0000      -0.300896        -8.1878
  22   2.0000      -0.266851        -7.2614
  23   2.0000      -0.249142        -6.7795
  24   2.0000      -0.226184        -6.1548
  25   0.0000       0.058485         1.5915
  26   0.0000       0.080451         2.1892
  27   0.0000       0.099875         2.7177
  28   0.0000       0.125985         3.4282
  29   0.0000       0.136777         3.7219

MULLIKEN ATOMIC CHARGES
-----------------------
   0 C :   -0.229251
   1 C :    0.087977
   2 C :   -0.174918
   3 O :   -0.509899
   4 O :   -0.513906
   5 O :   -0.497217
   6 H :    0.162629
   7 H :    0.152681
   8 H :    0.157927
   9 H :    0.157534
  10 H :    0.150559
  11 H :    0.350691
  12 H :    0.351411
  13 H :    0.353781
Sum of atomic charges:    0.0000000

LOEWDIN ATOMIC CHARGES
----------------------
   0 C :    0.024617
   1 C :    0.075465
   2 C :    0.020188
   3 O :   -0.644802
   4 O :   -0.615636
   5 O :   -0.633470
   6 H :    0.190637
   7 H :    0.174225
   8 H :    0.183784
   9 H :    0.188758
  10 H :    0.170503
  11 H :    0.286743
  12 H :    0.291755
  13 H :    0.287235

  Mayer bond orders larger than 0.100000
B(  0-C ,  1-C ) :   0.9423 B(  0-C ,  5-O ) :   0.9496 B(  0-C ,  6-H ) :   0.9622
B(  0-C ,  7-H ) :   0.9713 B(  1-C ,  2-C ) :   0.9541 B(  1-C ,  4-O ) :   0.9023
B(  1-C ,  8-H ) :   0.9268 B(  2-C ,  3-O ) :   0.9387 B(  2-C ,  9-H ) :   0.9620
B(  2-C , 10-H ) :   0.9600 B(  3-O , 11-H ) :   0.8539 B(  4-O , 12-H ) :   0.8701
B(  5-O , 13-H ) :   0.8551

Dispersion correction           -0.003052353
FINAL SINGLE POINT ENERGY      -344.746115820703

DIPOLE MOMENT
-------------

Method             : SCF
Type of density    : Electron Density
Multiplicity       :   1
Irrep              :   0
Energy             :  -344.7537104374021624 Eh
Relativity type    :
Basis              : AO
                                X                 Y                 Z
Electronic contribution:     -0.427744866       1.386173531      -0.907244770
Nuclear contribution   :      1.174074490      -0.414763100       1.739094303
                        -----------------------------------------
Total Dipole Moment    :      0.746329624       0.971410431       0.831849533
                        -----------------------------------------
Magnitude (a.u.)       :      1.480749736
Magnitude (Debye)      :      3.763766716

Rotational constants in cm-1:             0.201154             0.076418             0.066293
Rotational constants in MHz :          6030.442876          2290.944970          1987.407617

                             ****ORCA TERMINATED NORMALLY****
TOTAL RUN TIME: 0 days 0 hours 0 minutes 23 seconds 875 msec
