                         Program Version 6.0.0  -   RELEASE  -
|  1> ! r2scan-3c def2/J RI DEFGRID2 scfconv6 printgap
|  2> %output
|  3>     printlevel normal
|  4> end
|  5> * xyz 0 1
|  6> C -2.2399834102 1.2453369202 -0.1320137715
|  7> C -1.8639533875 -0.0871764545 0.5195963031
|  8> C -0.553105768 -0.5916468251 -0.0263447016
|  9> O -0.420996118 -1.5910557235 -0.7046421606
| 10> O 0.4586327021 0.1933404458 0.3103446512
| 11> C 1.7678996706 -0.1587371912 -0.1663652351
| 12> C 2.7314743493 0.9394008552 0.239687678
| 13> H -1.4712577031 1.9878793866 0.0626181252
| 14> H -2.3478697794 1.1248332749 -1.2072576712
| 15> H -3.1829281961 1.5978320937 0.2747923976
| 16> H -2.625614477 -0.8409910599 0.323044694
| 17> H -1.7538679627 0.0519172309 1.5952643839
| 18> H 2.04487693 -1.1235962312 0.2712146159
| 19> H 1.720285873 -0.2800220542 -1.2535875697
| 20> H 3.731252023 0.6805003272 -0.0926862181
| 21> H 2.4365610777 1.8815359362 -0.2124912364
| 22> H 2.730032735 1.0533179694 1.319572786
| 23> *
| 24>
| 25>                          ****END OF INPUT****

CARTESIAN COORDINATES (ANGSTROEM)
---------------------------------
  C     -2.239983    1.245337   -0.132014
  C     -1.863953   -0.087176    0.519596
  C     -0.553106   -0.591647   -0.026345
  O     -0.420996   -1.591056   -0.704642
  O      0.458633    0.193340    0.310345
  C      1.767900   -0.158737   -0.166365
  C      2.731474    0.939401    0.239688
  H     -1.471258    1.987879    0.062618
  H     -2.347870    1.124833   -1.207258
  H     -3.182928    1.597832    0.274792
  H     -2.625614   -0.840991    0.323045
  H     -1.753868    0.051917    1.595264
  H      2.044877   -1.123596    0.271215
  H      1.720286   -0.280022   -1.253588
  H      3.731252    0.680500   -0.092686
  H      2.436561    1.881536   -0.212491
  H      2.730033    1.053318    1.319573

 Total Charge           Charge          ....    0
 Multiplicity           Mult            ....    1
 Number of Electrons    NEL             ....   56
 Basis Dimension        Dim             ....  193

ORBITAL ENERGIES
----------------

  NO   OCC          E(Eh)            E(eV)
   0   2.0000     -18.996549      -516.9224
   1   2.0000     -18.926071      -515.0046
   2   2.0000     -10.150015      -276.1960
   3   2.0000     -10.092103      -274.6201
   4   2.0000     -10.043488      -273.2972
   5   2.0000     -10.032754      -273.0051
   6   2.0000     -10.030832      -272.9528
   7   2.0000      -1.072190       -29.1758
   8   2.0000      -0.972778       -26.4706
   9   2.0000      -0.767495       -20.8846
  10   2.0000      -0.733115       -19.9491
  11   2.0000      -0.637448       -17.3458
  12   2.0000      -0.596117       -16.2212
  13   2.0000      -0.535019       -14.5586
  14   2.0000      -0.468757       -12.7555
  15   2.0000      -0.456495       -12.4219
  16   2.0000      -0.441133       -12.0038
  17   2.0000      -0.414141       -11.2693
  18   2.0000      -0.398952       -10.8560
  19   2.0000      -0.378372       -10.2960
  20   2.0000      -0.372782       -10.1439
  21   2.0000      -0.352839        -9.6012
  22   2.0000      -0.343701        -9.3526
  23   2.0000      -0.328333        -8.9344
  24   2.0000      -0.320144        -8.7116
  25   2.0000      -0.314009        -8.5446
  26   2.0000      -0.271116        -7.3774
  27   2.0000      -0.230713        -6.2780
  28   0.0000      -0.013932        -0.3791
  29   0.0000       0.072892         1.9835
  30   0.0000       0.094726         2.5776
  31   0.0000       0.118245         3.2176
  32   0.0000       0.123681         3.3655

MULLIKEN ATOMIC CHARGES
-----------------------
   0 C :   -0.470891
   1 C :   -0.297234
   2 C :    0.396407
   3 O :   -0.421796
   4 O :   -0.170551
   5 C :   -0.144994
   6 C :   -0.442774
   7 H :    0.161524
   8 H :    0.152805
   9 H :    0.151780
  10 H :    0.166832
  11 H :    0.153328
  12 H :    0.154495
  13 H :    0.159401
  14 H :    0.147487
  15 H :    0.151849
  16 H :    0.152333
Sum of atomic charges:    0.0000000

LOEWDIN ATOMIC CHARGES
----------------------
   0 C :   -0.394787
   1 C :   -0.236732
   2 C :    0.353683
   3 O :   -0.425034
   4 O :   -0.601605
   5 C :    0.034683
   6 C :   -0.387095
   7 H :    0.160651
   8 H :    0.157107
   9 H :    0.152497
  10 H :    0.174684
  11 H :    0.174924
  12 H :    0.178111
  13 H :    0.180817
  14 H :    0.159769
  15 H :    0.158780
  16 H :    0.159549

  Mayer bond orders larger than 0.100000
B(  0-C ,  1-C ) :   0.8934 B(  0-C ,  7-H ) :   0.9757 B(  0-C ,  8-H ) :   0.9738
B(  0-C ,  9-H ) :   0.9716 B(  1-C ,  2-C ) :   0.9694 B(  1-C , 10-H ) :   0.9838
B(  1-C , 11-H ) :   0.9601 B(  2-C ,  3-O ) :   1.8276 B(  2-C ,  4-O ) :   1.0540
B(  4-O ,  5-C ) :   0.8111 B(  5-C ,  6-C ) :   0.9401 B(  5-C , 12-H ) :   0.9529
B(  5-C , 13-H ) :   0.9548 B(  6-C , 14-H ) :   0.9681 B(  6-C , 15-H ) :   0.9729
B(  6-C , 16-H ) :   0.9711

Dispersion correction           -0.003917350
FINAL SINGLE POINT ENERGY      -346.936009656467

DIPOLE MOMENT
-------------

Method             : SCF
Type of density    : Electron Density
Multiplicity       :   1
Irrep              :   0
Energy             :  -346.9424131174716308 Eh
Relativity type    :
Basis              : AO
                                X                 Y                 Z
Electronic contribution:     -0.935446613      -4.948266700      -0.613752797
Nuclear contribution   :      1.202791618       5.733250783       1.007829022
                        -----------------------------------------
Total Dipole Moment    :      0.267345005       0.784984083       0.394076225
                        -----------------------------------------
Magnitude (a.u.)       :      0.918133669
Magnitude (Debye)      :      2.333710323

Rotational constants in cm-1:             0.151805             0.052882             0.042469
Rotational constants in MHz :          4551.007877          1585.353646          1273.180774

                             ****ORCA TERMINATED NORMALLY****
TOTAL RUN TIME: 0 days 0 hours 0 minutes 22 seconds 625 msec
