                         Program Version 6.0.0  -   RELEASE  -
|  1> ! r2scan-3c def2/J RI DEFGRID2 scfconv6 printgap
|  2> %output
|  3>     printlevel normal
|  4> end
|  5> %cpcm
|  6>     smd true
|  7>     smdsolvent "water"
|  8> end
|  9> * xyz 0 1
| 10> C -2.2399834102 1.2453369202 -0.1320137715
| 11> C -1.8639533875 -0.0871764545 0.5195963031
| 12> C -0.553105768 -0.5916468251 -0.0263447016
| 13> O -0.420996118 -1.5910557235 -0.7046421606
| 14> O 0.4586327021 0.1933404458 0.3103446512
| 15> C 1.7678996706 -0.1587371912 -0.1663652351
| 16> C 2.7314743493 0.9394008552 0.239687678
| 17> H -1.4712577031 1.9878793866 0.0626181252
| 18> H -2.3478697794 1.1248332749 -1.2072576712
| 19> H -3.1829281961 1.5978320937 0.2747923976
| 20> H -2.625614477 -0.8409910599 0.323044694
| 21> H -1.7538679627 0.0519172309 1.5952643839
| 22> H 2.04487693 -1.1235962312 0.2712146159
| 23> H 1.720285873 -0.2800220542 -1.2535875697
| 24> H 3.731252023 0.6805003272 -0.0926862181
| 25> H 2.4365610777 1.8815359362 -0.2124912364
| 26> H 2.730032735 1.0533179694 1.319572786
| 27> *
| 28>
| 29>                          ****END OF INPUT****

CARTESIAN COORDINATES (ANGSTROEM)
---------------------------------
  C     -2.239983    1.245337   -0.132014
  C     -1.863953   -0.087176    0.519596
  C     -0.553106   -0.591647   -0.026345
  O     -0.420996   -1.591056   -0.704642
  O      0.458633    0.193340    0.310345
  C      1.767900   -0.158737   -0.166365
  C      2.731474    0.939401    0.239688
  H     -1.471258    1.987879    0.062618
  H     -2.347870    1.124833   -1.207258
  H     -3.182928    1.597832    0.274792
  H     -2.625614   -0.840991    0.323045
  H     -1.753868    0.051917    1.595264
  H      2.044877   -1.123596    0.271215
  H      1.720286   -0.280022   -1.253588
  H      3.731252    0.680500   -0.092686
  H      2.436561    1.881536   -0.212491
  H      2.730033    1.053318    1.319573

 Total Charge           Charge          ....    0
 Multiplicity           Mult            ....    1
 Number of Electrons    NEL             ....   56
 Basis Dimension        Dim             ....  193

ORBITAL ENERGIES
----------------

  NO   OCC          E(Eh)            E(eV)
   0   2.0000     -19.002355      -517.0804
   1   2.0000     -18.943444      -515.4773
   2   2.0000     -10.161639      -276.5122
   3   2.0000     -10.084322      -274.4084
   4   2.0000     -10.037778      -273.1418
   5   2.0000     -10.021094      -272.6878
   6   2.0000     -10.018883      -272.6277
   7   2.0000      -1.079931       -29.3864
   8   2.0000      -0.987830       -26.8802
   9   2.0000      -0.762913       -20.7599
  10   2.0000      -0.724411       -19.7122
  11   2.0000      -0.631087       -17.1728
  12   2.0000      -0.589110       -16.0305
  13   2.0000      -0.533512       -14.5176
  14   2.0000      -0.469039       -12.7632
  15   2.0000      -0.456978       -12.4350
  16   2.0000      -0.449248       -12.2247
  17   2.0000      -0.413165       -11.2428
  18   2.0000      -0.395616       -10.7653
  19   2.0000      -0.374905       -10.2017
  20   2.0000      -0.360139        -9.7999
  21   2.0000      -0.346847        -9.4382
  22   2.0000      -0.336053        -9.1445
  23   2.0000      -0.321682        -8.7534
  24   2.0000      -0.318520        -8.6674
  25   2.0000      -0.314933        -8.5698
  26   2.0000      -0.276948        -7.5361
  27   2.0000      -0.248213        -6.7542
  28   0.0000      -0.022914        -0.6235
  29   0.0000       0.076825         2.0905
  30   0.0000       0.103899         2.8272
  31   0.0000       0.125636         3.4187
  32   0.0000       0.133578         3.6348

MULLIKEN ATOMIC CHARGES
-----------------------
   0 C :   -0.494251
   1 C :   -0.312573
   2 C :    0.444156
   3 O :   -0.512250
   4 O :   -0.183792
   5 C :   -0.149103
   6 C :   -0.491063
   7 H :    0.167020
   8 H :    0.163847
   9 H :    0.170493
  10 H :    0.174145
  11 H :    0.181290
  12 H :    0.171915
  13 H :    0.170986
  14 H :    0.168905
  15 H :    0.165548
  16 H :    0.164727
Sum of atomic charges:    0.0000000

LOEWDIN ATOMIC CHARGES
----------------------
   0 C :   -0.395705
   1 C :   -0.234008
   2 C :    0.364098
   3 O :   -0.489426
   4 O :   -0.601059
   5 C :    0.036802
   6 C :   -0.389893
   7 H :    0.162162
   8 H :    0.160358
   9 H :    0.159639
  10 H :    0.178219
  11 H :    0.186312
  12 H :    0.183812
  13 H :    0.185003
  14 H :    0.168367
  15 H :    0.162440
  16 H :    0.162878

  Mayer bond orders larger than 0.100000
B(  0-C ,  1-C ) :   0.8852 B(  0-C ,  7-H ) :   0.9730 B(  0-C ,  8-H ) :   0.9703
B(  0-C ,  9-H ) :   0.9667 B(  1-C ,  2-C ) :   0.9663 B(  1-C , 10-H ) :   0.9804
B(  1-C , 11-H ) :   0.9496 B(  2-C ,  3-O ) :   1.7537 B(  2-C ,  4-O ) :   1.0868
B(  4-O ,  5-C ) :   0.7967 B(  5-C ,  6-C ) :   0.9433 B(  5-C , 12-H ) :   0.9447
B(  5-C , 13-H ) :   0.9477 B(  6-C , 14-H ) :   0.9616 B(  6-C , 15-H ) :   0.9709
B(  6-C , 16-H ) :   0.9689

Dispersion correction           -0.003917350
FINAL SINGLE POINT ENERGY      -346.941816625185

DIPOLE MOMENT
-------------

Method             : SCF
Type of density    : Electron Density
Multiplicity       :   1
Irrep              :   0
Energy             :  -346.9482200861901333 Eh
Relativity type    :
Basis              : AO
                                X                 Y                 Z
Electronic contribution:     -0.875069122      -4.658858523      -0.445635050
Nuclear contribution   :      1.202791618       5.733250783       1.007829022
                        -----------------------------------------
Total Dipole Moment    :      0.327722496       1.074392260       0.562193972
                        -----------------------------------------
Magnitude (a.u.)       :      1.256098254
Magnitude (Debye)      :      3.192748031

Rotational constants in cm-1:             0.151805             0.052882             0.042469
Rotational constants in MHz :          4551.007877          1585.353646          1273.180774

                             ****ORCA TERMINATED NORMALLY****
TOTAL RUN TIME: 0 days 0 hours 0 minutes 26 seconds 535 msec
