                         Program Version 6.0.0  -   RELEASE  -
|  1> ! pbe def2-sv(p) def2/J RI DEFGRID1 loosescf d4 GCP(DFT/SV(P)) printgap
|  2> %output
|  3>     printlevel normal
|  4> end
|  5> * xyz 0 1
|  6> C 2.5808023362 -1.5028393202 -0.085369539
|  7> O 1.1779456827 -1.3693326372 0.0446699104
|  8> C 0.6408442309 -0.1167402498 0.0392210046
|  9> C 1.3554463808 1.0593316693 -0.1523587219
| 10> C 0.7029830931 2.2816927774 -0.1576241382
| 11> C -0.6636276628 2.3511980208 0.0307673275
| 12> C -1.3863903945 1.1862030988 0.2296792929
| 13> C -0.7487448793 -0.0418845407 0.2399010247
| 14> O -1.452510385 -1.2113446516 0.4907561039
| 15> C -2.2439206356 -1.6669239539 -0.5950442523
| 16> H 2.9251826245 -1.1266313807 -1.0522191581
| 17> H 2.771278163 -2.571514403 -0.019367443
| 18> H 3.1024341127 -0.985183992 0.7232514266
| 19> H 2.4219306278 1.0302459218 -0.304592335
| 20> H 1.275737751 3.1828893952 -0.3111212902
| 21> H -1.1693272778 3.303442312 0.0282243192
| 22> H -2.4531493212 1.2189956169 0.3913816114
| 23> H -2.9624350746 -0.9048590533 -0.9099425976
| 24> H -2.7705848176 -2.5443287708 -0.2278133753
| 25> H -1.6116000216 -1.9426847947 -1.4446985126
| 26> *
| 27>
| 28>                          ****END OF INPUT****

CARTESIAN COORDINATES (ANGSTROEM)
---------------------------------
  C      2.580802   -1.502839   -0.085370
  O      1.177946   -1.369333    0.044670
  C      0.640844   -0.116740    0.039221
  C      1.355446    1.059332   -0.152359
  C      0.702983    2.281693   -0.157624
  C     -0.663628    2.351198    0.030767
  C     -1.386390    1.186203    0.229679
  C     -0.748745   -0.041885    0.239901
  O     -1.452510   -1.211345    0.490756
  C     -2.243921   -1.666924   -0.595044
  H      2.925183   -1.126631   -1.052219
  H      2.771278   -2.571514   -0.019367
  H      3.102434   -0.985184    0.723251
  H      2.421931    1.030246   -0.304592
  H      1.275738    3.182889   -0.311121
  H     -1.169327    3.303442    0.028224
  H     -2.453149    1.218996    0.391382
  H     -2.962435   -0.904859   -0.909943
  H     -2.770585   -2.544329   -0.227813
  H     -1.611600   -1.942685   -1.444699

 Total Charge           Charge          ....    0
 Multiplicity           Mult            ....    1
 Number of Electrons    NEL             ....   74
 Basis Dimension        Dim             ....  160

ORBITAL ENERGIES
----------------

  NO   OCC          E(Eh)            E(eV)
   0   2.0000     -18.785480      -511.1789
   1   2.0000     -18.762166      -510.5445
   2   2.0000      -9.947870      -270.6953
   3   2.0000      -9.940513      -270.4951
   4   2.0000      -9.937682      -270.4181
   5   2.0000      -9.927327      -270.1363
   6   2.0000      -9.889589      -269.1094
   7   2.0000      -9.888615      -269.0829
   8   2.0000      -9.887654      -269.0568
   9   2.0000      -9.884576      -268.9730
  10   2.0000      -0.969312       -26.3763
  11   2.0000      -0.939036       -25.5525
  12   2.0000      -0.768603       -20.9147
  13   2.0000      -0.683054       -18.5868
  14   2.0000      -0.670575       -18.2473
  15   2.0000      -0.630100       -17.1459
  16   2.0000      -0.607375       -16.5275
  17   2.0000      -0.539112       -14.6700
  18   2.0000      -0.526687       -14.3319
  19   2.0000      -0.486084       -13.2270
  20   2.0000      -0.451321       -12.2811
  21   2.0000      -0.438165       -11.9231
  22   2.0000      -0.422430       -11.4949
  23   2.0000      -0.410176       -11.1614
  24   2.0000      -0.400718       -10.9041
  25   2.0000      -0.396504       -10.7894
  26   2.0000      -0.382449       -10.4070
  27   2.0000      -0.369605       -10.0575
  28   2.0000      -0.338059        -9.1991
  29   2.0000      -0.332192        -9.0394
  30   2.0000      -0.317502        -8.6397
  31   2.0000      -0.294695        -8.0191
  32   2.0000      -0.281118        -7.6496
  33   2.0000      -0.276019        -7.5109
  34   2.0000      -0.226488        -6.1630
  35   2.0000      -0.210874        -5.7382
  36   2.0000      -0.186572        -5.0769
  37   0.0000      -0.028937        -0.7874
  38   0.0000      -0.017570        -0.4781
  39   0.0000       0.039718         1.0808
  40   0.0000       0.052025         1.4157
  41   0.0000       0.057971         1.5775

MULLIKEN ATOMIC CHARGES
-----------------------
   0 C :   -0.113872
   1 O :   -0.259934
   2 C :    0.224737
   3 C :   -0.226272
   4 C :   -0.036257
   5 C :   -0.046172
   6 C :   -0.145946
   7 C :    0.160634
   8 O :   -0.301089
   9 C :   -0.078783
  10 H :    0.109506
  11 H :    0.126421
  12 H :    0.111856
  13 H :    0.037274
  14 H :    0.048603
  15 H :    0.046757
  16 H :    0.040347
  17 H :    0.092050
  18 H :    0.116019
  19 H :    0.094120
Sum of atomic charges:    0.0000000

LOEWDIN ATOMIC CHARGES
----------------------
   0 C :   -0.201138
   1 O :   -0.085008
   2 C :    0.017065
   3 C :   -0.174596
   4 C :   -0.126713
   5 C :   -0.142600
   6 C :   -0.137548
   7 C :    0.012066
   8 O :   -0.128923
   9 C :   -0.194009
  10 H :    0.108204
  11 H :    0.122933
  12 H :    0.110340
  13 H :    0.126238
  14 H :    0.122991
  15 H :    0.122490
  16 H :    0.128847
  17 H :    0.099072
  18 H :    0.116553
  19 H :    0.103736

  Mayer bond orders larger than 0.100000
B(  0-C ,  1-O ) :   0.9891 B(  0-C , 10-H ) :   0.9415 B(  0-C , 11-H ) :   0.9589
B(  0-C , 12-H ) :   0.9420 B(  1-O ,  2-C ) :   1.1851 B(  2-C ,  3-C ) :   1.2933
B(  2-C ,  7-C ) :   1.3299 B(  3-C ,  4-C ) :   1.3344 B(  3-C , 13-H ) :   0.9658
B(  4-C ,  5-C ) :   1.3779 B(  4-C , 14-H ) :   0.9666 B(  5-C ,  6-C ) :   1.3067
B(  5-C , 15-H ) :   0.9672 B(  6-C ,  7-C ) :   1.4175 B(  6-C , 16-H ) :   0.9656
B(  7-C ,  8-O ) :   1.0878 B(  8-O ,  9-C ) :   0.9853 B(  9-C , 17-H ) :   0.9440
B(  9-C , 18-H ) :   0.9635 B(  9-C , 19-H ) :   0.9452

Dispersion correction           -0.019989634
FINAL SINGLE POINT ENERGY      -460.290795659109

DIPOLE MOMENT
-------------

Method             : SCF
Type of density    : Electron Density
Multiplicity       :   1
Irrep              :   0
Energy             :  -460.3575294982944115 Eh
Relativity type    :
Basis              : AO
                                X                 Y                 Z
Electronic contribution:     -1.026758776       1.270192028       2.434115069
Nuclear contribution   :      1.430831131      -1.295036068      -2.925626892
                        -----------------------------------------
Total Dipole Moment    :      0.404072356      -0.024844040      -0.491511823
                        -----------------------------------------
Magnitude (a.u.)       :      0.636769634
Magnitude (Debye)      :      1.618539782

Rotational constants in cm-1:             0.050858             0.049472             0.026250
Rotational constants in MHz :          1524.685356          1483.125184           786.947971

                             ****ORCA TERMINATED NORMALLY****
TOTAL RUN TIME: 0 days 0 hours 0 minutes 11 seconds 360 msec
