                         Program Version 6.0.0  -   RELEASE  -
|  1> ! pbe def2-sv(p) def2/J RI DEFGRID1 loosescf d4 GCP(DFT/SV(P)) printgap
|  2> %output
|  3>     printlevel normal
|  4> end
|  5> * xyz 0 1
|  6> C -2.8506864758 0.42687586 -0.1527473175
|  7> C -1.4418075986 0.2801362118 0.4086991632
|  8> C -0.6600317676 -0.8129830336 -0.3178801248
|  9> C 0.7410122556 -1.0017701563 0.2335619269
| 10> Cl 1.7627183494 0.4507687028 -0.0687556465
| 11> H -2.8155021852 0.6868688822 -1.2081111962
| 12> H -3.402013929 -0.5043805255 -0.0467035774
| 13> H -3.3904893986 1.2087240233 0.3750398005
| 14> H -1.4966839683 0.0378569458 1.4720283112
| 15> H -0.9096314402 1.2283622466 0.3105254095
| 16> H -1.1839397759 -1.7651190532 -0.2104191337
| 17> H -0.6041286809 -0.5759997086 -1.3817410479
| 18> H 1.2543366198 -1.8301663667 -0.2506238829
| 19> H 0.7317171385 -1.1413507978 1.313185217
| 20> *
| 21>
| 22>                          ****END OF INPUT****

CARTESIAN COORDINATES (ANGSTROEM)
---------------------------------
  C     -2.850686    0.426876   -0.152747
  C     -1.441808    0.280136    0.408699
  C     -0.660032   -0.812983   -0.317880
  C      0.741012   -1.001770    0.233562
  Cl     1.762718    0.450769   -0.068756
  H     -2.815502    0.686869   -1.208111
  H     -3.402014   -0.504381   -0.046704
  H     -3.390489    1.208724    0.375040
  H     -1.496684    0.037857    1.472028
  H     -0.909631    1.228362    0.310525
  H     -1.183940   -1.765119   -0.210419
  H     -0.604129   -0.576000   -1.381741
  H      1.254337   -1.830166   -0.250624
  H      0.731717   -1.141351    1.313185

 Total Charge           Charge          ....    0
 Multiplicity           Mult            ....    1
 Number of Electrons    NEL             ....   50
 Basis Dimension        Dim             ....   92

ORBITAL ENERGIES
----------------

  NO   OCC          E(Eh)            E(eV)
   0   2.0000    -100.615279     -2737.8809
   1   2.0000      -9.939657      -270.4718
   2   2.0000      -9.895779      -269.2778
   3   2.0000      -9.885935      -269.0100
   4   2.0000      -9.875695      -268.7313
   5   2.0000      -9.150995      -249.0112
   6   2.0000      -6.982518      -190.0040
   7   2.0000      -6.970764      -189.6841
   8   2.0000      -6.970549      -189.6783
   9   2.0000      -0.775277       -21.0964
  10   2.0000      -0.709361       -19.3027
  11   2.0000      -0.642082       -17.4719
  12   2.0000      -0.561595       -15.2818
  13   2.0000      -0.518721       -14.1151
  14   2.0000      -0.432486       -11.7685
  15   2.0000      -0.411451       -11.1961
  16   2.0000      -0.393939       -10.7196
  17   2.0000      -0.378711       -10.3052
  18   2.0000      -0.346901        -9.4397
  19   2.0000      -0.327456        -8.9105
  20   2.0000      -0.308437        -8.3930
  21   2.0000      -0.297039        -8.0829
  22   2.0000      -0.292566        -7.9611
  23   2.0000      -0.244209        -6.6453
  24   2.0000      -0.241421        -6.5694
  25   0.0000       0.012144         0.3304
  26   0.0000       0.038839         1.0568
  27   0.0000       0.057882         1.5750
  28   0.0000       0.069073         1.8796
  29   0.0000       0.088531         2.4090

MULLIKEN ATOMIC CHARGES
-----------------------
   0 C :   -0.259779
   1 C :   -0.203615
   2 C :   -0.170628
   3 C :   -0.149205
   4 Cl:   -0.157992
   5 H :    0.100393
   6 H :    0.095476
   7 H :    0.105760
   8 H :    0.083754
   9 H :    0.098794
  10 H :    0.092087
  11 H :    0.097944
  12 H :    0.136106
  13 H :    0.130905
Sum of atomic charges:   -0.0000000

LOEWDIN ATOMIC CHARGES
----------------------
   0 C :   -0.339301
   1 C :   -0.240034
   2 C :   -0.249279
   3 C :   -0.267646
   4 Cl:    0.019081
   5 H :    0.118392
   6 H :    0.115408
   7 H :    0.120674
   8 H :    0.114142
   9 H :    0.115602
  10 H :    0.123540
  11 H :    0.121355
  12 H :    0.124430
  13 H :    0.123636

  Mayer bond orders larger than 0.100000
B(  0-C ,  1-C ) :   1.1584 B(  0-C ,  5-H ) :   0.9545 B(  0-C ,  6-H ) :   0.9552
B(  0-C ,  7-H ) :   0.9537 B(  1-C ,  2-C ) :   1.1251 B(  1-C ,  8-H ) :   0.9279
B(  1-C ,  9-H ) :   0.9201 B(  2-C ,  3-C ) :   1.1063 B(  2-C , 10-H ) :   0.9071
B(  2-C , 11-H ) :   0.9191 B(  3-C ,  4-Cl) :   1.0298 B(  3-C , 12-H ) :   0.9319
B(  3-C , 13-H ) :   0.9259

Dispersion correction           -0.009935309
FINAL SINGLE POINT ENERGY      -617.300441280802

DIPOLE MOMENT
-------------

Method             : SCF
Type of density    : Electron Density
Multiplicity       :   1
Irrep              :   0
Energy             :  -617.3479178622159225 Eh
Relativity type    :
Basis              : AO
                                X                 Y                 Z
Electronic contribution:     12.991639503       2.574119887      -0.345085054
Nuclear contribution   :    -13.451610507      -3.096042862       0.442388078
                        -----------------------------------------
Total Dipole Moment    :     -0.459971004      -0.521922975       0.097303023
                        -----------------------------------------
Magnitude (a.u.)       :      0.702456258
Magnitude (Debye)      :      1.785501913

Rotational constants in cm-1:             0.310975             0.057184             0.051866
Rotational constants in MHz :          9322.809701          1714.346455          1554.905376

                             ****ORCA TERMINATED NORMALLY****
TOTAL RUN TIME: 0 days 0 hours 0 minutes 7 seconds 781 msec
