                         Program Version 6.0.0  -   RELEASE  -
|  1> ! pbe def2-sv(p) def2/J RI DEFGRID1 loosescf d4 GCP(DFT/SV(P)) printgap
|  2> %output
|  3>     printlevel normal
|  4> end
|  5> * xyz 0 1
|  6> C -2.7882597352 0.0292648618 -0.0069115035
|  7> C -1.3761319179 0.584512903 -0.1569617941
|  8> C -0.329239264 -0.486911192 0.1333649923
|  9> C 1.1075813107 -0.0545935083 0.0141446406
| 10> C 1.5021216573 1.1643110687 -0.3165975497
| 11> C 2.0941402733 -1.1472769186 0.3087520676
| 12> H -3.5256811855 0.8006862443 -0.2148349149
| 13> H -2.9495601048 -0.3356023283 1.0051254772
| 14> H -2.949949229 -0.7950287937 -0.6981248351
| 15> H -1.2422081546 0.9586539627 -1.1738161608
| 16> H -1.2424507094 1.4207291804 0.5320938748
| 17> H -0.4854887455 -0.8688750413 1.1473192625
| 18> H -0.4873648349 -1.3297562596 -0.5470844533
| 19> H 2.5480988075 1.4134758611 -0.3857174244
| 20> H 0.8162176191 1.9636433183 -0.5320832611
| 21> H 1.9476687083 -1.9816102606 -0.3757445894
| 22> H 3.1150324757 -0.7892648258 0.2098852121
| 23> H 1.9506151819 -1.5213123467 1.3214787485
| 24> *
| 25>
| 26>                          ****END OF INPUT****

CARTESIAN COORDINATES (ANGSTROEM)
---------------------------------
  C     -2.788260    0.029265   -0.006912
  C     -1.376132    0.584513   -0.156962
  C     -0.329239   -0.486911    0.133365
  C      1.107581   -0.054594    0.014145
  C      1.502122    1.164311   -0.316598
  C      2.094140   -1.147277    0.308752
  H     -3.525681    0.800686   -0.214835
  H     -2.949560   -0.335602    1.005125
  H     -2.949949   -0.795029   -0.698125
  H     -1.242208    0.958654   -1.173816
  H     -1.242451    1.420729    0.532094
  H     -0.485489   -0.868875    1.147319
  H     -0.487365   -1.329756   -0.547084
  H      2.548099    1.413476   -0.385717
  H      0.816218    1.963643   -0.532083
  H      1.947669   -1.981610   -0.375745
  H      3.115032   -0.789265    0.209885
  H      1.950615   -1.521312    1.321479

 Total Charge           Charge          ....    0
 Multiplicity           Mult            ....    1
 Number of Electrons    NEL             ....   48
 Basis Dimension        Dim             ....  108

ORBITAL ENERGIES
----------------

  NO   OCC          E(Eh)            E(eV)
   0   2.0000      -9.895405      -269.2677
   1   2.0000      -9.886075      -269.0138
   2   2.0000      -9.882869      -268.9265
   3   2.0000      -9.876109      -268.7426
   4   2.0000      -9.873019      -268.6585
   5   2.0000      -9.863617      -268.4027
   6   2.0000      -0.736684       -20.0462
   7   2.0000      -0.686696       -18.6859
   8   2.0000      -0.610640       -16.6164
   9   2.0000      -0.603886       -16.4326
  10   2.0000      -0.527975       -14.3669
  11   2.0000      -0.459625       -12.5070
  12   2.0000      -0.421119       -11.4592
  13   2.0000      -0.411944       -11.2096
  14   2.0000      -0.387869       -10.5544
  15   2.0000      -0.373570       -10.1654
  16   2.0000      -0.352065        -9.5802
  17   2.0000      -0.336331        -9.1520
  18   2.0000      -0.330664        -8.9978
  19   2.0000      -0.315695        -8.5905
  20   2.0000      -0.293459        -7.9854
  21   2.0000      -0.289885        -7.8882
  22   2.0000      -0.276092        -7.5128
  23   2.0000      -0.214528        -5.8376
  24   0.0000      -0.005654        -0.1539
  25   0.0000       0.038136         1.0377
  26   0.0000       0.058675         1.5966
  27   0.0000       0.076509         2.0819
  28   0.0000       0.085217         2.3189

MULLIKEN ATOMIC CHARGES
-----------------------
   0 C :   -0.253159
   1 C :   -0.209382
   2 C :   -0.133717
   3 C :   -0.082800
   4 C :   -0.230049
   5 C :   -0.222181
   6 H :    0.101982
   7 H :    0.095973
   8 H :    0.096087
   9 H :    0.095044
  10 H :    0.095160
  11 H :    0.086454
  12 H :    0.086392
  13 H :    0.077218
  14 H :    0.088300
  15 H :    0.105938
  16 H :    0.096783
  17 H :    0.105957
Sum of atomic charges:    0.0000000

LOEWDIN ATOMIC CHARGES
----------------------
   0 C :   -0.338068
   1 C :   -0.234564
   2 C :   -0.215921
   3 C :   -0.060976
   4 C :   -0.274093
   5 C :   -0.322735
   6 H :    0.118960
   7 H :    0.116258
   8 H :    0.116289
   9 H :    0.117939
  10 H :    0.117952
  11 H :    0.124414
  12 H :    0.124367
  13 H :    0.117037
  14 H :    0.117756
  15 H :    0.126344
  16 H :    0.122679
  17 H :    0.126362

  Mayer bond orders larger than 0.100000
B(  0-C ,  1-C ) :   1.1516 B(  0-C ,  6-H ) :   0.9531 B(  0-C ,  7-H ) :   0.9541
B(  0-C ,  8-H ) :   0.9541 B(  1-C ,  2-C ) :   1.1612 B(  1-C ,  9-H ) :   0.9192
B(  1-C , 10-H ) :   0.9193 B(  2-C ,  3-C ) :   1.0515 B(  2-C , 11-H ) :   0.9003
B(  2-C , 12-H ) :   0.9005 B(  3-C ,  4-C ) :   2.0596 B(  3-C ,  5-C ) :   1.1080
B(  4-C , 13-H ) :   0.8997 B(  4-C , 14-H ) :   0.8978 B(  5-C , 15-H ) :   0.9362
B(  5-C , 16-H ) :   0.9423 B(  5-C , 17-H ) :   0.9362

Dispersion correction           -0.013064463
FINAL SINGLE POINT ENERGY      -235.245021131340

DIPOLE MOMENT
-------------

Method             : SCF
Type of density    : Electron Density
Multiplicity       :   1
Irrep              :   0
Energy             :  -235.3032020756522797 Eh
Relativity type    :
Basis              : AO
                                X                 Y                 Z
Electronic contribution:      2.263245952       0.819008693      -0.222007617
Nuclear contribution   :     -2.350164246      -0.998450606       0.270657163
                        -----------------------------------------
Total Dipole Moment    :     -0.086918294      -0.179441913       0.048649545
                        -----------------------------------------
Magnitude (a.u.)       :      0.205233936
Magnitude (Debye)      :      0.521663207

Rotational constants in cm-1:             0.254374             0.060390             0.050638
Rotational constants in MHz :          7625.942506          1810.435166          1518.074926

                             ****ORCA TERMINATED NORMALLY****
TOTAL RUN TIME: 0 days 0 hours 0 minutes 7 seconds 654 msec
