                         Program Version 6.0.0  -   RELEASE  -
|  1> ! pbe def2-sv(p) def2/J RI DEFGRID1 loosescf d4 GCP(DFT/SV(P)) printgap
|  2> %output
|  3>     printlevel normal
|  4> end
|  5> * xyz 0 1
|  6> C -2.1052932234 -0.5739592675 0.648257266
|  7> C -1.3675624954 -0.3444715345 -0.6666120553
|  8> C 0.0410760486 0.2530744155 -0.5229723335
|  9> C -0.0054574425 1.6477064965 0.099692228
| 10> C 0.9713056647 -0.6825280274 0.2588463528
| 11> C 2.4462316927 -0.3311522059 0.0952413131
| 12> H -1.5623465206 -1.2685683899 1.2832564449
| 13> H -2.2402930397 0.3594700515 1.1873097259
| 14> H -3.0884673941 -0.9945526646 0.4493366969
| 15> H -1.9635382388 0.3251968306 -1.2917735004
| 16> H -1.2867028705 -1.2976281155 -1.1955256297
| 17> H 0.4440534731 0.3512265477 -1.5388939937
| 18> H -0.7404914334 2.2656126057 -0.4113209301
| 19> H 0.9615982076 2.1364866318 0.0173743694
| 20> H -0.270016312 1.5928443839 1.1526243985
| 21> H 0.7138921312 -0.650771706 1.3189210558
| 22> H 0.815086578 -1.7054511989 -0.09256396
| 23> H 2.6614714378 0.6522094861 0.5044364914
| 24> H 2.7250213632 -0.3351909394 -0.9563840593
| 25> H 3.0654917814 -1.0575269299 0.6164906832
| 26> *
| 27>
| 28>                          ****END OF INPUT****

CARTESIAN COORDINATES (ANGSTROEM)
---------------------------------
  C     -2.105293   -0.573959    0.648257
  C     -1.367562   -0.344472   -0.666612
  C      0.041076    0.253074   -0.522972
  C     -0.005457    1.647706    0.099692
  C      0.971306   -0.682528    0.258846
  C      2.446232   -0.331152    0.095241
  H     -1.562347   -1.268568    1.283256
  H     -2.240293    0.359470    1.187310
  H     -3.088467   -0.994553    0.449337
  H     -1.963538    0.325197   -1.291774
  H     -1.286703   -1.297628   -1.195526
  H      0.444053    0.351227   -1.538894
  H     -0.740491    2.265613   -0.411321
  H      0.961598    2.136487    0.017374
  H     -0.270016    1.592844    1.152624
  H      0.713892   -0.650772    1.318921
  H      0.815087   -1.705451   -0.092564
  H      2.661471    0.652209    0.504436
  H      2.725021   -0.335191   -0.956384
  H      3.065492   -1.057527    0.616491

 Total Charge           Charge          ....    0
 Multiplicity           Mult            ....    1
 Number of Electrons    NEL             ....   50
 Basis Dimension        Dim             ....  112

ORBITAL ENERGIES
----------------

  NO   OCC          E(Eh)            E(eV)
   0   2.0000      -9.887044      -269.0402
   1   2.0000      -9.877611      -268.7835
   2   2.0000      -9.877191      -268.7720
   3   2.0000      -9.869674      -268.5675
   4   2.0000      -9.868237      -268.5284
   5   2.0000      -9.868166      -268.5264
   6   2.0000      -0.733288       -19.9538
   7   2.0000      -0.669762       -18.2252
   8   2.0000      -0.634214       -17.2579
   9   2.0000      -0.575451       -15.6588
  10   2.0000      -0.540028       -14.6949
  11   2.0000      -0.477776       -13.0009
  12   2.0000      -0.416330       -11.3289
  13   2.0000      -0.403048       -10.9675
  14   2.0000      -0.396248       -10.7824
  15   2.0000      -0.372822       -10.1450
  16   2.0000      -0.341294        -9.2871
  17   2.0000      -0.336907        -9.1677
  18   2.0000      -0.332910        -9.0589
  19   2.0000      -0.320315        -8.7162
  20   2.0000      -0.310481        -8.4486
  21   2.0000      -0.289590        -7.8802
  22   2.0000      -0.272320        -7.4102
  23   2.0000      -0.268579        -7.3084
  24   2.0000      -0.263390        -7.1672
  25   0.0000       0.034010         0.9254
  26   0.0000       0.061098         1.6625
  27   0.0000       0.065371         1.7788
  28   0.0000       0.071082         1.9342
  29   0.0000       0.094633         2.5751

MULLIKEN ATOMIC CHARGES
-----------------------
   0 C :   -0.295861
   1 C :   -0.144046
   2 C :   -0.157354
   3 C :   -0.258656
   4 C :   -0.173996
   5 C :   -0.263912
   6 H :    0.106207
   7 H :    0.102602
   8 H :    0.101046
   9 H :    0.078475
  10 H :    0.078581
  11 H :    0.064417
  12 H :    0.096181
  13 H :    0.102248
  14 H :    0.100257
  15 H :    0.087556
  16 H :    0.079610
  17 H :    0.101227
  18 H :    0.095417
  19 H :    0.100002
Sum of atomic charges:    0.0000000

LOEWDIN ATOMIC CHARGES
----------------------
   0 C :   -0.344289
   1 C :   -0.224847
   2 C :   -0.152726
   3 C :   -0.332008
   4 C :   -0.226581
   5 C :   -0.339755
   6 H :    0.117377
   7 H :    0.116984
   8 H :    0.119813
   9 H :    0.111945
  10 H :    0.111985
  11 H :    0.112285
  12 H :    0.117627
  13 H :    0.117800
  14 H :    0.116418
  15 H :    0.113725
  16 H :    0.113123
  17 H :    0.116209
  18 H :    0.116198
  19 H :    0.118718

  Mayer bond orders larger than 0.100000
B(  0-C ,  1-C ) :   1.1489 B(  0-C ,  6-H ) :   0.9506 B(  0-C ,  7-H ) :   0.9511
B(  0-C ,  8-H ) :   0.9505 B(  1-C ,  2-C ) :   1.0902 B(  1-C ,  9-H ) :   0.9243
B(  1-C , 10-H ) :   0.9221 B(  2-C ,  3-C ) :   1.1041 B(  2-C ,  4-C ) :   1.0797
B(  2-C , 11-H ) :   0.9003 B(  3-C , 12-H ) :   0.9492 B(  3-C , 13-H ) :   0.9461
B(  3-C , 14-H ) :   0.9443 B(  4-C ,  5-C ) :   1.1587 B(  4-C , 15-H ) :   0.9153
B(  4-C , 16-H ) :   0.9251 B(  5-C , 17-H ) :   0.9492 B(  5-C , 18-H ) :   0.9530
B(  5-C , 19-H ) :   0.9514

Dispersion correction           -0.015164686
FINAL SINGLE POINT ENERGY      -236.448337835025

DIPOLE MOMENT
-------------

Method             : SCF
Type of density    : Electron Density
Multiplicity       :   1
Irrep              :   0
Energy             :  -236.5160722830590885 Eh
Relativity type    :
Basis              : AO
                                X                 Y                 Z
Electronic contribution:     -0.210488164      -0.360988543      -0.994733089
Nuclear contribution   :      0.220241932       0.350268660       0.978772102
                        -----------------------------------------
Total Dipole Moment    :      0.009753768      -0.010719883      -0.015960987
                        -----------------------------------------
Magnitude (a.u.)       :      0.021559337
Magnitude (Debye)      :      0.054799479

Rotational constants in cm-1:             0.175707             0.071268             0.060878
Rotational constants in MHz :          5267.561022          2136.550072          1825.071599

                             ****ORCA TERMINATED NORMALLY****
TOTAL RUN TIME: 0 days 0 hours 0 minutes 8 seconds 195 msec
