                         Program Version 6.0.0  -   RELEASE  -
|  1> ! r2scan-3c def2/J RI DEFGRID2 scfconv6 printgap
|  2> %output
|  3>     printlevel normal
|  4> end
|  5> * xyz 0 1
|  6> C -3.0756733803 0.7862331181 0.0730138583
|  7> C -1.5708445394 0.7963207107 -0.1674039298
|  8> C -0.9471453457 -0.5468169378 0.2112889495
|  9> C 0.5422177487 -0.6124925184 0.002554258
| 10> O 1.151311831 -1.6336361697 -0.248623703
| 11> O 1.138217087 0.5646502828 0.1423226713
| 12> C 2.5590204204 0.6062079975 -0.0097528759
| 13> H -3.5084963896 1.7423016784 -0.2081679773
| 14> H -3.5515502807 0.006320295 -0.5164762497
| 15> H -3.2933776867 0.6047364292 1.1225057025
| 16> H -1.1074532898 1.5877672619 0.4219923317
| 17> H -1.3690481815 1.0025562232 -1.21994789
| 18> H -1.3965671422 -1.3642045205 -0.3550214081
| 19> H -1.1244861398 -0.7471037927 1.2715898515
| 20> H 3.033100544 -0.0314610829 0.7373328196
| 21> H 2.8372928804 1.6459080722 0.1298211171
| 22> H 2.838487126 0.2544200189 -1.0034884992
| 23> *
| 24>
| 25>                          ****END OF INPUT****

CARTESIAN COORDINATES (ANGSTROEM)
---------------------------------
  C     -3.075673    0.786233    0.073014
  C     -1.570845    0.796321   -0.167404
  C     -0.947145   -0.546817    0.211289
  C      0.542218   -0.612493    0.002554
  O      1.151312   -1.633636   -0.248624
  O      1.138217    0.564650    0.142323
  C      2.559020    0.606208   -0.009753
  H     -3.508496    1.742302   -0.208168
  H     -3.551550    0.006320   -0.516476
  H     -3.293378    0.604736    1.122506
  H     -1.107453    1.587767    0.421992
  H     -1.369048    1.002556   -1.219948
  H     -1.396567   -1.364205   -0.355021
  H     -1.124486   -0.747104    1.271590
  H      3.033101   -0.031461    0.737333
  H      2.837293    1.645908    0.129821
  H      2.838487    0.254420   -1.003488

 Total Charge           Charge          ....    0
 Multiplicity           Mult            ....    1
 Number of Electrons    NEL             ....   56
 Basis Dimension        Dim             ....  193

ORBITAL ENERGIES
----------------

  NO   OCC          E(Eh)            E(eV)
   0   2.0000     -19.000837      -517.0391
   1   2.0000     -18.926937      -515.0281
   2   2.0000     -10.152344      -276.2593
   3   2.0000     -10.087901      -274.5057
   4   2.0000     -10.043642      -273.3014
   5   2.0000     -10.034488      -273.0523
   6   2.0000     -10.022706      -272.7317
   7   2.0000      -1.074620       -29.2419
   8   2.0000      -0.974242       -26.5105
   9   2.0000      -0.774125       -21.0650
  10   2.0000      -0.710753       -19.3406
  11   2.0000      -0.662968       -18.0403
  12   2.0000      -0.572430       -15.5766
  13   2.0000      -0.536752       -14.6058
  14   2.0000      -0.470505       -12.8031
  15   2.0000      -0.463185       -12.6039
  16   2.0000      -0.441230       -12.0065
  17   2.0000      -0.428908       -11.6712
  18   2.0000      -0.397097       -10.8056
  19   2.0000      -0.385210       -10.4821
  20   2.0000      -0.371053       -10.0969
  21   2.0000      -0.347151        -9.4464
  22   2.0000      -0.336083        -9.1453
  23   2.0000      -0.325453        -8.8560
  24   2.0000      -0.313918        -8.5421
  25   2.0000      -0.304887        -8.2964
  26   2.0000      -0.274275        -7.4634
  27   2.0000      -0.232645        -6.3306
  28   0.0000      -0.014588        -0.3970
  29   0.0000       0.063069         1.7162
  30   0.0000       0.097018         2.6400
  31   0.0000       0.102911         2.8004
  32   0.0000       0.124026         3.3749

MULLIKEN ATOMIC CHARGES
-----------------------
   0 C :   -0.465628
   1 C :   -0.234642
   2 C :   -0.329402
   3 C :    0.361285
   4 O :   -0.415869
   5 O :   -0.166754
   6 C :   -0.292771
   7 H :    0.149154
   8 H :    0.142947
   9 H :    0.142054
  10 H :    0.154851
  11 H :    0.142466
  12 H :    0.168744
  13 H :    0.169521
  14 H :    0.161380
  15 H :    0.150223
  16 H :    0.162440
Sum of atomic charges:   -0.0000000

LOEWDIN ATOMIC CHARGES
----------------------
   0 C :   -0.421680
   1 C :   -0.296188
   2 C :   -0.228722
   3 C :    0.356092
   4 O :   -0.425541
   5 O :   -0.611501
   6 C :   -0.042212
   7 H :    0.152403
   8 H :    0.150843
   9 H :    0.150437
  10 H :    0.165467
  11 H :    0.156794
  12 H :    0.180701
  13 H :    0.182742
  14 H :    0.176956
  15 H :    0.175790
  16 H :    0.177621

  Mayer bond orders larger than 0.100000
B(  0-C ,  1-C ) :   0.8883 B(  0-C ,  7-H ) :   0.9736 B(  0-C ,  8-H ) :   0.9796
B(  0-C ,  9-H ) :   0.9855 B(  1-C ,  2-C ) :   0.9217 B(  1-C , 10-H ) :   0.9635
B(  1-C , 11-H ) :   0.9649 B(  2-C ,  3-C ) :   1.0123 B(  2-C , 12-H ) :   0.9790
B(  2-C , 13-H ) :   0.9344 B(  3-C ,  4-O ) :   1.8350 B(  3-C ,  5-O ) :   1.0611
B(  5-O ,  6-C ) :   0.8496 B(  6-C , 14-H ) :   0.9624 B(  6-C , 15-H ) :   0.9700
B(  6-C , 16-H ) :   0.9619

Dispersion correction           -0.003962007
FINAL SINGLE POINT ENERGY      -346.930718923074

DIPOLE MOMENT
-------------

Method             : SCF
Type of density    : Electron Density
Multiplicity       :   1
Irrep              :   0
Energy             :  -346.9374244227871600 Eh
Relativity type    :
Basis              : AO
                                X                 Y                 Z
Electronic contribution:      6.046215187      -3.550029008      -0.192661376
Nuclear contribution   :     -6.197454103       4.394700768       0.355058655
                        -----------------------------------------
Total Dipole Moment    :     -0.151238916       0.844671761       0.162397279
                        -----------------------------------------
Magnitude (a.u.)       :      0.873336401
Magnitude (Debye)      :      2.219844717

Rotational constants in cm-1:             0.190941             0.046468             0.038847
Rotational constants in MHz :          5724.277541          1393.087167          1164.610823

                             ****ORCA TERMINATED NORMALLY****
TOTAL RUN TIME: 0 days 0 hours 0 minutes 24 seconds 866 msec
