                         Program Version 6.0.0  -   RELEASE  -
|  1> ! r2scan-3c def2/J RI DEFGRID2 scfconv6 printgap
|  2> %output
|  3>     printlevel normal
|  4> end
|  5> %cpcm
|  6>     smd true
|  7>     smdsolvent "water"
|  8> end
|  9> * xyz 0 1
| 10> C -3.0756733803 0.7862331181 0.0730138583
| 11> C -1.5708445394 0.7963207107 -0.1674039298
| 12> C -0.9471453457 -0.5468169378 0.2112889495
| 13> C 0.5422177487 -0.6124925184 0.002554258
| 14> O 1.151311831 -1.6336361697 -0.248623703
| 15> O 1.138217087 0.5646502828 0.1423226713
| 16> C 2.5590204204 0.6062079975 -0.0097528759
| 17> H -3.5084963896 1.7423016784 -0.2081679773
| 18> H -3.5515502807 0.006320295 -0.5164762497
| 19> H -3.2933776867 0.6047364292 1.1225057025
| 20> H -1.1074532898 1.5877672619 0.4219923317
| 21> H -1.3690481815 1.0025562232 -1.21994789
| 22> H -1.3965671422 -1.3642045205 -0.3550214081
| 23> H -1.1244861398 -0.7471037927 1.2715898515
| 24> H 3.033100544 -0.0314610829 0.7373328196
| 25> H 2.8372928804 1.6459080722 0.1298211171
| 26> H 2.838487126 0.2544200189 -1.0034884992
| 27> *
| 28>
| 29>                          ****END OF INPUT****

CARTESIAN COORDINATES (ANGSTROEM)
---------------------------------
  C     -3.075673    0.786233    0.073014
  C     -1.570845    0.796321   -0.167404
  C     -0.947145   -0.546817    0.211289
  C      0.542218   -0.612493    0.002554
  O      1.151312   -1.633636   -0.248624
  O      1.138217    0.564650    0.142323
  C      2.559020    0.606208   -0.009753
  H     -3.508496    1.742302   -0.208168
  H     -3.551550    0.006320   -0.516476
  H     -3.293378    0.604736    1.122506
  H     -1.107453    1.587767    0.421992
  H     -1.369048    1.002556   -1.219948
  H     -1.396567   -1.364205   -0.355021
  H     -1.124486   -0.747104    1.271590
  H      3.033101   -0.031461    0.737333
  H      2.837293    1.645908    0.129821
  H      2.838487    0.254420   -1.003488

 Total Charge           Charge          ....    0
 Multiplicity           Mult            ....    1
 Number of Electrons    NEL             ....   56
 Basis Dimension        Dim             ....  193

ORBITAL ENERGIES
----------------

  NO   OCC          E(Eh)            E(eV)
   0   2.0000     -19.005083      -517.1546
   1   2.0000     -18.942893      -515.4623
   2   2.0000     -10.162524      -276.5363
   3   2.0000     -10.076925      -274.2071
   4   2.0000     -10.036423      -273.1050
   5   2.0000     -10.025067      -272.7959
   6   2.0000     -10.010590      -272.4020
   7   2.0000      -1.080693       -29.4071
   8   2.0000      -0.987894       -26.8820
   9   2.0000      -0.766926       -20.8691
  10   2.0000      -0.704378       -19.1671
  11   2.0000      -0.654997       -17.8234
  12   2.0000      -0.564396       -15.3580
  13   2.0000      -0.533546       -14.5185
  14   2.0000      -0.468703       -12.7540
  15   2.0000      -0.461700       -12.5635
  16   2.0000      -0.450659       -12.2631
  17   2.0000      -0.424720       -11.5572
  18   2.0000      -0.393081       -10.6963
  19   2.0000      -0.378701       -10.3050
  20   2.0000      -0.362921        -9.8756
  21   2.0000      -0.342726        -9.3261
  22   2.0000      -0.332051        -9.0356
  23   2.0000      -0.323862        -8.8127
  24   2.0000      -0.306295        -8.3347
  25   2.0000      -0.295492        -8.0408
  26   2.0000      -0.281605        -7.6629
  27   2.0000      -0.248586        -6.7644
  28   0.0000      -0.021943        -0.5971
  29   0.0000       0.069416         1.8889
  30   0.0000       0.104662         2.8480
  31   0.0000       0.114508         3.1159
  32   0.0000       0.134202         3.6518

MULLIKEN ATOMIC CHARGES
-----------------------
   0 C :   -0.513652
   1 C :   -0.237649
   2 C :   -0.345500
   3 C :    0.411412
   4 O :   -0.508277
   5 O :   -0.180335
   6 C :   -0.328241
   7 H :    0.159560
   8 H :    0.156151
   9 H :    0.156720
  10 H :    0.156936
  11 H :    0.157221
  12 H :    0.179963
  13 H :    0.200609
  14 H :    0.178200
  15 H :    0.178682
  16 H :    0.178201
Sum of atomic charges:   -0.0000000

LOEWDIN ATOMIC CHARGES
----------------------
   0 C :   -0.427415
   1 C :   -0.294610
   2 C :   -0.226965
   3 C :    0.367451
   4 O :   -0.491093
   5 O :   -0.611013
   6 C :   -0.040003
   7 H :    0.155071
   8 H :    0.154376
   9 H :    0.154404
  10 H :    0.165500
  11 H :    0.160366
  12 H :    0.185496
  13 H :    0.195221
  14 H :    0.182343
  15 H :    0.188191
  16 H :    0.182679

  Mayer bond orders larger than 0.100000
B(  0-C ,  1-C ) :   0.8822 B(  0-C ,  7-H ) :   0.9704 B(  0-C ,  8-H ) :   0.9777
B(  0-C ,  9-H ) :   0.9831 B(  1-C ,  2-C ) :   0.9104 B(  1-C , 10-H ) :   0.9622
B(  1-C , 11-H ) :   0.9660 B(  2-C ,  3-C ) :   1.0138 B(  2-C , 12-H ) :   0.9773
B(  2-C , 13-H ) :   0.9176 B(  3-C ,  4-O ) :   1.7660 B(  3-C ,  5-O ) :   1.0921
B(  5-O ,  6-C ) :   0.8289 B(  6-C , 14-H ) :   0.9572 B(  6-C , 15-H ) :   0.9600
B(  6-C , 16-H ) :   0.9566

Dispersion correction           -0.003962007
FINAL SINGLE POINT ENERGY      -346.936216226417

DIPOLE MOMENT
-------------

Method             : SCF
Type of density    : Electron Density
Multiplicity       :   1
Irrep              :   0
Energy             :  -346.9429217261302369 Eh
Relativity type    :
Basis              : AO
                                X                 Y                 Z
Electronic contribution:      5.945952800      -3.250480736      -0.108806151
Nuclear contribution   :     -6.197454103       4.394700768       0.355058655
                        -----------------------------------------
Total Dipole Moment    :     -0.251501303       1.144220033       0.246252504
                        -----------------------------------------
Magnitude (a.u.)       :      1.197135199
Magnitude (Debye)      :      3.042875854

Rotational constants in cm-1:             0.190941             0.046468             0.038847
Rotational constants in MHz :          5724.277541          1393.087167          1164.610823

                             ****ORCA TERMINATED NORMALLY****
TOTAL RUN TIME: 0 days 0 hours 0 minutes 30 seconds 742 msec
