                         Program Version 6.0.0  -   RELEASE  -
|  1> ! r2scan-3c def2/J RI DEFGRID2 scfconv6 printgap
|  2> %output
|  3>     printlevel normal
|  4> end
|  5> * xyz 0 1
|  6> C -2.127346559 1.1649236256 0.1701085927
|  7> C -1.0850164321 0.047268609 0.2084019109
|  8> C -1.7741868357 -1.3019040187 0.0069397046
|  9> C 0.0049467141 0.2861448873 -0.8532392109
| 10> C 1.4542482729 0.0713213789 -0.3891307891
| 11> C 1.8734501199 1.1060439564 0.6542781546
| 12> C 1.7010412607 -1.3435135997 0.1292237048
| 13> H -1.6659025544 2.128103777 0.3757347314
| 14> H -2.5989783241 1.2092722969 -0.8095435731
| 15> H -2.9013592651 0.9907913713 0.9146140646
| 16> H -0.6287141408 0.0518126225 1.2023767098
| 17> H -2.2898882947 -1.3216842529 -0.9513038607
| 18> H -1.0544069484 -2.1152059642 0.0266763063
| 19> H -2.5077828547 -1.4748694268 0.7918536576
| 20> H -0.0704922583 1.3139814983 -1.2152474914
| 21> H -0.1842744601 -0.367490146 -1.707627191
| 22> H 2.0885592976 0.2179345761 -1.2724607202
| 23> H 1.300255491 0.9935541126 1.571078885
| 24> H 2.9267556786 0.988191131 0.8984642801
| 25> H 1.7197645852 2.113869559 0.275374843
| 26> H 1.4167694283 -2.0796188072 -0.6192384214
| 27> H 2.7559370551 -1.4795593606 0.3578382196
| 28> H 1.1320381566 -1.5299830759 1.0363205492
| 29> *
| 30>
| 31>                          ****END OF INPUT****

CARTESIAN COORDINATES (ANGSTROEM)
---------------------------------
  C     -2.127347    1.164924    0.170109
  C     -1.085016    0.047269    0.208402
  C     -1.774187   -1.301904    0.006940
  C      0.004947    0.286145   -0.853239
  C      1.454248    0.071321   -0.389131
  C      1.873450    1.106044    0.654278
  C      1.701041   -1.343514    0.129224
  H     -1.665903    2.128104    0.375735
  H     -2.598978    1.209272   -0.809544
  H     -2.901359    0.990791    0.914614
  H     -0.628714    0.051813    1.202377
  H     -2.289888   -1.321684   -0.951304
  H     -1.054407   -2.115206    0.026676
  H     -2.507783   -1.474869    0.791854
  H     -0.070492    1.313981   -1.215247
  H     -0.184274   -0.367490   -1.707627
  H      2.088559    0.217935   -1.272461
  H      1.300255    0.993554    1.571079
  H      2.926756    0.988191    0.898464
  H      1.719765    2.113870    0.275375
  H      1.416769   -2.079619   -0.619238
  H      2.755937   -1.479559    0.357838
  H      1.132038   -1.529983    1.036321

 Total Charge           Charge          ....    0
 Multiplicity           Mult            ....    1
 Number of Electrons    NEL             ....   58
 Basis Dimension        Dim             ....  213

ORBITAL ENERGIES
----------------

  NO   OCC          E(Eh)            E(eV)
   0   2.0000     -10.030848      -272.9533
   1   2.0000     -10.029009      -272.9032
   2   2.0000     -10.016548      -272.5641
   3   2.0000     -10.012799      -272.4621
   4   2.0000     -10.012451      -272.4526
   5   2.0000     -10.012029      -272.4412
   6   2.0000     -10.011438      -272.4251
   7   2.0000      -0.785460       -21.3735
   8   2.0000      -0.741493       -20.1770
   9   2.0000      -0.651286       -17.7224
  10   2.0000      -0.643072       -17.4989
  11   2.0000      -0.641277       -17.4500
  12   2.0000      -0.546985       -14.8842
  13   2.0000      -0.505230       -13.7480
  14   2.0000      -0.437632       -11.9086
  15   2.0000      -0.417270       -11.3545
  16   2.0000      -0.410251       -11.1635
  17   2.0000      -0.392737       -10.6869
  18   2.0000      -0.384086       -10.4515
  19   2.0000      -0.366860        -9.9828
  20   2.0000      -0.350672        -9.5423
  21   2.0000      -0.346174        -9.4199
  22   2.0000      -0.325705        -8.8629
  23   2.0000      -0.322926        -8.7873
  24   2.0000      -0.308800        -8.4029
  25   2.0000      -0.299405        -8.1472
  26   2.0000      -0.282277        -7.6811
  27   2.0000      -0.276766        -7.5312
  28   2.0000      -0.268919        -7.3177
  29   0.0000       0.076672         2.0864
  30   0.0000       0.102496         2.7891
  31   0.0000       0.115732         3.1492
  32   0.0000       0.118618         3.2278
  33   0.0000       0.127765         3.4767

MULLIKEN ATOMIC CHARGES
-----------------------
   0 C :   -0.505287
   1 C :    0.005980
   2 C :   -0.520940
   3 C :   -0.339247
   4 C :   -0.024375
   5 C :   -0.495265
   6 C :   -0.512529
   7 H :    0.148290
   8 H :    0.150477
   9 H :    0.141998
  10 H :    0.149570
  11 H :    0.152377
  12 H :    0.154491
  13 H :    0.144051
  14 H :    0.155309
  15 H :    0.155004
  16 H :    0.145949
  17 H :    0.147039
  18 H :    0.145242
  19 H :    0.147960
  20 H :    0.152966
  21 H :    0.145097
  22 H :    0.155841
Sum of atomic charges:    0.0000000

LOEWDIN ATOMIC CHARGES
----------------------
   0 C :   -0.417351
   1 C :   -0.249572
   2 C :   -0.417991
   3 C :   -0.296708
   4 C :   -0.242522
   5 C :   -0.419057
   6 C :   -0.419326
   7 H :    0.151929
   8 H :    0.153729
   9 H :    0.151244
  10 H :    0.153695
  11 H :    0.152599
  12 H :    0.154266
  13 H :    0.151610
  14 H :    0.160561
  15 H :    0.161471
  16 H :    0.154834
  17 H :    0.150742
  18 H :    0.153120
  19 H :    0.153376
  20 H :    0.153552
  21 H :    0.152777
  22 H :    0.153022

  Mayer bond orders larger than 0.100000
B(  0-C ,  1-C ) :   0.8841 B(  0-C ,  7-H ) :   0.9811 B(  0-C ,  8-H ) :   0.9866
B(  0-C ,  9-H ) :   0.9770 B(  1-C ,  2-C ) :   0.8920 B(  1-C ,  3-C ) :   0.7993
B(  1-C , 10-H ) :   0.9706 B(  2-C , 11-H ) :   0.9911 B(  2-C , 12-H ) :   0.9706
B(  2-C , 13-H ) :   0.9777 B(  3-C ,  4-C ) :   0.8947 B(  3-C , 14-H ) :   0.9955
B(  3-C , 15-H ) :   0.9761 B(  4-C ,  5-C ) :   0.9344 B(  4-C ,  6-C ) :   0.8834
B(  4-C , 16-H ) :   0.9731 B(  5-C , 17-H ) :   0.9779 B(  5-C , 18-H ) :   0.9727
B(  5-C , 19-H ) :   0.9770 B(  6-C , 20-H ) :   0.9767 B(  6-C , 21-H ) :   0.9697
B(  6-C , 22-H ) :   0.9773

Dispersion correction           -0.006503718
FINAL SINGLE POINT ENERGY      -276.285111300526

DIPOLE MOMENT
-------------

Method             : SCF
Type of density    : Electron Density
Multiplicity       :   1
Irrep              :   0
Energy             :  -276.2897072127281035 Eh
Relativity type    :
Basis              : AO
                                X                 Y                 Z
Electronic contribution:      0.585370998       0.346531356      -0.837043385
Nuclear contribution   :     -0.526983487      -0.338582546       0.820807750
                        -----------------------------------------
Total Dipole Moment    :      0.058387512       0.007948810      -0.016235635
                        -----------------------------------------
Magnitude (a.u.)       :      0.061121853
Magnitude (Debye)      :      0.155359404

Rotational constants in cm-1:             0.121188             0.056115             0.044783
Rotational constants in MHz :          3633.138632          1682.289769          1342.575246

                             ****ORCA TERMINATED NORMALLY****
TOTAL RUN TIME: 0 days 0 hours 0 minutes 23 seconds 933 msec
