                         Program Version 6.0.0  -   RELEASE  -
|  1> ! r2scan-3c def2/J RI DEFGRID2 scfconv6 printgap
|  2> %output
|  3>     printlevel normal
|  4> end
|  5> %cpcm
|  6>     smd true
|  7>     smdsolvent "water"
|  8> end
|  9> * xyz 0 1
| 10> C -2.127346559 1.1649236256 0.1701085927
| 11> C -1.0850164321 0.047268609 0.2084019109
| 12> C -1.7741868357 -1.3019040187 0.0069397046
| 13> C 0.0049467141 0.2861448873 -0.8532392109
| 14> C 1.4542482729 0.0713213789 -0.3891307891
| 15> C 1.8734501199 1.1060439564 0.6542781546
| 16> C 1.7010412607 -1.3435135997 0.1292237048
| 17> H -1.6659025544 2.128103777 0.3757347314
| 18> H -2.5989783241 1.2092722969 -0.8095435731
| 19> H -2.9013592651 0.9907913713 0.9146140646
| 20> H -0.6287141408 0.0518126225 1.2023767098
| 21> H -2.2898882947 -1.3216842529 -0.9513038607
| 22> H -1.0544069484 -2.1152059642 0.0266763063
| 23> H -2.5077828547 -1.4748694268 0.7918536576
| 24> H -0.0704922583 1.3139814983 -1.2152474914
| 25> H -0.1842744601 -0.367490146 -1.707627191
| 26> H 2.0885592976 0.2179345761 -1.2724607202
| 27> H 1.300255491 0.9935541126 1.571078885
| 28> H 2.9267556786 0.988191131 0.8984642801
| 29> H 1.7197645852 2.113869559 0.275374843
| 30> H 1.4167694283 -2.0796188072 -0.6192384214
| 31> H 2.7559370551 -1.4795593606 0.3578382196
| 32> H 1.1320381566 -1.5299830759 1.0363205492
| 33> *
| 34>
| 35>                          ****END OF INPUT****

CARTESIAN COORDINATES (ANGSTROEM)
---------------------------------
  C     -2.127347    1.164924    0.170109
  C     -1.085016    0.047269    0.208402
  C     -1.774187   -1.301904    0.006940
  C      0.004947    0.286145   -0.853239
  C      1.454248    0.071321   -0.389131
  C      1.873450    1.106044    0.654278
  C      1.701041   -1.343514    0.129224
  H     -1.665903    2.128104    0.375735
  H     -2.598978    1.209272   -0.809544
  H     -2.901359    0.990791    0.914614
  H     -0.628714    0.051813    1.202377
  H     -2.289888   -1.321684   -0.951304
  H     -1.054407   -2.115206    0.026676
  H     -2.507783   -1.474869    0.791854
  H     -0.070492    1.313981   -1.215247
  H     -0.184274   -0.367490   -1.707627
  H      2.088559    0.217935   -1.272461
  H      1.300255    0.993554    1.571079
  H      2.926756    0.988191    0.898464
  H      1.719765    2.113870    0.275375
  H      1.416769   -2.079619   -0.619238
  H      2.755937   -1.479559    0.357838
  H      1.132038   -1.529983    1.036321

 Total Charge           Charge          ....    0
 Multiplicity           Mult            ....    1
 Number of Electrons    NEL             ....   58
 Basis Dimension        Dim             ....  213

ORBITAL ENERGIES
----------------

  NO   OCC          E(Eh)            E(eV)
   0   2.0000     -10.023049      -272.7410
   1   2.0000     -10.021165      -272.6898
   2   2.0000     -10.008511      -272.3454
   3   2.0000     -10.004863      -272.2462
   4   2.0000     -10.004394      -272.2334
   5   2.0000     -10.004320      -272.2314
   6   2.0000     -10.004115      -272.2258
   7   2.0000      -0.777668       -21.1614
   8   2.0000      -0.733960       -19.9721
   9   2.0000      -0.644045       -17.5254
  10   2.0000      -0.636077       -17.3085
  11   2.0000      -0.633917       -17.2498
  12   2.0000      -0.539534       -14.6815
  13   2.0000      -0.497629       -13.5412
  14   2.0000      -0.429899       -11.6982
  15   2.0000      -0.409609       -11.1460
  16   2.0000      -0.402609       -10.9556
  17   2.0000      -0.385539       -10.4911
  18   2.0000      -0.376451       -10.2437
  19   2.0000      -0.359365        -9.7788
  20   2.0000      -0.343622        -9.3504
  21   2.0000      -0.338295        -9.2055
  22   2.0000      -0.318137        -8.6570
  23   2.0000      -0.315144        -8.5755
  24   2.0000      -0.300992        -8.1904
  25   2.0000      -0.292094        -7.9483
  26   2.0000      -0.274658        -7.4738
  27   2.0000      -0.268851        -7.3158
  28   2.0000      -0.261038        -7.1032
  29   0.0000       0.085057         2.3145
  30   0.0000       0.110245         2.9999
  31   0.0000       0.124511         3.3881
  32   0.0000       0.125279         3.4090
  33   0.0000       0.134698         3.6653

MULLIKEN ATOMIC CHARGES
-----------------------
   0 C :   -0.545235
   1 C :    0.018928
   2 C :   -0.562413
   3 C :   -0.355213
   4 C :   -0.008175
   5 C :   -0.541480
   6 C :   -0.549058
   7 H :    0.157616
   8 H :    0.159667
   9 H :    0.152621
  10 H :    0.162657
  11 H :    0.162540
  12 H :    0.161852
  13 H :    0.154499
  14 H :    0.160966
  15 H :    0.161521
  16 H :    0.151302
  17 H :    0.160276
  18 H :    0.156025
  19 H :    0.158126
  20 H :    0.161711
  21 H :    0.155327
  22 H :    0.165942
Sum of atomic charges:    0.0000000

LOEWDIN ATOMIC CHARGES
----------------------
   0 C :   -0.426095
   1 C :   -0.248047
   2 C :   -0.426299
   3 C :   -0.299546
   4 C :   -0.240717
   5 C :   -0.428060
   6 C :   -0.427007
   7 H :    0.153953
   8 H :    0.155483
   9 H :    0.153230
  10 H :    0.157638
  11 H :    0.154701
  12 H :    0.155813
  13 H :    0.153529
  14 H :    0.161863
  15 H :    0.162772
  16 H :    0.156271
  17 H :    0.153850
  18 H :    0.155199
  19 H :    0.155485
  20 H :    0.155811
  21 H :    0.154498
  22 H :    0.155673

  Mayer bond orders larger than 0.100000
B(  0-C ,  1-C ) :   0.8753 B(  0-C ,  7-H ) :   0.9781 B(  0-C ,  8-H ) :   0.9844
B(  0-C ,  9-H ) :   0.9759 B(  1-C ,  2-C ) :   0.8834 B(  1-C ,  3-C ) :   0.7966
B(  1-C , 10-H ) :   0.9703 B(  2-C , 11-H ) :   0.9888 B(  2-C , 12-H ) :   0.9694
B(  2-C , 13-H ) :   0.9763 B(  3-C ,  4-C ) :   0.8924 B(  3-C , 14-H ) :   0.9943
B(  3-C , 15-H ) :   0.9757 B(  4-C ,  5-C ) :   0.9239 B(  4-C ,  6-C ) :   0.8779
B(  4-C , 16-H ) :   0.9742 B(  5-C , 17-H ) :   0.9764 B(  5-C , 18-H ) :   0.9711
B(  5-C , 19-H ) :   0.9744 B(  6-C , 20-H ) :   0.9734 B(  6-C , 21-H ) :   0.9686
B(  6-C , 22-H ) :   0.9757

Dispersion correction           -0.006503718
FINAL SINGLE POINT ENERGY      -276.281264787890

DIPOLE MOMENT
-------------

Method             : SCF
Type of density    : Electron Density
Multiplicity       :   1
Irrep              :   0
Energy             :  -276.2858607000927122 Eh
Relativity type    :
Basis              : AO
                                X                 Y                 Z
Electronic contribution:      0.598700264       0.346026380      -0.830176395
Nuclear contribution   :     -0.526983487      -0.338582546       0.820807750
                        -----------------------------------------
Total Dipole Moment    :      0.071716778       0.007443835      -0.009368645
                        -----------------------------------------
Magnitude (a.u.)       :      0.072708173
Magnitude (Debye)      :      0.184809488

Rotational constants in cm-1:             0.121188             0.056115             0.044783
Rotational constants in MHz :          3633.138632          1682.289769          1342.575246

                             ****ORCA TERMINATED NORMALLY****
TOTAL RUN TIME: 0 days 0 hours 0 minutes 28 seconds 27 msec
