                         Program Version 6.0.0  -   RELEASE  -
|  1> ! r2scan-3c def2/J RI DEFGRID2 scfconv6 printgap
|  2> %output
|  3>     printlevel normal
|  4> end
|  5> * xyz 0 1
|  6> C -1.6479897811 -1.2523939779 -0.5903194013
|  7> C -1.3909811276 0.0102136942 0.2237591586
|  8> C -0.0091371646 0.6330453662 -0.0113545894
|  9> C 0.0726527464 1.9696560353 0.7278340999
| 10> C 1.1376983986 -0.2968161496 0.4282170537
| 11> C 1.820669546 -1.0038409575 -0.7383639498
| 12> H -2.6691997362 -1.5943753208 -0.4371478625
| 13> H -1.5086892425 -1.0559857585 -1.6512461935
| 14> H -0.9759931808 -2.0531031137 -0.2937440318
| 15> H -1.5023881159 -0.215515288 1.2872959185
| 16> H -2.1511072272 0.7518274835 -0.03450194
| 17> H 0.0959835543 0.832093964 -1.0836680359
| 18> H 1.0235997614 2.4589683657 0.5304965134
| 19> H -0.0200968671 1.8142813041 1.8007790136
| 20> H -0.7262811205 2.6351380439 0.4080593919
| 21> H 1.8912875613 0.2895949027 0.9581016803
| 22> H 0.757430055 -1.0396876361 1.1319935502
| 23> H 2.6136197026 -1.6535893209 -0.3740872222
| 24> H 2.2613593639 -0.2752042761 -1.4155571089
| 25> H 1.1141033798 -1.6078341955 -1.3007353305
| 26> *
| 27>
| 28>                          ****END OF INPUT****

CARTESIAN COORDINATES (ANGSTROEM)
---------------------------------
  C     -1.647990   -1.252394   -0.590319
  C     -1.390981    0.010214    0.223759
  C     -0.009137    0.633045   -0.011355
  C      0.072653    1.969656    0.727834
  C      1.137698   -0.296816    0.428217
  C      1.820670   -1.003841   -0.738364
  H     -2.669200   -1.594375   -0.437148
  H     -1.508689   -1.055986   -1.651246
  H     -0.975993   -2.053103   -0.293744
  H     -1.502388   -0.215515    1.287296
  H     -2.151107    0.751827   -0.034502
  H      0.095984    0.832094   -1.083668
  H      1.023600    2.458968    0.530497
  H     -0.020097    1.814281    1.800779
  H     -0.726281    2.635138    0.408059
  H      1.891288    0.289595    0.958102
  H      0.757430   -1.039688    1.131994
  H      2.613620   -1.653589   -0.374087
  H      2.261359   -0.275204   -1.415557
  H      1.114103   -1.607834   -1.300735

 Total Charge           Charge          ....    0
 Multiplicity           Mult            ....    1
 Number of Electrons    NEL             ....   50
 Basis Dimension        Dim             ....  184

ORBITAL ENERGIES
----------------

  NO   OCC          E(Eh)            E(eV)
   0   2.0000     -10.027042      -272.8497
   1   2.0000     -10.020373      -272.6682
   2   2.0000     -10.019785      -272.6522
   3   2.0000     -10.013737      -272.4876
   4   2.0000     -10.013323      -272.4764
   5   2.0000     -10.011696      -272.4321
   6   2.0000      -0.779991       -21.2246
   7   2.0000      -0.712000       -19.3745
   8   2.0000      -0.685274       -18.6473
   9   2.0000      -0.599702       -16.3187
  10   2.0000      -0.574524       -15.6336
  11   2.0000      -0.521835       -14.1999
  12   2.0000      -0.435364       -11.8469
  13   2.0000      -0.415977       -11.3193
  14   2.0000      -0.398587       -10.8461
  15   2.0000      -0.381490       -10.3809
  16   2.0000      -0.372214       -10.1284
  17   2.0000      -0.366888        -9.9835
  18   2.0000      -0.338936        -9.2229
  19   2.0000      -0.328171        -8.9300
  20   2.0000      -0.315641        -8.5890
  21   2.0000      -0.304350        -8.2818
  22   2.0000      -0.285727        -7.7750
  23   2.0000      -0.278525        -7.5791
  24   2.0000      -0.273218        -7.4346
  25   0.0000       0.087934         2.3928
  26   0.0000       0.100430         2.7328
  27   0.0000       0.117455         3.1961
  28   0.0000       0.120279         3.2730
  29   0.0000       0.128009         3.4833

MULLIKEN ATOMIC CHARGES
-----------------------
   0 C :   -0.509058
   1 C :   -0.277859
   2 C :    0.000902
   3 C :   -0.495779
   4 C :   -0.290117
   5 C :   -0.490694
   6 H :    0.146649
   7 H :    0.151963
   8 H :    0.152335
   9 H :    0.149318
  10 H :    0.135383
  11 H :    0.152859
  12 H :    0.147624
  13 H :    0.147059
  14 H :    0.141950
  15 H :    0.146743
  16 H :    0.148504
  17 H :    0.143817
  18 H :    0.147401
  19 H :    0.151001
Sum of atomic charges:   -0.0000000

LOEWDIN ATOMIC CHARGES
----------------------
   0 C :   -0.425973
   1 C :   -0.309218
   2 C :   -0.242746
   3 C :   -0.417254
   4 C :   -0.310840
   5 C :   -0.423353
   6 H :    0.150104
   7 H :    0.150452
   8 H :    0.150031
   9 H :    0.153698
  10 H :    0.152976
  11 H :    0.156030
  12 H :    0.151149
  13 H :    0.154092
  14 H :    0.151204
  15 H :    0.155848
  16 H :    0.155516
  17 H :    0.149014
  18 H :    0.148588
  19 H :    0.150682

  Mayer bond orders larger than 0.100000
B(  0-C ,  1-C ) :   0.8747 B(  0-C ,  6-H ) :   0.9718 B(  0-C ,  7-H ) :   0.9856
B(  0-C ,  8-H ) :   0.9778 B(  1-C ,  2-C ) :   0.8999 B(  1-C ,  9-H ) :   0.9900
B(  1-C , 10-H ) :   0.9754 B(  2-C ,  3-C ) :   0.8973 B(  2-C ,  4-C ) :   0.8135
B(  2-C , 11-H ) :   0.9785 B(  3-C , 12-H ) :   0.9791 B(  3-C , 13-H ) :   0.9831
B(  3-C , 14-H ) :   0.9794 B(  4-C ,  5-C ) :   0.8941 B(  4-C , 15-H ) :   0.9781
B(  4-C , 16-H ) :   0.9726 B(  5-C , 17-H ) :   0.9754 B(  5-C , 18-H ) :   0.9892
B(  5-C , 19-H ) :   0.9723

Dispersion correction           -0.005114025
FINAL SINGLE POINT ENERGY      -236.984472540006

DIPOLE MOMENT
-------------

Method             : SCF
Type of density    : Electron Density
Multiplicity       :   1
Irrep              :   0
Energy             :  -236.9888756792001345 Eh
Relativity type    :
Basis              : AO
                                X                 Y                 Z
Electronic contribution:     -0.202230166       0.673686677       0.440290949
Nuclear contribution   :      0.191035779      -0.669275594      -0.444652426
                        -----------------------------------------
Total Dipole Moment    :     -0.011194387       0.004411083      -0.004361477
                        -----------------------------------------
Magnitude (a.u.)       :      0.012798220
Magnitude (Debye)      :      0.032530490

Rotational constants in cm-1:             0.111487             0.102477             0.059713
Rotational constants in MHz :          3342.298587          3072.196903          1790.151219

                             ****ORCA TERMINATED NORMALLY****
TOTAL RUN TIME: 0 days 0 hours 0 minutes 16 seconds 692 msec
