                         Program Version 6.0.0  -   RELEASE  -
|  1> ! r2scan-3c def2/J RI DEFGRID2 scfconv6 printgap
|  2> %output
|  3>     printlevel normal
|  4> end
|  5> %cpcm
|  6>     smd true
|  7>     smdsolvent "water"
|  8> end
|  9> * xyz 0 1
| 10> C -1.6479897811 -1.2523939779 -0.5903194013
| 11> C -1.3909811276 0.0102136942 0.2237591586
| 12> C -0.0091371646 0.6330453662 -0.0113545894
| 13> C 0.0726527464 1.9696560353 0.7278340999
| 14> C 1.1376983986 -0.2968161496 0.4282170537
| 15> C 1.820669546 -1.0038409575 -0.7383639498
| 16> H -2.6691997362 -1.5943753208 -0.4371478625
| 17> H -1.5086892425 -1.0559857585 -1.6512461935
| 18> H -0.9759931808 -2.0531031137 -0.2937440318
| 19> H -1.5023881159 -0.215515288 1.2872959185
| 20> H -2.1511072272 0.7518274835 -0.03450194
| 21> H 0.0959835543 0.832093964 -1.0836680359
| 22> H 1.0235997614 2.4589683657 0.5304965134
| 23> H -0.0200968671 1.8142813041 1.8007790136
| 24> H -0.7262811205 2.6351380439 0.4080593919
| 25> H 1.8912875613 0.2895949027 0.9581016803
| 26> H 0.757430055 -1.0396876361 1.1319935502
| 27> H 2.6136197026 -1.6535893209 -0.3740872222
| 28> H 2.2613593639 -0.2752042761 -1.4155571089
| 29> H 1.1141033798 -1.6078341955 -1.3007353305
| 30> *
| 31>
| 32>                          ****END OF INPUT****

CARTESIAN COORDINATES (ANGSTROEM)
---------------------------------
  C     -1.647990   -1.252394   -0.590319
  C     -1.390981    0.010214    0.223759
  C     -0.009137    0.633045   -0.011355
  C      0.072653    1.969656    0.727834
  C      1.137698   -0.296816    0.428217
  C      1.820670   -1.003841   -0.738364
  H     -2.669200   -1.594375   -0.437148
  H     -1.508689   -1.055986   -1.651246
  H     -0.975993   -2.053103   -0.293744
  H     -1.502388   -0.215515    1.287296
  H     -2.151107    0.751827   -0.034502
  H      0.095984    0.832094   -1.083668
  H      1.023600    2.458968    0.530497
  H     -0.020097    1.814281    1.800779
  H     -0.726281    2.635138    0.408059
  H      1.891288    0.289595    0.958102
  H      0.757430   -1.039688    1.131994
  H      2.613620   -1.653589   -0.374087
  H      2.261359   -0.275204   -1.415557
  H      1.114103   -1.607834   -1.300735

 Total Charge           Charge          ....    0
 Multiplicity           Mult            ....    1
 Number of Electrons    NEL             ....   50
 Basis Dimension        Dim             ....  184

ORBITAL ENERGIES
----------------

  NO   OCC          E(Eh)            E(eV)
   0   2.0000     -10.019639      -272.6482
   1   2.0000     -10.012635      -272.4576
   2   2.0000     -10.012234      -272.4467
   3   2.0000     -10.006309      -272.2855
   4   2.0000     -10.005916      -272.2748
   5   2.0000     -10.004659      -272.2406
   6   2.0000      -0.772618       -21.0240
   7   2.0000      -0.704888       -19.1810
   8   2.0000      -0.678470       -18.4621
   9   2.0000      -0.593022       -16.1369
  10   2.0000      -0.567565       -15.4442
  11   2.0000      -0.514536       -14.0012
  12   2.0000      -0.427757       -11.6399
  13   2.0000      -0.408636       -11.1195
  14   2.0000      -0.391742       -10.6598
  15   2.0000      -0.374345       -10.1864
  16   2.0000      -0.365030        -9.9330
  17   2.0000      -0.360058        -9.7977
  18   2.0000      -0.331760        -9.0277
  19   2.0000      -0.321019        -8.7354
  20   2.0000      -0.308367        -8.3911
  21   2.0000      -0.296933        -8.0800
  22   2.0000      -0.278173        -7.5695
  23   2.0000      -0.271305        -7.3826
  24   2.0000      -0.265788        -7.2324
  25   0.0000       0.095720         2.6047
  26   0.0000       0.107304         2.9199
  27   0.0000       0.124914         3.3991
  28   0.0000       0.127717         3.4754
  29   0.0000       0.134909         3.6711

MULLIKEN ATOMIC CHARGES
-----------------------
   0 C :   -0.543189
   1 C :   -0.290331
   2 C :    0.011294
   3 C :   -0.538229
   4 C :   -0.296964
   5 C :   -0.527742
   6 H :    0.155463
   7 H :    0.160695
   8 H :    0.162659
   9 H :    0.156891
  10 H :    0.143938
  11 H :    0.159017
  12 H :    0.158072
  13 H :    0.156177
  14 H :    0.152980
  15 H :    0.152902
  16 H :    0.157070
  17 H :    0.152668
  18 H :    0.157692
  19 H :    0.158937
Sum of atomic charges:   -0.0000000

LOEWDIN ATOMIC CHARGES
----------------------
   0 C :   -0.433525
   1 C :   -0.311833
   2 C :   -0.241391
   3 C :   -0.425960
   4 C :   -0.312891
   5 C :   -0.431252
   6 H :    0.151651
   7 H :    0.152608
   8 H :    0.152927
   9 H :    0.155551
  10 H :    0.154570
  11 H :    0.157782
  12 H :    0.153603
  13 H :    0.155816
  14 H :    0.153255
  15 H :    0.157068
  16 H :    0.157888
  17 H :    0.150831
  18 H :    0.150899
  19 H :    0.152402

  Mayer bond orders larger than 0.100000
B(  0-C ,  1-C ) :   0.8707 B(  0-C ,  6-H ) :   0.9701 B(  0-C ,  7-H ) :   0.9827
B(  0-C ,  8-H ) :   0.9751 B(  1-C ,  2-C ) :   0.8950 B(  1-C ,  9-H ) :   0.9885
B(  1-C , 10-H ) :   0.9758 B(  2-C ,  3-C ) :   0.8888 B(  2-C ,  4-C ) :   0.8111
B(  2-C , 11-H ) :   0.9788 B(  3-C , 12-H ) :   0.9758 B(  3-C , 13-H ) :   0.9815
B(  3-C , 14-H ) :   0.9782 B(  4-C ,  5-C ) :   0.8865 B(  4-C , 15-H ) :   0.9783
B(  4-C , 16-H ) :   0.9720 B(  5-C , 17-H ) :   0.9735 B(  5-C , 18-H ) :   0.9860
B(  5-C , 19-H ) :   0.9712

Dispersion correction           -0.005114025
FINAL SINGLE POINT ENERGY      -236.980981716837

DIPOLE MOMENT
-------------

Method             : SCF
Type of density    : Electron Density
Multiplicity       :   1
Irrep              :   0
Energy             :  -236.9853848560307767 Eh
Relativity type    :
Basis              : AO
                                X                 Y                 Z
Electronic contribution:     -0.198649542       0.670525592       0.438003606
Nuclear contribution   :      0.191035779      -0.669275594      -0.444652426
                        -----------------------------------------
Total Dipole Moment    :     -0.007613763       0.001249998      -0.006648820
                        -----------------------------------------
Magnitude (a.u.)       :      0.010185219
Magnitude (Debye)      :      0.025888769

Rotational constants in cm-1:             0.111487             0.102477             0.059713
Rotational constants in MHz :          3342.298587          3072.196903          1790.151219

                             ****ORCA TERMINATED NORMALLY****
TOTAL RUN TIME: 0 days 0 hours 0 minutes 20 seconds 469 msec
