                         Program Version 6.0.0  -   RELEASE  -
|  1> ! r2scan-3c def2/J RI DEFGRID2 scfconv6 printgap
|  2> %output
|  3>     printlevel normal
|  4> end
|  5> * xyz 0 1
|  6> C 5.3327754202 -0.319063406 0.6975720485
|  7> C 4.4807725759 0.3245242259 -0.3968638715
|  8> C 3.0481203743 -0.1601934383 -0.2979465373
|  9> O 2.7669588331 -1.3486506531 -0.3036498687
| 10> N 2.1282703444 0.838855338 -0.2050809955
| 11> C 0.7416408268 0.7523331188 -0.1123075625
| 12> C 0.0121025224 1.9416619994 -0.0437647093
| 13> C -1.3639357888 1.9180918667 0.048613504
| 14> C -2.0388115918 0.7066388859 0.0746537647
| 15> C -1.3181976775 -0.4787118974 0.0077910857
| 16> C 0.0621126925 -0.4631612262 -0.0849286506
| 17> Cl -2.1434045995 -2.0033732989 0.0393733485
| 18> Cl -3.7681072822 0.676784531 0.1897411844
| 19> H 5.2236860527 -1.4003124445 0.6605708812
| 20> H 5.0157006442 0.0235280584 1.6794673534
| 21> H 6.3795745077 -0.0654770399 0.5587862907
| 22> H 4.8597375248 0.0091851706 -1.371095791
| 23> H 4.5392372034 1.4093220171 -0.3314373413
| 24> H 2.4827491258 1.7873668128 -0.2095891286
| 25> H 0.5226140783 2.8909930136 -0.0631916413
| 26> H -1.926756511 2.8349540885 0.1009750681
| 27> H 0.6082204832 -1.390072706 -0.136226656
| 28> *
| 29>
| 30>                          ****END OF INPUT****

CARTESIAN COORDINATES (ANGSTROEM)
---------------------------------
  C      5.332775   -0.319063    0.697572
  C      4.480773    0.324524   -0.396864
  C      3.048120   -0.160193   -0.297947
  O      2.766959   -1.348651   -0.303650
  N      2.128270    0.838855   -0.205081
  C      0.741641    0.752333   -0.112308
  C      0.012103    1.941662   -0.043765
  C     -1.363936    1.918092    0.048614
  C     -2.038812    0.706639    0.074654
  C     -1.318198   -0.478712    0.007791
  C      0.062113   -0.463161   -0.084929
  Cl    -2.143405   -2.003373    0.039373
  Cl    -3.768107    0.676785    0.189741
  H      5.223686   -1.400312    0.660571
  H      5.015701    0.023528    1.679467
  H      6.379575   -0.065477    0.558786
  H      4.859738    0.009185   -1.371096
  H      4.539237    1.409322   -0.331437
  H      2.482749    1.787367   -0.209589
  H      0.522614    2.890993   -0.063192
  H     -1.926757    2.834954    0.100975
  H      0.608220   -1.390073   -0.136227

 Total Charge           Charge          ....    0
 Multiplicity           Mult            ....    1
 Number of Electrons    NEL             ....  112
 Basis Dimension        Dim             ....  318

ORBITAL ENERGIES
----------------

  NO   OCC          E(Eh)            E(eV)
   0   2.0000    -101.225089     -2754.4747
   1   2.0000    -101.224186     -2754.4501
   2   2.0000     -18.930772      -515.1325
   3   2.0000     -14.224601      -387.0711
   4   2.0000     -10.148081      -276.1433
   5   2.0000     -10.114746      -275.2362
   6   2.0000     -10.110715      -275.1266
   7   2.0000     -10.106065      -275.0000
   8   2.0000     -10.064606      -273.8719
   9   2.0000     -10.061725      -273.7935
  10   2.0000     -10.056016      -273.6381
  11   2.0000     -10.053140      -273.5599
  12   2.0000     -10.034728      -273.0588
  13   2.0000      -9.380793      -255.2644
  14   2.0000      -9.379864      -255.2391
  15   2.0000      -7.127241      -193.9421
  16   2.0000      -7.126355      -193.9180
  17   2.0000      -7.117045      -193.6646
  18   2.0000      -7.116394      -193.6469
  19   2.0000      -7.116178      -193.6410
  20   2.0000      -7.115372      -193.6191
  21   2.0000      -1.020846       -27.7786
  22   2.0000      -0.934123       -25.4188
  23   2.0000      -0.886350       -24.1188
  24   2.0000      -0.824824       -22.4446
  25   2.0000      -0.812944       -22.1213
  26   2.0000      -0.762835       -20.7578
  27   2.0000      -0.729206       -19.8427
  28   2.0000      -0.711983       -19.3740
  29   2.0000      -0.640897       -17.4397
  30   2.0000      -0.614408       -16.7189
  31   2.0000      -0.588396       -16.0111
  32   2.0000      -0.564139       -15.3510
  33   2.0000      -0.521995       -14.2042
  34   2.0000      -0.478833       -13.0297
  35   2.0000      -0.473394       -12.8817
  36   2.0000      -0.455487       -12.3944
  37   2.0000      -0.444866       -12.1054
  38   2.0000      -0.432444       -11.7674
  39   2.0000      -0.418556       -11.3895
  40   2.0000      -0.413670       -11.2565
  41   2.0000      -0.396277       -10.7833
  42   2.0000      -0.393178       -10.6989
  43   2.0000      -0.378979       -10.3126
  44   2.0000      -0.359220        -9.7749
  45   2.0000      -0.355130        -9.6636
  46   2.0000      -0.348182        -9.4745
  47   2.0000      -0.337979        -9.1969
  48   2.0000      -0.323884        -8.8133
  49   2.0000      -0.321287        -8.7427
  50   2.0000      -0.300994        -8.1905
  51   2.0000      -0.281274        -7.6539
  52   2.0000      -0.278496        -7.5783
  53   2.0000      -0.245481        -6.6799
  54   2.0000      -0.234334        -6.3766
  55   2.0000      -0.216164        -5.8821
  56   0.0000      -0.060391        -1.6433
  57   0.0000      -0.056682        -1.5424
  58   0.0000      -0.018484        -0.5030
  59   0.0000      -0.000975        -0.0265
  60   0.0000       0.032572         0.8863

MULLIKEN ATOMIC CHARGES
-----------------------
   0 C :   -0.462198
   1 C :   -0.316857
   2 C :    0.336048
   3 O :   -0.453764
   4 N :   -0.063713
   5 C :    0.217998
   6 C :   -0.351369
   7 C :   -0.213342
   8 C :    0.114931
   9 C :    0.064272
  10 C :   -0.191240
  11 Cl:   -0.109782
  12 Cl:   -0.117320
  13 H :    0.181441
  14 H :    0.143493
  15 H :    0.151668
  16 H :    0.171449
  17 H :    0.123302
  18 H :    0.250597
  19 H :    0.135196
  20 H :    0.165120
  21 H :    0.224069
Sum of atomic charges:    0.0000000

LOEWDIN ATOMIC CHARGES
----------------------
   0 C :   -0.394614
   1 C :   -0.242796
   2 C :    0.343110
   3 O :   -0.463664
   4 N :   -0.589905
   5 C :    0.157621
   6 C :   -0.136340
   7 C :   -0.154777
   8 C :   -0.192729
   9 C :   -0.169992
  10 C :   -0.121821
  11 Cl:    0.154572
  12 Cl:    0.143435
  13 H :    0.169828
  14 H :    0.154200
  15 H :    0.152189
  16 H :    0.180195
  17 H :    0.155299
  18 H :    0.282500
  19 H :    0.172469
  20 H :    0.182158
  21 H :    0.219063

  Mayer bond orders larger than 0.100000
B(  0-C ,  1-C ) :   0.9093 B(  0-C , 13-H ) :   0.9711 B(  0-C , 14-H ) :   0.9707
B(  0-C , 15-H ) :   0.9744 B(  1-C ,  2-C ) :   0.9141 B(  1-C , 16-H ) :   0.9513
B(  1-C , 17-H ) :   0.9976 B(  2-C ,  3-O ) :   1.7901 B(  2-C ,  4-N ) :   1.0661
B(  4-N ,  5-C ) :   1.0427 B(  4-N , 18-H ) :   0.9154 B(  5-C ,  6-C ) :   1.2665
B(  5-C , 10-C ) :   1.4302 B(  6-C ,  7-C ) :   1.3906 B(  6-C , 19-H ) :   0.9447
B(  7-C ,  8-C ) :   1.3603 B(  7-C , 20-H ) :   0.9334 B(  8-C ,  9-C ) :   1.2912
B(  8-C , 12-Cl) :   1.0347 B(  9-C , 10-C ) :   1.1532 B(  9-C , 11-Cl) :   1.0858
B( 10-C , 21-H ) :   0.9195

Dispersion correction           -0.009001479
FINAL SINGLE POINT ENERGY     -1398.618542455153

DIPOLE MOMENT
-------------

Method             : SCF
Type of density    : Electron Density
Multiplicity       :   1
Irrep              :   0
Energy             : -1398.6228052571270837 Eh
Relativity type    :
Basis              : AO
                                X                 Y                 Z
Electronic contribution:    -32.674739502      -5.747661424      -0.540962157
Nuclear contribution   :     33.979010656       7.487588711       0.520200425
                        -----------------------------------------
Total Dipole Moment    :      1.304271154       1.739927287      -0.020761732
                        -----------------------------------------
Magnitude (a.u.)       :      2.174603701
Magnitude (Debye)      :      5.527403338

Rotational constants in cm-1:             0.048032             0.009294             0.007916
Rotational constants in MHz :          1439.948661           278.625715           237.318562

                             ****ORCA TERMINATED NORMALLY****
TOTAL RUN TIME: 0 days 0 hours 0 minutes 45 seconds 508 msec
