                         Program Version 6.0.0  -   RELEASE  -
|  1> ! r2scan-3c def2/J RI DEFGRID2 scfconv6 printgap
|  2> %output
|  3>     printlevel normal
|  4> end
|  5> %cpcm
|  6>     smd true
|  7>     smdsolvent "water"
|  8> end
|  9> * xyz 0 1
| 10> C 5.3327754202 -0.319063406 0.6975720485
| 11> C 4.4807725759 0.3245242259 -0.3968638715
| 12> C 3.0481203743 -0.1601934383 -0.2979465373
| 13> O 2.7669588331 -1.3486506531 -0.3036498687
| 14> N 2.1282703444 0.838855338 -0.2050809955
| 15> C 0.7416408268 0.7523331188 -0.1123075625
| 16> C 0.0121025224 1.9416619994 -0.0437647093
| 17> C -1.3639357888 1.9180918667 0.048613504
| 18> C -2.0388115918 0.7066388859 0.0746537647
| 19> C -1.3181976775 -0.4787118974 0.0077910857
| 20> C 0.0621126925 -0.4631612262 -0.0849286506
| 21> Cl -2.1434045995 -2.0033732989 0.0393733485
| 22> Cl -3.7681072822 0.676784531 0.1897411844
| 23> H 5.2236860527 -1.4003124445 0.6605708812
| 24> H 5.0157006442 0.0235280584 1.6794673534
| 25> H 6.3795745077 -0.0654770399 0.5587862907
| 26> H 4.8597375248 0.0091851706 -1.371095791
| 27> H 4.5392372034 1.4093220171 -0.3314373413
| 28> H 2.4827491258 1.7873668128 -0.2095891286
| 29> H 0.5226140783 2.8909930136 -0.0631916413
| 30> H -1.926756511 2.8349540885 0.1009750681
| 31> H 0.6082204832 -1.390072706 -0.136226656
| 32> *
| 33>
| 34>                          ****END OF INPUT****

CARTESIAN COORDINATES (ANGSTROEM)
---------------------------------
  C      5.332775   -0.319063    0.697572
  C      4.480773    0.324524   -0.396864
  C      3.048120   -0.160193   -0.297947
  O      2.766959   -1.348651   -0.303650
  N      2.128270    0.838855   -0.205081
  C      0.741641    0.752333   -0.112308
  C      0.012103    1.941662   -0.043765
  C     -1.363936    1.918092    0.048614
  C     -2.038812    0.706639    0.074654
  C     -1.318198   -0.478712    0.007791
  C      0.062113   -0.463161   -0.084929
  Cl    -2.143405   -2.003373    0.039373
  Cl    -3.768107    0.676785    0.189741
  H      5.223686   -1.400312    0.660571
  H      5.015701    0.023528    1.679467
  H      6.379575   -0.065477    0.558786
  H      4.859738    0.009185   -1.371096
  H      4.539237    1.409322   -0.331437
  H      2.482749    1.787367   -0.209589
  H      0.522614    2.890993   -0.063192
  H     -1.926757    2.834954    0.100975
  H      0.608220   -1.390073   -0.136227

 Total Charge           Charge          ....    0
 Multiplicity           Mult            ....    1
 Number of Electrons    NEL             ....  112
 Basis Dimension        Dim             ....  318

ORBITAL ENERGIES
----------------

  NO   OCC          E(Eh)            E(eV)
   0   2.0000    -101.230772     -2754.6294
   1   2.0000    -101.229163     -2754.5856
   2   2.0000     -18.934853      -515.2435
   3   2.0000     -14.210727      -386.6935
   4   2.0000     -10.145340      -276.0687
   5   2.0000     -10.114832      -275.2386
   6   2.0000     -10.109069      -275.0818
   7   2.0000     -10.099652      -274.8255
   8   2.0000     -10.056674      -273.6560
   9   2.0000     -10.051292      -273.5096
  10   2.0000     -10.050379      -273.4847
  11   2.0000     -10.036019      -273.0940
  12   2.0000     -10.018644      -272.6212
  13   2.0000      -9.386649      -255.4237
  14   2.0000      -9.385039      -255.3799
  15   2.0000      -7.132963      -194.0978
  16   2.0000      -7.131331      -194.0534
  17   2.0000      -7.122993      -193.8265
  18   2.0000      -7.122267      -193.8067
  19   2.0000      -7.121349      -193.7818
  20   2.0000      -7.120706      -193.7643
  21   2.0000      -1.022907       -27.8347
  22   2.0000      -0.925018       -25.1710
  23   2.0000      -0.887041       -24.1376
  24   2.0000      -0.829054       -22.5597
  25   2.0000      -0.809225       -22.0201
  26   2.0000      -0.748577       -20.3698
  27   2.0000      -0.724571       -19.7166
  28   2.0000      -0.705999       -19.2112
  29   2.0000      -0.631442       -17.1824
  30   2.0000      -0.605751       -16.4833
  31   2.0000      -0.578315       -15.7367
  32   2.0000      -0.553776       -15.0690
  33   2.0000      -0.511872       -13.9287
  34   2.0000      -0.471893       -12.8409
  35   2.0000      -0.470175       -12.7941
  36   2.0000      -0.447813       -12.1856
  37   2.0000      -0.433384       -11.7930
  38   2.0000      -0.428119       -11.6497
  39   2.0000      -0.412368       -11.2211
  40   2.0000      -0.405838       -11.0434
  41   2.0000      -0.398877       -10.8540
  42   2.0000      -0.389500       -10.5988
  43   2.0000      -0.375044       -10.2055
  44   2.0000      -0.348602        -9.4859
  45   2.0000      -0.348338        -9.4788
  46   2.0000      -0.334521        -9.1028
  47   2.0000      -0.329119        -8.9558
  48   2.0000      -0.326721        -8.8905
  49   2.0000      -0.311358        -8.4725
  50   2.0000      -0.306299        -8.3348
  51   2.0000      -0.284586        -7.7440
  52   2.0000      -0.280773        -7.6402
  53   2.0000      -0.245057        -6.6683
  54   2.0000      -0.238441        -6.4883
  55   2.0000      -0.213476        -5.8090
  56   0.0000      -0.057644        -1.5686
  57   0.0000      -0.052618        -1.4318
  58   0.0000      -0.020853        -0.5674
  59   0.0000       0.003801         0.1034
  60   0.0000       0.038201         1.0395

MULLIKEN ATOMIC CHARGES
-----------------------
   0 C :   -0.503405
   1 C :   -0.321776
   2 C :    0.352463
   3 O :   -0.547005
   4 N :   -0.080722
   5 C :    0.195715
   6 C :   -0.353468
   7 C :   -0.218996
   8 C :    0.111524
   9 C :    0.055004
  10 C :   -0.219297
  11 Cl:   -0.135542
  12 Cl:   -0.138494
  13 H :    0.168339
  14 H :    0.162670
  15 H :    0.169238
  16 H :    0.189016
  17 H :    0.167818
  18 H :    0.328476
  19 H :    0.188873
  20 H :    0.201261
  21 H :    0.228307
Sum of atomic charges:    0.0000000

LOEWDIN ATOMIC CHARGES
----------------------
   0 C :   -0.401300
   1 C :   -0.236672
   2 C :    0.350010
   3 O :   -0.537013
   4 N :   -0.557397
   5 C :    0.157683
   6 C :   -0.116910
   7 C :   -0.151910
   8 C :   -0.201621
   9 C :   -0.179800
  10 C :   -0.136174
  11 Cl:    0.134205
  12 Cl:    0.126630
  13 H :    0.161607
  14 H :    0.158865
  15 H :    0.158838
  16 H :    0.185736
  17 H :    0.174132
  18 H :    0.304729
  19 H :    0.194826
  20 H :    0.195225
  21 H :    0.216312

  Mayer bond orders larger than 0.100000
B(  0-C ,  1-C ) :   0.8822 B(  0-C , 13-H ) :   0.9751 B(  0-C , 14-H ) :   0.9712
B(  0-C , 15-H ) :   0.9687 B(  1-C ,  2-C ) :   0.9152 B(  1-C , 16-H ) :   0.9495
B(  1-C , 17-H ) :   0.9827 B(  2-C ,  3-O ) :   1.7139 B(  2-C ,  4-N ) :   1.1012
B(  4-N ,  5-C ) :   1.0255 B(  4-N , 18-H ) :   0.8884 B(  5-C ,  6-C ) :   1.2840
B(  5-C , 10-C ) :   1.4038 B(  6-C ,  7-C ) :   1.3785 B(  6-C , 19-H ) :   0.9574
B(  7-C ,  8-C ) :   1.3143 B(  7-C , 20-H ) :   0.9380 B(  8-C ,  9-C ) :   1.2768
B(  8-C , 12-Cl) :   1.0194 B(  9-C , 10-C ) :   1.1571 B(  9-C , 11-Cl) :   1.0589
B( 10-C , 21-H ) :   0.9174

Dispersion correction           -0.009001479
FINAL SINGLE POINT ENERGY     -1398.631617689656

DIPOLE MOMENT
-------------

Method             : SCF
Type of density    : Electron Density
Multiplicity       :   1
Irrep              :   0
Energy             : -1398.6358804916303598 Eh
Relativity type    :
Basis              : AO
                                X                 Y                 Z
Electronic contribution:    -32.214655526      -4.647092566      -0.565079063
Nuclear contribution   :     33.979010656       7.487588711       0.520200425
                        -----------------------------------------
Total Dipole Moment    :      1.764355130       2.840496145      -0.044878638
                        -----------------------------------------
Magnitude (a.u.)       :      3.344156316
Magnitude (Debye)      :      8.500169836

Rotational constants in cm-1:             0.048032             0.009294             0.007916
Rotational constants in MHz :          1439.948661           278.625715           237.318562

                             ****ORCA TERMINATED NORMALLY****
TOTAL RUN TIME: 0 days 0 hours 1 minutes 4 seconds 81 msec
