                         Program Version 6.0.0  -   RELEASE  -
|  1> ! pbe def2-sv(p) def2/J RI DEFGRID1 loosescf d4 GCP(DFT/SV(P)) printgap
|  2> %output
|  3>     printlevel normal
|  4> end
|  5> * xyz 0 1
|  6> C -1.4307268347 -0.3212524653 -1.7070454741
|  7> C -1.3215190076 0.1732376346 -0.263867449
|  8> C -1.725694603 -0.9523012383 0.6869785061
|  9> C 0.0182521836 0.8840050982 0.0472063809
| 10> C -0.1244882538 1.6949189509 1.3413767011
| 11> C 1.3527475217 0.0996642403 0.0770795572
| 12> C 1.4489037592 -1.0320217881 1.0991360146
| 13> C 1.7876633186 -0.4195516425 -1.2942033307
| 14> H -2.470364482 -0.545867323 -1.9380161789
| 15> H -1.0824855341 0.4347938505 -2.4063999552
| 16> H -0.8547469765 -1.2283321077 -1.8608317342
| 17> H -2.0735746745 0.9661663802 -0.1518649067
| 18> H -2.7798119084 -1.1823050515 0.5421837963
| 19> H -1.5837162554 -0.6691097236 1.7251504191
| 20> H -1.160712813 -1.85800393 0.4903563493
| 21> H 0.1418100927 1.6175486703 -0.7617443716
| 22> H -0.2587326724 1.0508005448 2.2056958328
| 23> H -0.9836988927 2.3591059838 1.2798451033
| 24> H 0.7622319347 2.3022535395 1.508646836
| 25> H 2.0954551284 0.8538942014 0.3710721874
| 26> H 1.0678903705 -0.7285686337 2.069111825
| 27> H 0.904848873 -1.9111134102 0.7684645593
| 28> H 2.4925736634 -1.3161705204 1.2216031947
| 29> H 1.6590891589 0.3420988276 -2.0592469916
| 30> H 1.222935927 -1.3006524041 -1.582566175
| 31> H 2.8397792491 -0.6963902311 -1.2624997176
| 32> *
| 33>
| 34>                          ****END OF INPUT****

CARTESIAN COORDINATES (ANGSTROEM)
---------------------------------
  C     -1.430727   -0.321252   -1.707045
  C     -1.321519    0.173238   -0.263867
  C     -1.725695   -0.952301    0.686979
  C      0.018252    0.884005    0.047206
  C     -0.124488    1.694919    1.341377
  C      1.352748    0.099664    0.077080
  C      1.448904   -1.032022    1.099136
  C      1.787663   -0.419552   -1.294203
  H     -2.470364   -0.545867   -1.938016
  H     -1.082486    0.434794   -2.406400
  H     -0.854747   -1.228332   -1.860832
  H     -2.073575    0.966166   -0.151865
  H     -2.779812   -1.182305    0.542184
  H     -1.583716   -0.669110    1.725150
  H     -1.160713   -1.858004    0.490356
  H      0.141810    1.617549   -0.761744
  H     -0.258733    1.050801    2.205696
  H     -0.983699    2.359106    1.279845
  H      0.762232    2.302254    1.508647
  H      2.095455    0.853894    0.371072
  H      1.067890   -0.728569    2.069112
  H      0.904849   -1.911113    0.768465
  H      2.492574   -1.316171    1.221603
  H      1.659089    0.342099   -2.059247
  H      1.222936   -1.300652   -1.582566
  H      2.839779   -0.696390   -1.262500

 Total Charge           Charge          ....    0
 Multiplicity           Mult            ....    1
 Number of Electrons    NEL             ....   66
 Basis Dimension        Dim             ....  148

ORBITAL ENERGIES
----------------

  NO   OCC          E(Eh)            E(eV)
   0   2.0000      -9.889831      -269.1160
   1   2.0000      -9.889703      -269.1125
   2   2.0000      -9.887935      -269.0644
   3   2.0000      -9.867685      -268.5134
   4   2.0000      -9.867569      -268.5102
   5   2.0000      -9.867483      -268.5079
   6   2.0000      -9.866935      -268.4929
   7   2.0000      -9.866817      -268.4897
   8   2.0000      -0.743971       -20.2445
   9   2.0000      -0.695174       -18.9166
  10   2.0000      -0.651438       -17.7265
  11   2.0000      -0.613255       -16.6875
  12   2.0000      -0.598717       -16.2919
  13   2.0000      -0.556483       -15.1427
  14   2.0000      -0.519620       -14.1396
  15   2.0000      -0.466118       -12.6837
  16   2.0000      -0.425328       -11.5738
  17   2.0000      -0.397376       -10.8132
  18   2.0000      -0.395516       -10.7626
  19   2.0000      -0.377923       -10.2838
  20   2.0000      -0.374006       -10.1772
  21   2.0000      -0.352644        -9.5959
  22   2.0000      -0.348667        -9.4877
  23   2.0000      -0.339185        -9.2297
  24   2.0000      -0.334036        -9.0896
  25   2.0000      -0.317507        -8.6398
  26   2.0000      -0.315382        -8.5820
  27   2.0000      -0.303800        -8.2668
  28   2.0000      -0.288977        -7.8635
  29   2.0000      -0.284195        -7.7333
  30   2.0000      -0.265886        -7.2351
  31   2.0000      -0.263942        -7.1822
  32   2.0000      -0.250149        -6.8069
  33   0.0000       0.024331         0.6621
  34   0.0000       0.054275         1.4769
  35   0.0000       0.060351         1.6422
  36   0.0000       0.062625         1.7041
  37   0.0000       0.079054         2.1512

MULLIKEN ATOMIC CHARGES
-----------------------
   0 C :   -0.230244
   1 C :   -0.153465
   2 C :   -0.241424
   3 C :   -0.119130
   4 C :   -0.248463
   5 C :   -0.154791
   6 C :   -0.241886
   7 C :   -0.230817
   8 H :    0.093191
   9 H :    0.090685
  10 H :    0.099307
  11 H :    0.063180
  12 H :    0.094004
  13 H :    0.095265
  14 H :    0.099247
  15 H :    0.056608
  16 H :    0.104921
  17 H :    0.093727
  18 H :    0.093662
  19 H :    0.063405
  20 H :    0.095315
  21 H :    0.099400
  22 H :    0.094087
  23 H :    0.090993
  24 H :    0.099985
  25 H :    0.093236
Sum of atomic charges:    0.0000000

LOEWDIN ATOMIC CHARGES
----------------------
   0 C :   -0.329401
   1 C :   -0.146045
   2 C :   -0.330265
   3 C :   -0.138208
   4 C :   -0.330100
   5 C :   -0.146101
   6 C :   -0.330473
   7 C :   -0.329558
   8 H :    0.116706
   9 H :    0.114788
  10 H :    0.114305
  11 H :    0.114825
  12 H :    0.118295
  13 H :    0.115565
  14 H :    0.114849
  15 H :    0.113819
  16 H :    0.114560
  17 H :    0.116391
  18 H :    0.116302
  19 H :    0.114827
  20 H :    0.115666
  21 H :    0.114907
  22 H :    0.118337
  23 H :    0.114913
  24 H :    0.114305
  25 H :    0.116788

  Mayer bond orders larger than 0.100000
B(  0-C ,  1-C ) :   1.1302 B(  0-C ,  8-H ) :   0.9464 B(  0-C ,  9-H ) :   0.9442
B(  0-C , 10-H ) :   0.9374 B(  1-C ,  2-C ) :   1.1183 B(  1-C ,  3-C ) :   1.0502
B(  1-C , 11-H ) :   0.8917 B(  2-C , 12-H ) :   0.9440 B(  2-C , 13-H ) :   0.9443
B(  2-C , 14-H ) :   0.9388 B(  3-C ,  4-C ) :   1.1131 B(  3-C ,  5-C ) :   1.0508
B(  3-C , 15-H ) :   0.8791 B(  4-C , 16-H ) :   0.9392 B(  4-C , 17-H ) :   0.9450
B(  4-C , 18-H ) :   0.9452 B(  5-C ,  6-C ) :   1.1183 B(  5-C ,  7-C ) :   1.1303
B(  5-C , 19-H ) :   0.8917 B(  6-C , 20-H ) :   0.9445 B(  6-C , 21-H ) :   0.9387
B(  6-C , 22-H ) :   0.9441 B(  7-C , 23-H ) :   0.9441 B(  7-C , 24-H ) :   0.9374
B(  7-C , 25-H ) :   0.9464

Dispersion correction           -0.024097458
FINAL SINGLE POINT ENERGY      -314.866316781145

DIPOLE MOMENT
-------------

Method             : SCF
Type of density    : Electron Density
Multiplicity       :   1
Irrep              :   0
Energy             :  -314.9526505683872983 Eh
Relativity type    :
Basis              : AO
                                X                 Y                 Z
Electronic contribution:      0.059210858       1.462824810      -0.144960664
Nuclear contribution   :     -0.057443460      -1.416484596       0.149130241
                        -----------------------------------------
Total Dipole Moment    :      0.001767399       0.046340214       0.004169577
                        -----------------------------------------
Magnitude (a.u.)       :      0.046560976
Magnitude (Debye)      :      0.118348595

Rotational constants in cm-1:             0.070054             0.054384             0.045580
Rotational constants in MHz :          2100.157375          1630.388019          1366.468992

                             ****ORCA TERMINATED NORMALLY****
TOTAL RUN TIME: 0 days 0 hours 0 minutes 12 seconds 51 msec
