                         Program Version 6.0.0  -   RELEASE  -
|  1> ! pbe def2-sv(p) def2/J RI DEFGRID1 loosescf d4 GCP(DFT/SV(P)) printgap
|  2> %output
|  3>     printlevel normal
|  4> end
|  5> * xyz 0 1
|  6> C -1.9893137145 0.9071756668 1.2345656743
|  7> C -2.0941847651 -0.2570051436 0.2534833912
|  8> C -3.5227351794 -0.390611153 -0.2671446762
|  9> C -1.1259281952 -0.0596647109 -0.9265689225
| 10> C 0.3018126959 -0.0497146504 -0.4847625303
| 11> C 0.9286421258 -1.1940875563 0.0170588311
| 12> N 2.1820692478 -1.1875540858 0.4373438516
| 13> C 2.8385066057 -0.035318053 0.3579448333
| 14> C 2.2338548483 1.1019733415 -0.1549535701
| 15> N 0.9755486606 1.0941251222 -0.5718871647
| 16> H -2.2465481227 1.8412854284 0.7411512262
| 17> H -0.9769718377 0.9951894007 1.6238354445
| 18> H -2.6665779333 0.7599285425 2.0722389069
| 19> H -1.8219252843 -1.1804387121 0.7766517138
| 20> H -3.6097095325 -1.2377638729 -0.942987948
| 21> H -4.2126826596 -0.5385675557 0.5597133292
| 22> H -3.8150919973 0.5097371653 -0.8020605357
| 23> H -1.3421117233 0.8884356662 -1.4191627545
| 24> H -1.2693568239 -0.8726397343 -1.6412136785
| 25> H 0.411580288 -2.1414892264 0.0791870926
| 26> H 3.8600614959 -0.0395307964 0.7080327581
| 27> H 2.7583518764 2.0431464292 -0.2386620714
| 28> *
| 29>
| 30>                          ****END OF INPUT****

CARTESIAN COORDINATES (ANGSTROEM)
---------------------------------
  C     -1.989314    0.907176    1.234566
  C     -2.094185   -0.257005    0.253483
  C     -3.522735   -0.390611   -0.267145
  C     -1.125928   -0.059665   -0.926569
  C      0.301813   -0.049715   -0.484763
  C      0.928642   -1.194088    0.017059
  N      2.182069   -1.187554    0.437344
  C      2.838507   -0.035318    0.357945
  C      2.233855    1.101973   -0.154954
  N      0.975549    1.094125   -0.571887
  H     -2.246548    1.841285    0.741151
  H     -0.976972    0.995189    1.623835
  H     -2.666578    0.759929    2.072239
  H     -1.821925   -1.180439    0.776652
  H     -3.609710   -1.237764   -0.942988
  H     -4.212683   -0.538568    0.559713
  H     -3.815092    0.509737   -0.802061
  H     -1.342112    0.888436   -1.419163
  H     -1.269357   -0.872640   -1.641214
  H      0.411580   -2.141489    0.079187
  H      3.860061   -0.039531    0.708033
  H      2.758352    2.043146   -0.238662

 Total Charge           Charge          ....    0
 Multiplicity           Mult            ....    1
 Number of Electrons    NEL             ....   74
 Basis Dimension        Dim             ....  164

ORBITAL ENERGIES
----------------

  NO   OCC          E(Eh)            E(eV)
   0   2.0000     -13.999636      -380.9495
   1   2.0000     -13.998279      -380.9125
   2   2.0000      -9.942310      -270.5440
   3   2.0000      -9.931271      -270.2436
   4   2.0000      -9.931221      -270.2423
   5   2.0000      -9.929113      -270.1849
   6   2.0000      -9.905671      -269.5470
   7   2.0000      -9.892838      -269.1978
   8   2.0000      -9.878636      -268.8114
   9   2.0000      -9.875630      -268.7295
  10   2.0000      -0.897750       -24.4290
  11   2.0000      -0.823327       -22.4039
  12   2.0000      -0.746512       -20.3136
  13   2.0000      -0.701931       -19.1005
  14   2.0000      -0.635482       -17.2923
  15   2.0000      -0.615452       -16.7473
  16   2.0000      -0.594072       -16.1655
  17   2.0000      -0.564234       -15.3536
  18   2.0000      -0.508489       -13.8367
  19   2.0000      -0.473493       -12.8844
  20   2.0000      -0.465885       -12.6774
  21   2.0000      -0.428453       -11.6588
  22   2.0000      -0.420262       -11.4359
  23   2.0000      -0.406570       -11.0633
  24   2.0000      -0.391557       -10.6548
  25   2.0000      -0.376637       -10.2488
  26   2.0000      -0.359444        -9.7810
  27   2.0000      -0.347128        -9.4458
  28   2.0000      -0.344293        -9.3687
  29   2.0000      -0.326898        -8.8954
  30   2.0000      -0.307585        -8.3698
  31   2.0000      -0.298008        -8.1092
  32   2.0000      -0.293304        -7.9812
  33   2.0000      -0.290299        -7.8994
  34   2.0000      -0.249146        -6.7796
  35   2.0000      -0.243187        -6.6174
  36   2.0000      -0.197706        -5.3799
  37   0.0000      -0.076705        -2.0873
  38   0.0000      -0.057096        -1.5537
  39   0.0000       0.033745         0.9183
  40   0.0000       0.060519         1.6468
  41   0.0000       0.067100         1.8259

MULLIKEN ATOMIC CHARGES
-----------------------
   0 C :   -0.236191
   1 C :   -0.242364
   2 C :   -0.220390
   3 C :   -0.020269
   4 C :   -0.089936
   5 C :   -0.073719
   6 N :   -0.039216
   7 C :   -0.060982
   8 C :   -0.047069
   9 N :   -0.043064
  10 H :    0.097693
  11 H :    0.114270
  12 H :    0.100731
  13 H :    0.083038
  14 H :    0.096438
  15 H :    0.102469
  16 H :    0.095672
  17 H :    0.079994
  18 H :    0.088782
  19 H :    0.063578
  20 H :    0.075997
  21 H :    0.074538
Sum of atomic charges:   -0.0000000

LOEWDIN ATOMIC CHARGES
----------------------
   0 C :   -0.329089
   1 C :   -0.151698
   2 C :   -0.327923
   3 C :   -0.211394
   4 C :   -0.022640
   5 C :   -0.094249
   6 N :   -0.050175
   7 C :   -0.104444
   8 C :   -0.096142
   9 N :   -0.054309
  10 H :    0.120267
  11 H :    0.120019
  12 H :    0.118893
  13 H :    0.114590
  14 H :    0.117002
  15 H :    0.119595
  16 H :    0.118846
  17 H :    0.128033
  18 H :    0.128415
  19 H :    0.117367
  20 H :    0.119524
  21 H :    0.119512

  Mayer bond orders larger than 0.100000
B(  0-C ,  1-C ) :   1.1063 B(  0-C , 10-H ) :   0.9485 B(  0-C , 11-H ) :   0.9422
B(  0-C , 12-H ) :   0.9501 B(  1-C ,  2-C ) :   1.1166 B(  1-C ,  3-C ) :   1.0801
B(  1-C , 13-H ) :   0.9021 B(  2-C , 14-H ) :   0.9485 B(  2-C , 15-H ) :   0.9508
B(  2-C , 16-H ) :   0.9474 B(  3-C ,  4-C ) :   1.0648 B(  3-C , 17-H ) :   0.8868
B(  3-C , 18-H ) :   0.8947 B(  4-C ,  5-C ) :   1.3183 B(  4-C ,  7-C ) :   0.1038
B(  4-C ,  9-N ) :   1.5540 B(  5-C ,  6-N ) :   1.5725 B(  5-C , 19-H ) :   0.9460
B(  6-N ,  7-C ) :   1.5304 B(  7-C ,  8-C ) :   1.3653 B(  7-C , 20-H ) :   0.9475
B(  8-C ,  9-N ) :   1.5216 B(  8-C , 21-H ) :   0.9458

Dispersion correction           -0.022242139
FINAL SINGLE POINT ENERGY      -420.626211953501

DIPOLE MOMENT
-------------

Method             : SCF
Type of density    : Electron Density
Multiplicity       :   1
Irrep              :   0
Energy             :  -420.6940444089406128 Eh
Relativity type    :
Basis              : AO
                                X                 Y                 Z
Electronic contribution:     13.712135298      -0.945018868      -1.426890191
Nuclear contribution   :    -13.990462355       0.963261154       1.422204109
                        -----------------------------------------
Total Dipole Moment    :     -0.278327057       0.018242286      -0.004686082
                        -----------------------------------------
Magnitude (a.u.)       :      0.278963601
Magnitude (Debye)      :      0.709069124

Rotational constants in cm-1:             0.107229             0.025592             0.024049
Rotational constants in MHz :          3214.648838           767.222704           720.985490

                             ****ORCA TERMINATED NORMALLY****
TOTAL RUN TIME: 0 days 0 hours 0 minutes 11 seconds 424 msec
