                         Program Version 6.0.0  -   RELEASE  -
|  1> ! r2scan-3c def2/J RI DEFGRID2 scfconv6 printgap
|  2> %output
|  3>     printlevel normal
|  4> end
|  5> * xyz 0 1
|  6> C 1.8693696668 -1.23478992 -0.0065811263
|  7> O 0.9376224146 -0.4909973191 -0.8049060663
|  8> S -2.3898e-05 0.4761559348 2.63001e-05
|  9> O -0.7510224707 1.2072995613 -0.9720832066
| 10> O 0.750785594 1.207347098 0.9722396045
| 11> O -0.9372660258 -0.4915473731 0.8048037644
| 12> C -1.8694421428 -1.2347237937 0.0064701991
| 13> H 2.5809124916 -1.6684130787 -0.704537651
| 14> H 1.3378049313 -2.0070210175 0.5485551238
| 15> H 2.3579264652 -0.5512558968 0.6863843977
| 16> H -2.3623399793 -0.5498131114 -0.6820705881
| 17> H -2.577157175 -1.6733895505 0.7051108814
| 18> H -1.3374199104 -2.0029266862 -0.5538156923
| 19> *
| 20>
| 21>                          ****END OF INPUT****

CARTESIAN COORDINATES (ANGSTROEM)
---------------------------------
  C      1.869370   -1.234790   -0.006581
  O      0.937622   -0.490997   -0.804906
  S     -0.000024    0.476156    0.000026
  O     -0.751022    1.207300   -0.972083
  O      0.750786    1.207347    0.972240
  O     -0.937266   -0.491547    0.804804
  C     -1.869442   -1.234724    0.006470
  H      2.580912   -1.668413   -0.704538
  H      1.337805   -2.007021    0.548555
  H      2.357926   -0.551256    0.686384
  H     -2.362340   -0.549813   -0.682071
  H     -2.577157   -1.673390    0.705111
  H     -1.337420   -2.002927   -0.553816

 Total Charge           Charge          ....    0
 Multiplicity           Mult            ....    1
 Number of Electrons    NEL             ....   66
 Basis Dimension        Dim             ....  191

ORBITAL ENERGIES
----------------

  NO   OCC          E(Eh)            E(eV)
   0   2.0000     -88.821635     -2416.9596
   1   2.0000     -19.027638      -517.7684
   2   2.0000     -19.027633      -517.7682
   3   2.0000     -18.957787      -515.8676
   4   2.0000     -18.957777      -515.8673
   5   2.0000     -10.110185      -275.1121
   6   2.0000     -10.110173      -275.1118
   7   2.0000      -8.085777      -220.0252
   8   2.0000      -6.032785      -164.1604
   9   2.0000      -6.031278      -164.1194
  10   2.0000      -6.028912      -164.0550
  11   2.0000      -1.165742       -31.7215
  12   2.0000      -1.054151       -28.6849
  13   2.0000      -1.026894       -27.9432
  14   2.0000      -0.995956       -27.1013
  15   2.0000      -0.733539       -19.9606
  16   2.0000      -0.709604       -19.3093
  17   2.0000      -0.593296       -16.1444
  18   2.0000      -0.549056       -14.9406
  19   2.0000      -0.497176       -13.5289
  20   2.0000      -0.489186       -13.3114
  21   2.0000      -0.464628       -12.6432
  22   2.0000      -0.452883       -12.3236
  23   2.0000      -0.444270       -12.0892
  24   2.0000      -0.415864       -11.3162
  25   2.0000      -0.384294       -10.4572
  26   2.0000      -0.366826        -9.9818
  27   2.0000      -0.340567        -9.2673
  28   2.0000      -0.329337        -8.9617
  29   2.0000      -0.324100        -8.8192
  30   2.0000      -0.296728        -8.0744
  31   2.0000      -0.295309        -8.0358
  32   2.0000      -0.280229        -7.6254
  33   0.0000       0.013827         0.3762
  34   0.0000       0.044559         1.2125
  35   0.0000       0.078824         2.1449
  36   0.0000       0.085355         2.3226
  37   0.0000       0.086787         2.3616

MULLIKEN ATOMIC CHARGES
-----------------------
   0 C :   -0.268425
   1 O :   -0.256314
   2 S :    1.163804
   3 O :   -0.562886
   4 O :   -0.562961
   5 O :   -0.256199
   6 C :   -0.268431
   7 H :    0.162392
   8 H :    0.156138
   9 H :    0.187191
  10 H :    0.187103
  11 H :    0.162379
  12 H :    0.156210
Sum of atomic charges:   -0.0000000

LOEWDIN ATOMIC CHARGES
----------------------
   0 C :   -0.040660
   1 O :   -0.563265
   2 S :    0.891254
   3 O :   -0.385031
   4 O :   -0.385144
   5 O :   -0.563263
   6 C :   -0.040635
   7 H :    0.183165
   8 H :    0.170566
   9 H :    0.189659
  10 H :    0.189567
  11 H :    0.183170
  12 H :    0.170618

  Mayer bond orders larger than 0.100000
B(  0-C ,  1-O ) :   0.8068 B(  0-C ,  7-H ) :   0.9620 B(  0-C ,  8-H ) :   0.9582
B(  0-C ,  9-H ) :   0.9595 B(  1-O ,  2-S ) :   0.9334 B(  2-S ,  3-O ) :   1.7328
B(  2-S ,  4-O ) :   1.7327 B(  2-S ,  5-O ) :   0.9333 B(  5-O ,  6-C ) :   0.8069
B(  6-C , 10-H ) :   0.9595 B(  6-C , 11-H ) :   0.9619 B(  6-C , 12-H ) :   0.9582

Dispersion correction           -0.003620523
FINAL SINGLE POINT ENERGY      -778.753395737231

DIPOLE MOMENT
-------------

Method             : SCF
Type of density    : Electron Density
Multiplicity       :   1
Irrep              :   0
Energy             :  -778.7738066772229786 Eh
Relativity type    :
Basis              : AO
                                X                 Y                 Z
Electronic contribution:      0.000221324       6.071551329       0.000382503
Nuclear contribution   :     -0.000253830      -7.922660299      -0.000350388
                        -----------------------------------------
Total Dipole Moment    :     -0.000032506      -1.851108970       0.000032115
                        -----------------------------------------
Magnitude (a.u.)       :      1.851108971
Magnitude (Debye)      :      4.705145079

Rotational constants in cm-1:             0.101473             0.079560             0.062215
Rotational constants in MHz :          3042.089980          2385.155091          1865.156759

                             ****ORCA TERMINATED NORMALLY****
TOTAL RUN TIME: 0 days 0 hours 0 minutes 21 seconds 254 msec
