                         Program Version 6.0.0  -   RELEASE  -
|  1> ! r2scan-3c def2/J RI DEFGRID2 scfconv6 printgap
|  2> %output
|  3>     printlevel normal
|  4> end
|  5> %cpcm
|  6>     smd true
|  7>     smdsolvent "water"
|  8> end
|  9> * xyz 0 1
| 10> C 1.8693696668 -1.23478992 -0.0065811263
| 11> O 0.9376224146 -0.4909973191 -0.8049060663
| 12> S -2.3898e-05 0.4761559348 2.63001e-05
| 13> O -0.7510224707 1.2072995613 -0.9720832066
| 14> O 0.750785594 1.207347098 0.9722396045
| 15> O -0.9372660258 -0.4915473731 0.8048037644
| 16> C -1.8694421428 -1.2347237937 0.0064701991
| 17> H 2.5809124916 -1.6684130787 -0.704537651
| 18> H 1.3378049313 -2.0070210175 0.5485551238
| 19> H 2.3579264652 -0.5512558968 0.6863843977
| 20> H -2.3623399793 -0.5498131114 -0.6820705881
| 21> H -2.577157175 -1.6733895505 0.7051108814
| 22> H -1.3374199104 -2.0029266862 -0.5538156923
| 23> *
| 24>
| 25>                          ****END OF INPUT****

CARTESIAN COORDINATES (ANGSTROEM)
---------------------------------
  C      1.869370   -1.234790   -0.006581
  O      0.937622   -0.490997   -0.804906
  S     -0.000024    0.476156    0.000026
  O     -0.751022    1.207300   -0.972083
  O      0.750786    1.207347    0.972240
  O     -0.937266   -0.491547    0.804804
  C     -1.869442   -1.234724    0.006470
  H      2.580912   -1.668413   -0.704538
  H      1.337805   -2.007021    0.548555
  H      2.357926   -0.551256    0.686384
  H     -2.362340   -0.549813   -0.682071
  H     -2.577157   -1.673390    0.705111
  H     -1.337420   -2.002927   -0.553816

 Total Charge           Charge          ....    0
 Multiplicity           Mult            ....    1
 Number of Electrons    NEL             ....   66
 Basis Dimension        Dim             ....  191

ORBITAL ENERGIES
----------------

  NO   OCC          E(Eh)            E(eV)
   0   2.0000     -88.834137     -2417.2998
   1   2.0000     -19.027146      -517.7550
   2   2.0000     -19.027140      -517.7548
   3   2.0000     -18.974254      -516.3157
   4   2.0000     -18.974243      -516.3154
   5   2.0000     -10.089382      -274.5460
   6   2.0000     -10.089372      -274.5458
   7   2.0000      -8.097996      -220.3577
   8   2.0000      -6.044714      -164.4850
   9   2.0000      -6.043393      -164.4491
  10   2.0000      -6.041666      -164.4021
  11   2.0000      -1.173385       -31.9294
  12   2.0000      -1.052067       -28.6282
  13   2.0000      -1.034617       -28.1534
  14   2.0000      -1.013418       -27.5765
  15   2.0000      -0.724892       -19.7253
  16   2.0000      -0.696827       -18.9616
  17   2.0000      -0.585540       -15.9334
  18   2.0000      -0.542878       -14.7725
  19   2.0000      -0.508256       -13.8303
  20   2.0000      -0.491443       -13.3728
  21   2.0000      -0.455150       -12.3853
  22   2.0000      -0.446226       -12.1424
  23   2.0000      -0.428871       -11.6702
  24   2.0000      -0.420187       -11.4339
  25   2.0000      -0.374004       -10.1772
  26   2.0000      -0.367628       -10.0037
  27   2.0000      -0.353628        -9.6227
  28   2.0000      -0.328233        -8.9317
  29   2.0000      -0.320994        -8.7347
  30   2.0000      -0.307947        -8.3797
  31   2.0000      -0.301431        -8.2023
  32   2.0000      -0.290226        -7.8974
  33   0.0000       0.016534         0.4499
  34   0.0000       0.049183         1.3383
  35   0.0000       0.075416         2.0522
  36   0.0000       0.081320         2.2128
  37   0.0000       0.100427         2.7327

MULLIKEN ATOMIC CHARGES
-----------------------
   0 C :   -0.285941
   1 O :   -0.265232
   2 S :    1.174705
   3 O :   -0.606247
   4 O :   -0.606297
   5 O :   -0.265129
   6 C :   -0.285980
   7 H :    0.192632
   8 H :    0.188223
   9 H :    0.189215
  10 H :    0.189172
  11 H :    0.192654
  12 H :    0.188225
Sum of atomic charges:   -0.0000000

LOEWDIN ATOMIC CHARGES
----------------------
   0 C :   -0.030338
   1 O :   -0.564489
   2 S :    0.891981
   3 O :   -0.423144
   4 O :   -0.423251
   5 O :   -0.564481
   6 C :   -0.030316
   7 H :    0.197086
   8 H :    0.183989
   9 H :    0.190965
  10 H :    0.190886
  11 H :    0.197112
  12 H :    0.184001

  Mayer bond orders larger than 0.100000
B(  0-C ,  1-O ) :   0.7907 B(  0-C ,  7-H ) :   0.9497 B(  0-C ,  8-H ) :   0.9489
B(  0-C ,  9-H ) :   0.9514 B(  1-O ,  2-S ) :   0.9694 B(  2-S ,  3-O ) :   1.6912
B(  2-S ,  4-O ) :   1.6912 B(  2-S ,  5-O ) :   0.9692 B(  5-O ,  6-C ) :   0.7908
B(  6-C , 10-H ) :   0.9514 B(  6-C , 11-H ) :   0.9496 B(  6-C , 12-H ) :   0.9489

Dispersion correction           -0.003620523
FINAL SINGLE POINT ENERGY      -778.765703101611

DIPOLE MOMENT
-------------

Method             : SCF
Type of density    : Electron Density
Multiplicity       :   1
Irrep              :   0
Energy             :  -778.7861140416030139 Eh
Relativity type    :
Basis              : AO
                                X                 Y                 Z
Electronic contribution:      0.000260939       5.429663107       0.000361408
Nuclear contribution   :     -0.000253830      -7.922660299      -0.000350388
                        -----------------------------------------
Total Dipole Moment    :      0.000007109      -2.492997192       0.000011020
                        -----------------------------------------
Magnitude (a.u.)       :      2.492997192
Magnitude (Debye)      :      6.336695277

Rotational constants in cm-1:             0.101473             0.079560             0.062215
Rotational constants in MHz :          3042.089980          2385.155091          1865.156759

                             ****ORCA TERMINATED NORMALLY****
TOTAL RUN TIME: 0 days 0 hours 0 minutes 25 seconds 73 msec
