                         Program Version 6.0.0  -   RELEASE  -
|  1> ! r2scan-3c def2/J RI DEFGRID2 scfconv6 printgap
|  2> %output
|  3>     printlevel normal
|  4> end
|  5> * xyz 0 1
|  6> C -2.0346957314 0.7336094391 0.7909042735
|  7> C -1.0848539056 0.4895471524 -0.3759852176
|  8> C 0.0330448385 -0.5175207923 -0.0333875721
|  9> C 1.4353519281 0.0478890877 -0.2991150297
| 10> C 1.8293983271 1.1262704741 0.7023774684
| 11> O -0.1483063368 -1.7495530433 -0.7154060842
| 12> H -2.4969109218 -0.1999553419 1.1031654143
| 13> H -1.4977472091 1.1533702338 1.6382982943
| 14> H -2.8199083739 1.4278825379 0.5013434677
| 15> H -1.6560575098 0.0945456242 -1.2188452586
| 16> H -0.6458193926 1.4376157657 -0.6892537553
| 17> H -0.0370431521 -0.7952804446 1.0243510561
| 18> H 2.1468329279 -0.7789590554 -0.2370397439
| 19> H 1.4743542611 0.4515698174 -1.314054256
| 20> H 2.8292019383 1.4922790143 0.4837145543
| 21> H 1.1405535104 1.9660919336 0.6636358636
| 22> H 1.8225696078 0.7242225913 1.7127569935
| 23> H -0.0299371615 -1.60223784 -1.6639965306
| 24> *
| 25>
| 26>                          ****END OF INPUT****

CARTESIAN COORDINATES (ANGSTROEM)
---------------------------------
  C     -2.034696    0.733609    0.790904
  C     -1.084854    0.489547   -0.375985
  C      0.033045   -0.517521   -0.033388
  C      1.435352    0.047889   -0.299115
  C      1.829398    1.126270    0.702377
  O     -0.148306   -1.749553   -0.715406
  H     -2.496911   -0.199955    1.103165
  H     -1.497747    1.153370    1.638298
  H     -2.819908    1.427883    0.501343
  H     -1.656058    0.094546   -1.218845
  H     -0.645819    1.437616   -0.689254
  H     -0.037043   -0.795280    1.024351
  H      2.146833   -0.778959   -0.237040
  H      1.474354    0.451570   -1.314054
  H      2.829202    1.492279    0.483715
  H      1.140554    1.966092    0.663636
  H      1.822570    0.724223    1.712757
  H     -0.029937   -1.602238   -1.663997

 Total Charge           Charge          ....    0
 Multiplicity           Mult            ....    1
 Number of Electrons    NEL             ....   50
 Basis Dimension        Dim             ....  179

ORBITAL ENERGIES
----------------

  NO   OCC          E(Eh)            E(eV)
   0   2.0000     -18.941076      -515.4129
   1   2.0000     -10.076238      -274.1884
   2   2.0000     -10.026156      -272.8256
   3   2.0000     -10.024802      -272.7887
   4   2.0000     -10.021927      -272.7105
   5   2.0000     -10.018353      -272.6133
   6   2.0000      -0.979657       -26.6578
   7   2.0000      -0.761378       -20.7181
   8   2.0000      -0.720835       -19.6149
   9   2.0000      -0.637590       -17.3497
  10   2.0000      -0.580876       -15.8064
  11   2.0000      -0.556127       -15.1330
  12   2.0000      -0.458269       -12.4701
  13   2.0000      -0.427285       -11.6270
  14   2.0000      -0.419632       -11.4188
  15   2.0000      -0.405007       -11.0208
  16   2.0000      -0.381971       -10.3940
  17   2.0000      -0.354789        -9.6543
  18   2.0000      -0.349986        -9.5236
  19   2.0000      -0.329046        -8.9538
  20   2.0000      -0.321788        -8.7563
  21   2.0000      -0.314712        -8.5638
  22   2.0000      -0.296476        -8.0675
  23   2.0000      -0.277801        -7.5594
  24   2.0000      -0.228173        -6.2089
  25   0.0000       0.063318         1.7230
  26   0.0000       0.087746         2.3877
  27   0.0000       0.107766         2.9325
  28   0.0000       0.114828         3.1246
  29   0.0000       0.117813         3.2059

MULLIKEN ATOMIC CHARGES
-----------------------
   0 C :   -0.499120
   1 C :   -0.240339
   2 C :    0.011317
   3 C :   -0.267730
   4 C :   -0.490263
   5 O :   -0.417167
   6 H :    0.154082
   7 H :    0.146904
   8 H :    0.143767
   9 H :    0.143467
  10 H :    0.145156
  11 H :    0.145568
  12 H :    0.158993
  13 H :    0.135034
  14 H :    0.149391
  15 H :    0.144547
  16 H :    0.150432
  17 H :    0.285961
Sum of atomic charges:    0.0000000

LOEWDIN ATOMIC CHARGES
----------------------
   0 C :   -0.419044
   1 C :   -0.296304
   2 C :    0.051232
   3 C :   -0.295511
   4 C :   -0.420165
   5 O :   -0.612515
   6 H :    0.153703
   7 H :    0.148953
   8 H :    0.149592
   9 H :    0.166406
  10 H :    0.154079
  11 H :    0.181757
  12 H :    0.164081
  13 H :    0.153434
  14 H :    0.152760
  15 H :    0.150099
  16 H :    0.152240
  17 H :    0.265203

  Mayer bond orders larger than 0.100000
B(  0-C ,  1-C ) :   0.8987 B(  0-C ,  6-H ) :   0.9788 B(  0-C ,  7-H ) :   0.9831
B(  0-C ,  8-H ) :   0.9721 B(  1-C ,  2-C ) :   0.8441 B(  1-C ,  9-H ) :   0.9611
B(  1-C , 10-H ) :   0.9777 B(  2-C ,  3-C ) :   0.9096 B(  2-C ,  5-O ) :   0.9397
B(  2-C , 11-H ) :   0.9899 B(  3-C ,  4-C ) :   0.8942 B(  3-C , 12-H ) :   0.9784
B(  3-C , 13-H ) :   0.9603 B(  4-C , 14-H ) :   0.9673 B(  4-C , 15-H ) :   0.9734
B(  4-C , 16-H ) :   0.9858 B(  5-O , 17-H ) :   0.8989

Dispersion correction           -0.004311107
FINAL SINGLE POINT ENERGY      -272.897541282361

DIPOLE MOMENT
-------------

Method             : SCF
Type of density    : Electron Density
Multiplicity       :   1
Irrep              :   0
Energy             :  -272.9028483259359064 Eh
Relativity type    :
Basis              : AO
                                X                 Y                 Z
Electronic contribution:     -0.073343951      -4.449102677      -2.122379320
Nuclear contribution   :      0.213659752       5.013048570       1.869534355
                        -----------------------------------------
Total Dipole Moment    :      0.140315802       0.563945893      -0.252844965
                        -----------------------------------------
Magnitude (a.u.)       :      0.633761840
Magnitude (Debye)      :      1.610894578

Rotational constants in cm-1:             0.127271             0.090248             0.059462
Rotational constants in MHz :          3815.486601          2705.562242          1782.623804

                             ****ORCA TERMINATED NORMALLY****
TOTAL RUN TIME: 0 days 0 hours 0 minutes 21 seconds 749 msec
