                         Program Version 6.0.0  -   RELEASE  -
|  1> ! r2scan-3c def2/J RI DEFGRID2 scfconv6 printgap
|  2> %output
|  3>     printlevel normal
|  4> end
|  5> %cpcm
|  6>     smd true
|  7>     smdsolvent "water"
|  8> end
|  9> * xyz 0 1
| 10> C -2.0346957314 0.7336094391 0.7909042735
| 11> C -1.0848539056 0.4895471524 -0.3759852176
| 12> C 0.0330448385 -0.5175207923 -0.0333875721
| 13> C 1.4353519281 0.0478890877 -0.2991150297
| 14> C 1.8293983271 1.1262704741 0.7023774684
| 15> O -0.1483063368 -1.7495530433 -0.7154060842
| 16> H -2.4969109218 -0.1999553419 1.1031654143
| 17> H -1.4977472091 1.1533702338 1.6382982943
| 18> H -2.8199083739 1.4278825379 0.5013434677
| 19> H -1.6560575098 0.0945456242 -1.2188452586
| 20> H -0.6458193926 1.4376157657 -0.6892537553
| 21> H -0.0370431521 -0.7952804446 1.0243510561
| 22> H 2.1468329279 -0.7789590554 -0.2370397439
| 23> H 1.4743542611 0.4515698174 -1.314054256
| 24> H 2.8292019383 1.4922790143 0.4837145543
| 25> H 1.1405535104 1.9660919336 0.6636358636
| 26> H 1.8225696078 0.7242225913 1.7127569935
| 27> H -0.0299371615 -1.60223784 -1.6639965306
| 28> *
| 29>
| 30>                          ****END OF INPUT****

CARTESIAN COORDINATES (ANGSTROEM)
---------------------------------
  C     -2.034696    0.733609    0.790904
  C     -1.084854    0.489547   -0.375985
  C      0.033045   -0.517521   -0.033388
  C      1.435352    0.047889   -0.299115
  C      1.829398    1.126270    0.702377
  O     -0.148306   -1.749553   -0.715406
  H     -2.496911   -0.199955    1.103165
  H     -1.497747    1.153370    1.638298
  H     -2.819908    1.427883    0.501343
  H     -1.656058    0.094546   -1.218845
  H     -0.645819    1.437616   -0.689254
  H     -0.037043   -0.795280    1.024351
  H      2.146833   -0.778959   -0.237040
  H      1.474354    0.451570   -1.314054
  H      2.829202    1.492279    0.483715
  H      1.140554    1.966092    0.663636
  H      1.822570    0.724223    1.712757
  H     -0.029937   -1.602238   -1.663997

 Total Charge           Charge          ....    0
 Multiplicity           Mult            ....    1
 Number of Electrons    NEL             ....   50
 Basis Dimension        Dim             ....  179

ORBITAL ENERGIES
----------------

  NO   OCC          E(Eh)            E(eV)
   0   2.0000     -18.946064      -515.5486
   1   2.0000     -10.071308      -274.0542
   2   2.0000     -10.016870      -272.5729
   3   2.0000     -10.015593      -272.5381
   4   2.0000     -10.010565      -272.4013
   5   2.0000     -10.009621      -272.3756
   6   2.0000      -0.983264       -26.7560
   7   2.0000      -0.753340       -20.4994
   8   2.0000      -0.711676       -19.3657
   9   2.0000      -0.630650       -17.1609
  10   2.0000      -0.572179       -15.5698
  11   2.0000      -0.550103       -14.9691
  12   2.0000      -0.452872       -12.3233
  13   2.0000      -0.419953       -11.4275
  14   2.0000      -0.412611       -11.2277
  15   2.0000      -0.400517       -10.8986
  16   2.0000      -0.374556       -10.1922
  17   2.0000      -0.346878        -9.4390
  18   2.0000      -0.342722        -9.3259
  19   2.0000      -0.323065        -8.7911
  20   2.0000      -0.312527        -8.5043
  21   2.0000      -0.307637        -8.3712
  22   2.0000      -0.288445        -7.8490
  23   2.0000      -0.275474        -7.4960
  24   2.0000      -0.232340        -6.3223
  25   0.0000       0.076867         2.0917
  26   0.0000       0.098956         2.6927
  27   0.0000       0.115464         3.1419
  28   0.0000       0.125523         3.4156
  29   0.0000       0.128932         3.5084

MULLIKEN ATOMIC CHARGES
-----------------------
   0 C :   -0.524180
   1 C :   -0.270849
   2 C :    0.035352
   3 C :   -0.275207
   4 C :   -0.525270
   5 O :   -0.511356
   6 H :    0.155557
   7 H :    0.158977
   8 H :    0.155156
   9 H :    0.156704
  10 H :    0.160720
  11 H :    0.154638
  12 H :    0.152949
  13 H :    0.155130
  14 H :    0.160137
  15 H :    0.158207
  16 H :    0.160094
  17 H :    0.343241
Sum of atomic charges:   -0.0000000

LOEWDIN ATOMIC CHARGES
----------------------
   0 C :   -0.426573
   1 C :   -0.295579
   2 C :    0.050985
   3 C :   -0.293650
   4 C :   -0.426189
   5 O :   -0.652195
   6 H :    0.152913
   7 H :    0.152494
   8 H :    0.152492
   9 H :    0.169270
  10 H :    0.160725
  11 H :    0.184408
  12 H :    0.162049
  13 H :    0.160579
  14 H :    0.155439
  15 H :    0.154462
  16 H :    0.154578
  17 H :    0.283794

  Mayer bond orders larger than 0.100000
B(  0-C ,  1-C ) :   0.8886 B(  0-C ,  6-H ) :   0.9765 B(  0-C ,  7-H ) :   0.9796
B(  0-C ,  8-H ) :   0.9704 B(  1-C ,  2-C ) :   0.8390 B(  1-C ,  9-H ) :   0.9682
B(  1-C , 10-H ) :   0.9732 B(  2-C ,  3-C ) :   0.9062 B(  2-C ,  5-O ) :   0.9204
B(  2-C , 11-H ) :   0.9894 B(  3-C ,  4-C ) :   0.8884 B(  3-C , 12-H ) :   0.9770
B(  3-C , 13-H ) :   0.9620 B(  4-C , 14-H ) :   0.9651 B(  4-C , 15-H ) :   0.9709
B(  4-C , 16-H ) :   0.9822 B(  5-O , 17-H ) :   0.8713

Dispersion correction           -0.004311107
FINAL SINGLE POINT ENERGY      -272.903848568669

DIPOLE MOMENT
-------------

Method             : SCF
Type of density    : Electron Density
Multiplicity       :   1
Irrep              :   0
Energy             :  -272.9091556122440352 Eh
Relativity type    :
Basis              : AO
                                X                 Y                 Z
Electronic contribution:     -0.013808041      -4.195357329      -2.260302405
Nuclear contribution   :      0.213659752       5.013048570       1.869534355
                        -----------------------------------------
Total Dipole Moment    :      0.199851711       0.817691241      -0.390768050
                        -----------------------------------------
Magnitude (a.u.)       :      0.928040592
Magnitude (Debye)      :      2.358891721

Rotational constants in cm-1:             0.127271             0.090248             0.059462
Rotational constants in MHz :          3815.486601          2705.562242          1782.623804

                             ****ORCA TERMINATED NORMALLY****
TOTAL RUN TIME: 0 days 0 hours 0 minutes 25 seconds 429 msec
