                         Program Version 6.0.0  -   RELEASE  -
|  1> ! pbe def2-sv(p) def2/J RI DEFGRID1 loosescf d4 GCP(DFT/SV(P)) printgap
|  2> %output
|  3>     printlevel normal
|  4> end
|  5> * xyz 0 1
|  6> C -0.3004988228 -2.7618562355 -0.1789743352
|  7> C 0.4980434635 -1.5044810598 -0.0520402792
|  8> C 1.8643408887 -1.4335713959 -0.3684358233
|  9> N 2.5584484851 -0.3176278914 -0.2424987514
| 10> C 1.9295124218 0.7832161746 0.1994482181
| 11> N 0.6160892646 0.8252400442 0.4974851021
| 12> C -0.0536313795 -0.2992154409 0.3606062123
| 13> O -1.4003508405 -0.2150283649 0.7078547285
| 14> C -2.2745102509 -0.063201505 -0.3288881437
| 15> O -1.9112271188 -0.0784727257 -1.4962006552
| 16> N -3.535715702 0.0866574249 0.0775247733
| 17> C -4.595598634 0.2386840879 -0.8968145527
| 18> C -3.9466638773 0.1090535855 1.4647511004
| 19> N 2.6449972682 1.9016480197 0.3512743779
| 20> C 2.052166541 3.1370198735 0.8008647896
| 21> C 4.0521366896 1.9536199817 0.0358608315
| 22> C 2.6044305182 -2.6299786663 -0.8684683992
| 23> H 0.2530876088 -3.6084294496 0.2198937839
| 24> H -1.2402047716 -2.6668684555 0.3605963771
| 25> H -0.5265072905 -2.9575308733 -1.2277008916
| 26> H -5.3247032206 -0.5623821664 -0.7745394917
| 27> H -4.1611201488 0.1905699383 -1.8922967575
| 28> H -5.0880495914 1.2014089634 -0.759105301
| 29> H -4.5120524546 1.0213453915 1.6552098635
| 30> H -3.0734760599 0.0831998235 2.1086158739
| 31> H -4.5803974089 -0.7540779423 1.6736749989
| 32> H 2.5533785492 3.4764197068 1.7087965503
| 33> H 0.9994492804 2.9690518674 1.0039838332
| 34> H 2.1583478188 3.902017763 0.0294599629
| 35> H 4.6135829357 2.2668818035 0.917237034
| 36> H 4.2253859489 2.670660894 -0.7684959968
| 37> H 4.3778457569 0.9670458202 -0.2771753084
| 38> H 3.6216071616 -2.3464655156 -1.1170527499
| 39> H 2.6215707082 -3.402883041 -0.102775244
| 40> H 2.1075857532 -3.0333782029 -1.747590352
| 41> *
| 42>
| 43>                          ****END OF INPUT****

CARTESIAN COORDINATES (ANGSTROEM)
---------------------------------
  C     -0.300499   -2.761856   -0.178974
  C      0.498043   -1.504481   -0.052040
  C      1.864341   -1.433571   -0.368436
  N      2.558448   -0.317628   -0.242499
  C      1.929512    0.783216    0.199448
  N      0.616089    0.825240    0.497485
  C     -0.053631   -0.299215    0.360606
  O     -1.400351   -0.215028    0.707855
  C     -2.274510   -0.063202   -0.328888
  O     -1.911227   -0.078473   -1.496201
  N     -3.535716    0.086657    0.077525
  C     -4.595599    0.238684   -0.896815
  C     -3.946664    0.109054    1.464751
  N      2.644997    1.901648    0.351274
  C      2.052167    3.137020    0.800865
  C      4.052137    1.953620    0.035861
  C      2.604431   -2.629979   -0.868468
  H      0.253088   -3.608429    0.219894
  H     -1.240205   -2.666868    0.360596
  H     -0.526507   -2.957531   -1.227701
  H     -5.324703   -0.562382   -0.774539
  H     -4.161120    0.190570   -1.892297
  H     -5.088050    1.201409   -0.759105
  H     -4.512052    1.021345    1.655210
  H     -3.073476    0.083200    2.108616
  H     -4.580397   -0.754078    1.673675
  H      2.553379    3.476420    1.708797
  H      0.999449    2.969052    1.003984
  H      2.158348    3.902018    0.029460
  H      4.613583    2.266882    0.917237
  H      4.225386    2.670661   -0.768496
  H      4.377846    0.967046   -0.277175
  H      3.621607   -2.346466   -1.117053
  H      2.621571   -3.402883   -0.102775
  H      2.107586   -3.033378   -1.747590

 Total Charge           Charge          ....    0
 Multiplicity           Mult            ....    1
 Number of Electrons    NEL             ....  128
 Basis Dimension        Dim             ....  274

ORBITAL ENERGIES
----------------

  NO   OCC          E(Eh)            E(eV)
   0   2.0000     -18.793169      -511.3881
   1   2.0000     -18.710708      -509.1443
   2   2.0000     -14.028314      -381.7298
   3   2.0000     -14.018292      -381.4571
   4   2.0000     -13.969978      -380.1424
   5   2.0000     -13.965586      -380.0229
   6   2.0000     -10.017344      -272.5858
   7   2.0000      -9.975325      -271.4424
   8   2.0000      -9.973063      -271.3808
   9   2.0000      -9.931003      -270.2363
  10   2.0000      -9.920460      -269.9494
  11   2.0000      -9.916932      -269.8534
  12   2.0000      -9.906979      -269.5826
  13   2.0000      -9.906331      -269.5650
  14   2.0000      -9.889340      -269.1026
  15   2.0000      -9.880554      -268.8635
  16   2.0000      -9.878043      -268.7952
  17   2.0000      -1.006590       -27.3907
  18   2.0000      -0.914922       -24.8963
  19   2.0000      -0.900641       -24.5077
  20   2.0000      -0.856749       -23.3133
  21   2.0000      -0.840338       -22.8668
  22   2.0000      -0.790051       -21.4984
  23   2.0000      -0.721651       -19.6371
  24   2.0000      -0.666648       -18.1404
  25   2.0000      -0.658339       -17.9143
  26   2.0000      -0.651969       -17.7410
  27   2.0000      -0.643176       -17.5017
  28   2.0000      -0.634992       -17.2790
  29   2.0000      -0.586799       -15.9676
  30   2.0000      -0.568452       -15.4684
  31   2.0000      -0.522477       -14.2173
  32   2.0000      -0.502616       -13.6769
  33   2.0000      -0.482777       -13.1370
  34   2.0000      -0.479991       -13.0612
  35   2.0000      -0.453381       -12.3371
  36   2.0000      -0.437218       -11.8973
  37   2.0000      -0.431013       -11.7285
  38   2.0000      -0.425783       -11.5861
  39   2.0000      -0.404528       -11.0078
  40   2.0000      -0.398982       -10.8569
  41   2.0000      -0.391006       -10.6398
  42   2.0000      -0.375143       -10.2082
  43   2.0000      -0.370746       -10.0885
  44   2.0000      -0.366136        -9.9631
  45   2.0000      -0.363771        -9.8987
  46   2.0000      -0.357901        -9.7390
  47   2.0000      -0.357498        -9.7280
  48   2.0000      -0.353277        -9.6132
  49   2.0000      -0.352849        -9.6015
  50   2.0000      -0.347308        -9.4507
  51   2.0000      -0.343204        -9.3390
  52   2.0000      -0.337442        -9.1823
  53   2.0000      -0.337088        -9.1726
  54   2.0000      -0.330292        -8.9877
  55   2.0000      -0.322186        -8.7671
  56   2.0000      -0.257944        -7.0190
  57   2.0000      -0.254974        -6.9382
  58   2.0000      -0.250898        -6.8273
  59   2.0000      -0.247923        -6.7463
  60   2.0000      -0.213272        -5.8034
  61   2.0000      -0.204849        -5.5742
  62   2.0000      -0.190045        -5.1714
  63   2.0000      -0.170532        -4.6404
  64   0.0000      -0.042128        -1.1464
  65   0.0000      -0.013854        -0.3770
  66   0.0000       0.025799         0.7020
  67   0.0000       0.032956         0.8968
  68   0.0000       0.045170         1.2291

MULLIKEN ATOMIC CHARGES
-----------------------
   0 C :   -0.189081
   1 C :   -0.105189
   2 C :   -0.125597
   3 N :   -0.102741
   4 C :    0.053601
   5 N :   -0.086752
   6 C :    0.088022
   7 O :   -0.256805
   8 C :    0.225772
   9 O :   -0.252796
  10 N :   -0.243897
  11 C :   -0.169368
  12 C :   -0.173328
  13 N :   -0.206485
  14 C :   -0.167297
  15 C :   -0.167467
  16 C :   -0.192769
  17 H :    0.099865
  18 H :    0.105905
  19 H :    0.117649
  20 H :    0.106567
  21 H :    0.145286
  22 H :    0.109208
  23 H :    0.107423
  24 H :    0.148136
  25 H :    0.107259
  26 H :    0.101108
  27 H :    0.142272
  28 H :    0.103041
  29 H :    0.100521
  30 H :    0.102231
  31 H :    0.140152
  32 H :    0.105915
  33 H :    0.115626
  34 H :    0.114014
Sum of atomic charges:   -0.0000000

LOEWDIN ATOMIC CHARGES
----------------------
   0 C :   -0.323335
   1 C :   -0.123285
   2 C :    0.009291
   3 N :   -0.119669
   4 C :    0.031232
   5 N :   -0.118627
   6 C :    0.068141
   7 O :   -0.060410
   8 C :    0.042647
   9 O :   -0.217650
  10 N :   -0.059516
  11 C :   -0.246525
  12 C :   -0.250979
  13 N :   -0.037726
  14 C :   -0.253234
  15 C :   -0.254240
  16 C :   -0.331083
  17 H :    0.124519
  18 H :    0.126617
  19 H :    0.135269
  20 H :    0.115095
  21 H :    0.138759
  22 H :    0.116113
  23 H :    0.116210
  24 H :    0.135054
  25 H :    0.114451
  26 H :    0.112813
  27 H :    0.135084
  28 H :    0.113799
  29 H :    0.112613
  30 H :    0.113252
  31 H :    0.133638
  32 H :    0.131122
  33 H :    0.135232
  34 H :    0.135328

  Mayer bond orders larger than 0.100000
B(  0-C ,  1-C ) :   1.1677 B(  0-C , 17-H ) :   0.9219 B(  0-C , 18-H ) :   0.9249
B(  0-C , 19-H ) :   0.9179 B(  1-C ,  2-C ) :   1.3024 B(  1-C ,  6-C ) :   1.3710
B(  2-C ,  3-N ) :   1.6083 B(  2-C , 16-C ) :   1.1571 B(  3-N ,  4-C ) :   1.4174
B(  4-C ,  5-N ) :   1.3986 B(  4-C , 13-N ) :   1.2112 B(  5-N ,  6-C ) :   1.5863
B(  6-C ,  7-O ) :   1.0102 B(  7-O ,  8-C ) :   1.0491 B(  8-C ,  9-O ) :   1.9792
B(  8-C , 10-N ) :   1.2014 B( 10-N , 11-C ) :   1.0124 B( 10-N , 12-C ) :   1.0070
B( 11-C , 20-H ) :   0.9522 B( 11-C , 21-H ) :   0.9328 B( 11-C , 22-H ) :   0.9525
B( 12-C , 23-H ) :   0.9492 B( 12-C , 24-H ) :   0.9392 B( 12-C , 25-H ) :   0.9502
B( 13-N , 14-C ) :   1.0183 B( 13-N , 15-C ) :   1.0179 B( 14-C , 26-H ) :   0.9499
B( 14-C , 27-H ) :   0.9247 B( 14-C , 28-H ) :   0.9493 B( 15-C , 29-H ) :   0.9499
B( 15-C , 30-H ) :   0.9495 B( 15-C , 31-H ) :   0.9228 B( 16-C , 32-H ) :   0.9276
B( 16-C , 33-H ) :   0.9232 B( 16-C , 34-H ) :   0.9226

Dispersion correction           -0.039626217
FINAL SINGLE POINT ENERGY      -797.789112013525

DIPOLE MOMENT
-------------

Method             : SCF
Type of density    : Electron Density
Multiplicity       :   1
Irrep              :   0
Energy             :  -797.9085014151266932 Eh
Relativity type    :
Basis              : AO
                                X                 Y                 Z
Electronic contribution:      0.484053170       0.590144260      -0.248180999
Nuclear contribution   :     -0.950947515      -0.537998897       0.940310956
                        -----------------------------------------
Total Dipole Moment    :     -0.466894344       0.052145362       0.692129957
                        -----------------------------------------
Magnitude (a.u.)       :      0.836512609
Magnitude (Debye)      :      2.126246077

Rotational constants in cm-1:             0.024674             0.009720             0.007663
Rotational constants in MHz :           739.712156           291.396164           229.734458

                             ****ORCA TERMINATED NORMALLY****
TOTAL RUN TIME: 0 days 0 hours 0 minutes 24 seconds 549 msec
