                         Program Version 6.0.0  -   RELEASE  -
|  1> ! pbe def2-sv(p) def2/J RI DEFGRID1 loosescf d4 GCP(DFT/SV(P)) printgap
|  2> %output
|  3>     printlevel normal
|  4> end
|  5> * xyz 0 1
|  6> C 1.4921871771 -0.943272844 0.7523112206
|  7> C 1.0848342113 -0.2471090187 -0.54335126
|  8> C 2.2948084948 0.4141321954 -1.1988012303
|  9> C 0.0008196996 0.812365436 -0.2698667915
| 10> C -1.2525581417 0.2213759592 0.3254519759
| 11> O -1.576213666 0.4300810634 1.4797323947
| 12> C -2.0744234093 -0.6371062627 -0.5903862187
| 13> H 2.2370449989 -1.7101891949 0.5546725829
| 14> H 1.9148818988 -0.2243102374 1.4507974868
| 15> H 0.6333910057 -1.4101242078 1.2307745039
| 16> H 0.6827221235 -0.9931444575 -1.2352583172
| 17> H 2.7124246112 1.1759166783 -0.5445895068
| 18> H 2.0163357078 0.8819150979 -2.1396809859
| 19> H 3.0652461883 -0.3265667178 -1.3972502011
| 20> H -0.2551019431 1.3058756777 -1.2078444493
| 21> H 0.3964662308 1.5536981166 0.4271742385
| 22> H -2.3037833222 -0.0940436039 -1.502749443
| 23> H -1.5051077342 -1.5231379648 -0.8610587223
| 24> H -2.9932158684 -0.9391819629 -0.095308412
| 25> *
| 26>
| 27>                          ****END OF INPUT****

CARTESIAN COORDINATES (ANGSTROEM)
---------------------------------
  C      1.492187   -0.943273    0.752311
  C      1.084834   -0.247109   -0.543351
  C      2.294808    0.414132   -1.198801
  C      0.000820    0.812365   -0.269867
  C     -1.252558    0.221376    0.325452
  O     -1.576214    0.430081    1.479732
  C     -2.074423   -0.637106   -0.590386
  H      2.237045   -1.710189    0.554673
  H      1.914882   -0.224310    1.450797
  H      0.633391   -1.410124    1.230775
  H      0.682722   -0.993144   -1.235258
  H      2.712425    1.175917   -0.544590
  H      2.016336    0.881915   -2.139681
  H      3.065246   -0.326567   -1.397250
  H     -0.255102    1.305876   -1.207844
  H      0.396466    1.553698    0.427174
  H     -2.303783   -0.094044   -1.502749
  H     -1.505108   -1.523138   -0.861059
  H     -2.993216   -0.939182   -0.095308

 Total Charge           Charge          ....    0
 Multiplicity           Mult            ....    1
 Number of Electrons    NEL             ....   56
 Basis Dimension        Dim             ....  122

ORBITAL ENERGIES
----------------

  NO   OCC          E(Eh)            E(eV)
   0   2.0000     -18.733393      -509.7615
   1   2.0000      -9.970833      -271.3201
   2   2.0000      -9.911131      -269.6956
   3   2.0000      -9.889657      -269.1113
   4   2.0000      -9.885831      -269.0071
   5   2.0000      -9.880930      -268.8738
   6   2.0000      -9.877735      -268.7868
   7   2.0000      -0.930584       -25.3225
   8   2.0000      -0.743512       -20.2320
   9   2.0000      -0.678761       -18.4700
  10   2.0000      -0.626412       -17.0455
  11   2.0000      -0.618017       -16.8171
  12   2.0000      -0.516502       -14.0547
  13   2.0000      -0.471633       -12.8338
  14   2.0000      -0.428158       -11.6508
  15   2.0000      -0.416819       -11.3422
  16   2.0000      -0.409525       -11.1437
  17   2.0000      -0.385693       -10.4952
  18   2.0000      -0.377394       -10.2694
  19   2.0000      -0.359719        -9.7884
  20   2.0000      -0.346456        -9.4276
  21   2.0000      -0.331606        -9.0235
  22   2.0000      -0.330142        -8.9836
  23   2.0000      -0.319372        -8.6906
  24   2.0000      -0.302626        -8.2349
  25   2.0000      -0.295404        -8.0383
  26   2.0000      -0.288328        -7.8458
  27   2.0000      -0.190640        -5.1876
  28   0.0000      -0.048733        -1.3261
  29   0.0000       0.024124         0.6564
  30   0.0000       0.054716         1.4889
  31   0.0000       0.071818         1.9543
  32   0.0000       0.077635         2.1125

MULLIKEN ATOMIC CHARGES
-----------------------
   0 C :   -0.242389
   1 C :   -0.250566
   2 C :   -0.221706
   3 C :   -0.084013
   4 C :   -0.017813
   5 O :   -0.168556
   6 C :   -0.259651
   7 H :    0.102300
   8 H :    0.101388
   9 H :    0.119128
  10 H :    0.082301
  11 H :    0.097667
  12 H :    0.097542
  13 H :    0.102888
  14 H :    0.092527
  15 H :    0.084038
  16 H :    0.116561
  17 H :    0.130791
  18 H :    0.117565
Sum of atomic charges:   -0.0000000

LOEWDIN ATOMIC CHARGES
----------------------
   0 C :   -0.330302
   1 C :   -0.152438
   2 C :   -0.327104
   3 C :   -0.237818
   4 C :    0.039337
   5 O :   -0.132329
   6 C :   -0.363400
   7 H :    0.119519
   8 H :    0.122427
   9 H :    0.121675
  10 H :    0.113581
  11 H :    0.119476
  12 H :    0.117338
  13 H :    0.119762
  14 H :    0.127867
  15 H :    0.127695
  16 H :    0.138582
  17 H :    0.141485
  18 H :    0.134646

  Mayer bond orders larger than 0.100000
B(  0-C ,  1-C ) :   1.1065 B(  0-C ,  7-H ) :   0.9501 B(  0-C ,  8-H ) :   0.9483
B(  0-C ,  9-H ) :   0.9399 B(  1-C ,  2-C ) :   1.1165 B(  1-C ,  3-C ) :   1.0671
B(  1-C , 10-H ) :   0.9004 B(  2-C , 11-H ) :   0.9479 B(  2-C , 12-H ) :   0.9491
B(  2-C , 13-H ) :   0.9506 B(  3-C ,  4-C ) :   1.0081 B(  3-C , 14-H ) :   0.8986
B(  3-C , 15-H ) :   0.8901 B(  4-C ,  5-O ) :   2.1828 B(  4-C ,  6-C ) :   1.0562
B(  6-C , 16-H ) :   0.9263 B(  6-C , 17-H ) :   0.9213 B(  6-C , 18-H ) :   0.9329

Dispersion correction           -0.015081602
FINAL SINGLE POINT ENERGY      -310.355846495935

DIPOLE MOMENT
-------------

Method             : SCF
Type of density    : Electron Density
Multiplicity       :   1
Irrep              :   0
Energy             :  -310.4200956672498251 Eh
Relativity type    :
Basis              : AO
                                X                 Y                 Z
Electronic contribution:     -5.784589125       1.905070010       3.989604396
Nuclear contribution   :      6.169731284      -2.154489081      -4.969389202
                        -----------------------------------------
Total Dipole Moment    :      0.385142159      -0.249419071      -0.979784807
                        -----------------------------------------
Magnitude (a.u.)       :      1.081906938
Magnitude (Debye)      :      2.749988892

Rotational constants in cm-1:             0.145492             0.052282             0.048362
Rotational constants in MHz :          4361.755225          1567.378220          1449.867216

                             ****ORCA TERMINATED NORMALLY****
TOTAL RUN TIME: 0 days 0 hours 0 minutes 9 seconds 649 msec
