                         Program Version 6.0.0  -   RELEASE  -
|  1> ! r2scan-3c def2/J RI DEFGRID2 scfconv6 printgap
|  2> %output
|  3>     printlevel normal
|  4> end
|  5> * xyz 0 1
|  6> C 2.2107374076 0.7274638479 0.1996283333
|  7> C 1.6291547205 -0.531100765 -0.4325989489
|  8> C 0.2652886759 -0.9178193463 0.1425523721
|  9> C -0.8884505464 -0.0137677146 -0.3083657618
| 10> H -0.7767022283 0.1945962543 -1.3862945465
| 11> C -2.2364615743 -0.6978793748 -0.0720085742
| 12> O -0.8111705411 1.2088966126 0.4078596379
| 13> H 1.5211393425 1.5595205094 0.0924561162
| 14> H 3.1552383432 0.9886820921 -0.2720271855
| 15> H 2.385632317 0.5696682457 1.2614485662
| 16> H 1.5334671437 -0.3871383405 -1.5114853536
| 17> H 2.3204075587 -1.3613480233 -0.2701867246
| 18> H 0.0310827636 -1.9371565792 -0.1675722661
| 19> H 0.3085918358 -0.8906626289 1.2326266183
| 20> H -3.0535799785 -0.0510236225 -0.3844413199
| 21> H -2.2922255186 -1.6215038253 -0.6402616746
| 22> H -2.3537993772 -0.9241018067 0.9851466839
| 23> H -1.5844562881 1.7485358944 0.1965968241
| 24> *
| 25>
| 26>                          ****END OF INPUT****

CARTESIAN COORDINATES (ANGSTROEM)
---------------------------------
  C      2.210737    0.727464    0.199628
  C      1.629155   -0.531101   -0.432599
  C      0.265289   -0.917819    0.142552
  C     -0.888451   -0.013768   -0.308366
  H     -0.776702    0.194596   -1.386295
  C     -2.236462   -0.697879   -0.072009
  O     -0.811171    1.208897    0.407860
  H      1.521139    1.559521    0.092456
  H      3.155238    0.988682   -0.272027
  H      2.385632    0.569668    1.261449
  H      1.533467   -0.387138   -1.511485
  H      2.320408   -1.361348   -0.270187
  H      0.031083   -1.937157   -0.167572
  H      0.308592   -0.890663    1.232627
  H     -3.053580   -0.051024   -0.384441
  H     -2.292226   -1.621504   -0.640262
  H     -2.353799   -0.924102    0.985147
  H     -1.584456    1.748536    0.196597

 Total Charge           Charge          ....    0
 Multiplicity           Mult            ....    1
 Number of Electrons    NEL             ....   50
 Basis Dimension        Dim             ....  179

ORBITAL ENERGIES
----------------

  NO   OCC          E(Eh)            E(eV)
   0   2.0000     -18.945625      -515.5367
   1   2.0000     -10.080927      -274.3160
   2   2.0000     -10.020901      -272.6826
   3   2.0000     -10.020653      -272.6758
   4   2.0000     -10.019066      -272.6326
   5   2.0000     -10.000908      -272.1385
   6   2.0000      -0.984184       -26.7810
   7   2.0000      -0.759335       -20.6625
   8   2.0000      -0.710434       -19.3319
   9   2.0000      -0.643399       -17.5078
  10   2.0000      -0.575774       -15.6676
  11   2.0000      -0.532345       -14.4858
  12   2.0000      -0.478620       -13.0239
  13   2.0000      -0.424815       -11.5598
  14   2.0000      -0.415729       -11.3126
  15   2.0000      -0.389115       -10.5883
  16   2.0000      -0.381266       -10.3748
  17   2.0000      -0.356407        -9.6983
  18   2.0000      -0.343749        -9.3539
  19   2.0000      -0.333968        -9.0877
  20   2.0000      -0.313194        -8.5224
  21   2.0000      -0.298345        -8.1184
  22   2.0000      -0.292843        -7.9687
  23   2.0000      -0.271050        -7.3757
  24   2.0000      -0.233598        -6.3565
  25   0.0000       0.061107         1.6628
  26   0.0000       0.105096         2.8598
  27   0.0000       0.114295         3.1101
  28   0.0000       0.127503         3.4695
  29   0.0000       0.136128         3.7042

MULLIKEN ATOMIC CHARGES
-----------------------
   0 C :   -0.489990
   1 C :   -0.253552
   2 C :   -0.244543
   3 C :    0.032137
   4 H :    0.125127
   5 C :   -0.488342
   6 O :   -0.417738
   7 H :    0.176477
   8 H :    0.138647
   9 H :    0.138417
  10 H :    0.128519
  11 H :    0.140744
  12 H :    0.137568
  13 H :    0.151019
  14 H :    0.134577
  15 H :    0.146889
  16 H :    0.158950
  17 H :    0.285095
Sum of atomic charges:   -0.0000000

LOEWDIN ATOMIC CHARGES
----------------------
   0 C :   -0.425238
   1 C :   -0.312210
   2 C :   -0.277523
   3 C :    0.047622
   4 H :    0.159193
   5 C :   -0.401561
   6 O :   -0.623277
   7 H :    0.168020
   8 H :    0.145376
   9 H :    0.149704
  10 H :    0.151091
  11 H :    0.150231
  12 H :    0.161332
  13 H :    0.170217
  14 H :    0.149982
  15 H :    0.157402
  16 H :    0.162072
  17 H :    0.267567

  Mayer bond orders larger than 0.100000
B(  0-C ,  1-C ) :   0.9040 B(  0-C ,  7-H ) :   0.9756 B(  0-C ,  8-H ) :   0.9745
B(  0-C ,  9-H ) :   0.9795 B(  1-C ,  2-C ) :   0.9026 B(  1-C , 10-H ) :   0.9857
B(  1-C , 11-H ) :   0.9722 B(  2-C ,  3-C ) :   0.9340 B(  2-C , 12-H ) :   0.9678
B(  2-C , 13-H ) :   0.9723 B(  3-C ,  4-H ) :   0.9651 B(  3-C ,  5-C ) :   0.9160
B(  3-C ,  6-O ) :   0.8770 B(  5-C , 14-H ) :   0.9726 B(  5-C , 15-H ) :   0.9731
B(  5-C , 16-H ) :   0.9805 B(  6-O , 17-H ) :   0.9021

Dispersion correction           -0.004256133
FINAL SINGLE POINT ENERGY      -272.900608687091

DIPOLE MOMENT
-------------

Method             : SCF
Type of density    : Electron Density
Multiplicity       :   1
Irrep              :   0
Energy             :  -272.9059645155664953 Eh
Relativity type    :
Basis              : AO
                                X                 Y                 Z
Electronic contribution:     -1.598020641       1.803445141       0.468170736
Nuclear contribution   :      1.108875932      -1.963397057      -0.804515171
                        -----------------------------------------
Total Dipole Moment    :     -0.489144709      -0.159951917      -0.336344435
                        -----------------------------------------
Magnitude (a.u.)       :      0.614796504
Magnitude (Debye)      :      1.562688523

Rotational constants in cm-1:             0.209147             0.071644             0.058110
Rotational constants in MHz :          6270.075348          2147.830820          1742.090929

                             ****ORCA TERMINATED NORMALLY****
TOTAL RUN TIME: 0 days 0 hours 0 minutes 22 seconds 840 msec
