                         Program Version 6.0.0  -   RELEASE  -
|  1> ! r2scan-3c def2/J RI DEFGRID2 scfconv6 printgap
|  2> %output
|  3>     printlevel normal
|  4> end
|  5> %cpcm
|  6>     smd true
|  7>     smdsolvent "water"
|  8> end
|  9> * xyz 0 1
| 10> C 2.2107374076 0.7274638479 0.1996283333
| 11> C 1.6291547205 -0.531100765 -0.4325989489
| 12> C 0.2652886759 -0.9178193463 0.1425523721
| 13> C -0.8884505464 -0.0137677146 -0.3083657618
| 14> H -0.7767022283 0.1945962543 -1.3862945465
| 15> C -2.2364615743 -0.6978793748 -0.0720085742
| 16> O -0.8111705411 1.2088966126 0.4078596379
| 17> H 1.5211393425 1.5595205094 0.0924561162
| 18> H 3.1552383432 0.9886820921 -0.2720271855
| 19> H 2.385632317 0.5696682457 1.2614485662
| 20> H 1.5334671437 -0.3871383405 -1.5114853536
| 21> H 2.3204075587 -1.3613480233 -0.2701867246
| 22> H 0.0310827636 -1.9371565792 -0.1675722661
| 23> H 0.3085918358 -0.8906626289 1.2326266183
| 24> H -3.0535799785 -0.0510236225 -0.3844413199
| 25> H -2.2922255186 -1.6215038253 -0.6402616746
| 26> H -2.3537993772 -0.9241018067 0.9851466839
| 27> H -1.5844562881 1.7485358944 0.1965968241
| 28> *
| 29>
| 30>                          ****END OF INPUT****

CARTESIAN COORDINATES (ANGSTROEM)
---------------------------------
  C      2.210737    0.727464    0.199628
  C      1.629155   -0.531101   -0.432599
  C      0.265289   -0.917819    0.142552
  C     -0.888451   -0.013768   -0.308366
  H     -0.776702    0.194596   -1.386295
  C     -2.236462   -0.697879   -0.072009
  O     -0.811171    1.208897    0.407860
  H      1.521139    1.559521    0.092456
  H      3.155238    0.988682   -0.272027
  H      2.385632    0.569668    1.261449
  H      1.533467   -0.387138   -1.511485
  H      2.320408   -1.361348   -0.270187
  H      0.031083   -1.937157   -0.167572
  H      0.308592   -0.890663    1.232627
  H     -3.053580   -0.051024   -0.384441
  H     -2.292226   -1.621504   -0.640262
  H     -2.353799   -0.924102    0.985147
  H     -1.584456    1.748536    0.196597

 Total Charge           Charge          ....    0
 Multiplicity           Mult            ....    1
 Number of Electrons    NEL             ....   50
 Basis Dimension        Dim             ....  179

ORBITAL ENERGIES
----------------

  NO   OCC          E(Eh)            E(eV)
   0   2.0000     -18.946240      -515.5534
   1   2.0000     -10.074466      -274.1402
   2   2.0000     -10.015887      -272.5461
   3   2.0000     -10.015220      -272.5280
   4   2.0000     -10.009037      -272.3597
   5   2.0000     -10.003676      -272.2139
   6   2.0000      -0.983880       -26.7727
   7   2.0000      -0.755352       -20.5542
   8   2.0000      -0.705206       -19.1896
   9   2.0000      -0.639153       -17.3922
  10   2.0000      -0.572287       -15.5727
  11   2.0000      -0.528894       -14.3919
  12   2.0000      -0.473575       -12.8866
  13   2.0000      -0.422523       -11.4974
  14   2.0000      -0.410566       -11.1721
  15   2.0000      -0.384168       -10.4538
  16   2.0000      -0.376329       -10.2404
  17   2.0000      -0.352279        -9.5860
  18   2.0000      -0.340571        -9.2674
  19   2.0000      -0.330725        -8.9995
  20   2.0000      -0.312932        -8.5153
  21   2.0000      -0.295838        -8.0502
  22   2.0000      -0.290591        -7.9074
  23   2.0000      -0.268219        -7.2986
  24   2.0000      -0.234731        -6.3873
  25   0.0000       0.077658         2.1132
  26   0.0000       0.111528         3.0348
  27   0.0000       0.122205         3.3254
  28   0.0000       0.131078         3.5668
  29   0.0000       0.138853         3.7784

MULLIKEN ATOMIC CHARGES
-----------------------
   0 C :   -0.536838
   1 C :   -0.255449
   2 C :   -0.264700
   3 C :    0.043154
   4 H :    0.139366
   5 C :   -0.532124
   6 O :   -0.497435
   7 H :    0.166707
   8 H :    0.152521
   9 H :    0.154197
  10 H :    0.143221
  11 H :    0.151867
  12 H :    0.157051
  13 H :    0.154435
  14 H :    0.160103
  15 H :    0.163805
  16 H :    0.160594
  17 H :    0.339524
Sum of atomic charges:   -0.0000000

LOEWDIN ATOMIC CHARGES
----------------------
   0 C :   -0.435666
   1 C :   -0.314612
   2 C :   -0.281057
   3 C :    0.050222
   4 H :    0.166139
   5 C :   -0.406101
   6 O :   -0.656135
   7 H :    0.161317
   8 H :    0.149416
   9 H :    0.152121
  10 H :    0.155280
  11 H :    0.153603
  12 H :    0.168287
  13 H :    0.168888
  14 H :    0.158495
  15 H :    0.163124
  16 H :    0.161519
  17 H :    0.285160

  Mayer bond orders larger than 0.100000
B(  0-C ,  1-C ) :   0.8859 B(  0-C ,  7-H ) :   0.9786 B(  0-C ,  8-H ) :   0.9711
B(  0-C ,  9-H ) :   0.9792 B(  1-C ,  2-C ) :   0.8918 B(  1-C , 10-H ) :   0.9837
B(  1-C , 11-H ) :   0.9716 B(  2-C ,  3-C ) :   0.9273 B(  2-C , 12-H ) :   0.9634
B(  2-C , 13-H ) :   0.9761 B(  3-C ,  4-H ) :   0.9618 B(  3-C ,  5-C ) :   0.9182
B(  3-C ,  6-O ) :   0.8671 B(  5-C , 14-H ) :   0.9687 B(  5-C , 15-H ) :   0.9690
B(  5-C , 16-H ) :   0.9769 B(  6-O , 17-H ) :   0.8770

Dispersion correction           -0.004256133
FINAL SINGLE POINT ENERGY      -272.905676043422

DIPOLE MOMENT
-------------

Method             : SCF
Type of density    : Electron Density
Multiplicity       :   1
Irrep              :   0
Energy             :  -272.9110318718973076 Eh
Relativity type    :
Basis              : AO
                                X                 Y                 Z
Electronic contribution:     -1.763462359       1.688767227       0.262788172
Nuclear contribution   :      1.108875932      -1.963397057      -0.804515171
                        -----------------------------------------
Total Dipole Moment    :     -0.654586427      -0.274629830      -0.541726998
                        -----------------------------------------
Magnitude (a.u.)       :      0.892957488
Magnitude (Debye)      :      2.269717556

Rotational constants in cm-1:             0.209147             0.071644             0.058110
Rotational constants in MHz :          6270.075348          2147.830820          1742.090929

                             ****ORCA TERMINATED NORMALLY****
TOTAL RUN TIME: 0 days 0 hours 0 minutes 26 seconds 770 msec
