                         Program Version 6.0.0  -   RELEASE  -
|  1> ! pbe def2-sv(p) def2/J RI DEFGRID1 loosescf d4 GCP(DFT/SV(P)) printgap
|  2> %output
|  3>     printlevel normal
|  4> end
|  5> * xyz 0 1
|  6> C -2.7771355378 0.9999174532 0.0942451736
|  7> C -2.4608827555 -0.4757243099 0.3049244968
|  8> C -1.1617910774 -0.9362748428 -0.3593157175
|  9> C 0.1105799674 -0.300620539 0.2070630218
| 10> C 1.3373860691 -1.2067013649 0.0486866631
| 11> C 2.5458774742 -0.2822762249 0.2419538877
| 12> C 2.0300379303 1.1433535851 -0.0331581967
| 13> C 0.5805966485 0.9750244714 -0.4962313254
| 14> H -2.0671546446 1.6286613194 0.6239527419
| 15> H -2.7410819223 1.2500190356 -0.9635455724
| 16> H -3.7732214982 1.2268472018 0.4677970474
| 17> H -2.4083705321 -0.6838864343 1.3761320582
| 18> H -3.2797916658 -1.0722466324 -0.104802696
| 19> H -1.0906069705 -2.0190310801 -0.2260568203
| 20> H -1.2163873622 -0.7427462733 -1.4331108159
| 21> H -0.0353213769 -0.0890542577 1.2714114514
| 22> H 1.3336658356 -2.0342590991 0.7569360922
| 23> H 1.3399938225 -1.6238491756 -0.9600133635
| 24> H 2.9256135115 -0.3578605526 1.2609016542
| 25> H 3.357517548 -0.5518231076 -0.4326690455
| 26> H 2.0598077896 1.7359736726 0.8818265579
| 27> H 2.6324484318 1.6581565667 -0.7802107672
| 28> H -0.023568277 1.8478523711 -0.2595600582
| 29> H 0.5474494905 0.8199417334 -1.5763253921
| 30> *
| 31>
| 32>                          ****END OF INPUT****

CARTESIAN COORDINATES (ANGSTROEM)
---------------------------------
  C     -2.777136    0.999917    0.094245
  C     -2.460883   -0.475724    0.304924
  C     -1.161791   -0.936275   -0.359316
  C      0.110580   -0.300621    0.207063
  C      1.337386   -1.206701    0.048687
  C      2.545877   -0.282276    0.241954
  C      2.030038    1.143354   -0.033158
  C      0.580597    0.975024   -0.496231
  H     -2.067155    1.628661    0.623953
  H     -2.741082    1.250019   -0.963546
  H     -3.773221    1.226847    0.467797
  H     -2.408371   -0.683886    1.376132
  H     -3.279792   -1.072247   -0.104803
  H     -1.090607   -2.019031   -0.226057
  H     -1.216387   -0.742746   -1.433111
  H     -0.035321   -0.089054    1.271411
  H      1.333666   -2.034259    0.756936
  H      1.339994   -1.623849   -0.960013
  H      2.925614   -0.357861    1.260902
  H      3.357518   -0.551823   -0.432669
  H      2.059808    1.735974    0.881827
  H      2.632448    1.658157   -0.780211
  H     -0.023568    1.847852   -0.259560
  H      0.547449    0.819942   -1.576325

 Total Charge           Charge          ....    0
 Multiplicity           Mult            ....    1
 Number of Electrons    NEL             ....   64
 Basis Dimension        Dim             ....  144

ORBITAL ENERGIES
----------------

  NO   OCC          E(Eh)            E(eV)
   0   2.0000      -9.884097      -268.9599
   1   2.0000      -9.879116      -268.8244
   2   2.0000      -9.876446      -268.7518
   3   2.0000      -9.874184      -268.6902
   4   2.0000      -9.873917      -268.6829
   5   2.0000      -9.873717      -268.6775
   6   2.0000      -9.873410      -268.6691
   7   2.0000      -9.868887      -268.5461
   8   2.0000      -0.758267       -20.6335
   9   2.0000      -0.703359       -19.1394
  10   2.0000      -0.643047       -17.4982
  11   2.0000      -0.628832       -17.1114
  12   2.0000      -0.586261       -15.9530
  13   2.0000      -0.514358       -13.9964
  14   2.0000      -0.495716       -13.4891
  15   2.0000      -0.493777       -13.4364
  16   2.0000      -0.432413       -11.7665
  17   2.0000      -0.417537       -11.3618
  18   2.0000      -0.391316       -10.6483
  19   2.0000      -0.383754       -10.4425
  20   2.0000      -0.373642       -10.1673
  21   2.0000      -0.362769        -9.8714
  22   2.0000      -0.337246        -9.1769
  23   2.0000      -0.317723        -8.6457
  24   2.0000      -0.307432        -8.3657
  25   2.0000      -0.291211        -7.9242
  26   2.0000      -0.288683        -7.8555
  27   2.0000      -0.288012        -7.8372
  28   2.0000      -0.274420        -7.4674
  29   2.0000      -0.268487        -7.3059
  30   2.0000      -0.264251        -7.1906
  31   2.0000      -0.260155        -7.0792
  32   0.0000       0.030786         0.8377
  33   0.0000       0.045373         1.2347
  34   0.0000       0.050829         1.3831
  35   0.0000       0.069935         1.9030
  36   0.0000       0.082579         2.2471

MULLIKEN ATOMIC CHARGES
-----------------------
   0 C :   -0.284337
   1 C :   -0.180618
   2 C :   -0.083597
   3 C :   -0.222317
   4 C :   -0.124152
   5 C :   -0.143600
   6 C :   -0.143205
   7 C :   -0.132013
   8 H :    0.112220
   9 H :    0.096823
  10 H :    0.100269
  11 H :    0.082425
  12 H :    0.081289
  13 H :    0.077152
  14 H :    0.070898
  15 H :    0.066024
  16 H :    0.080676
  17 H :    0.073387
  18 H :    0.077040
  19 H :    0.079662
  20 H :    0.075385
  21 H :    0.081077
  22 H :    0.087620
  23 H :    0.071893
Sum of atomic charges:   -0.0000000

LOEWDIN ATOMIC CHARGES
----------------------
   0 C :   -0.343473
   1 C :   -0.231705
   2 C :   -0.216843
   3 C :   -0.147084
   4 C :   -0.220233
   5 C :   -0.232216
   6 C :   -0.230229
   7 C :   -0.221657
   8 H :    0.116489
   9 H :    0.116659
  10 H :    0.118317
  11 H :    0.112845
  12 H :    0.113944
  13 H :    0.115710
  14 H :    0.113199
  15 H :    0.112765
  16 H :    0.115156
  17 H :    0.114379
  18 H :    0.116902
  19 H :    0.116945
  20 H :    0.115986
  21 H :    0.116375
  22 H :    0.114772
  23 H :    0.112994

  Mayer bond orders larger than 0.100000
B(  0-C ,  1-C ) :   1.1592 B(  0-C ,  8-H ) :   0.9452 B(  0-C ,  9-H ) :   0.9536
B(  0-C , 10-H ) :   0.9499 B(  1-C ,  2-C ) :   1.1388 B(  1-C , 11-H ) :   0.9255
B(  1-C , 12-H ) :   0.9250 B(  2-C ,  3-C ) :   1.0761 B(  2-C , 13-H ) :   0.9185
B(  2-C , 14-H ) :   0.9067 B(  3-C ,  4-C ) :   1.0961 B(  3-C ,  7-C ) :   1.0865
B(  3-C , 15-H ) :   0.9031 B(  4-C ,  5-C ) :   1.1739 B(  4-C , 16-H ) :   0.9166
B(  4-C , 17-H ) :   0.9120 B(  5-C ,  6-C ) :   1.1574 B(  5-C , 18-H ) :   0.9187
B(  5-C , 19-H ) :   0.9246 B(  6-C ,  7-C ) :   1.1670 B(  6-C , 20-H ) :   0.9179
B(  6-C , 21-H ) :   0.9245 B(  7-C , 22-H ) :   0.9144 B(  7-C , 23-H ) :   0.9092

Dispersion correction           -0.020899005
FINAL SINGLE POINT ENERGY      -313.691398702956

DIPOLE MOMENT
-------------

Method             : SCF
Type of density    : Electron Density
Multiplicity       :   1
Irrep              :   0
Energy             :  -313.7723902280553716 Eh
Relativity type    :
Basis              : AO
                                X                 Y                 Z
Electronic contribution:      2.262712842      -0.946093766       0.118832833
Nuclear contribution   :     -2.288186990       0.931310029      -0.091317908
                        -----------------------------------------
Total Dipole Moment    :     -0.025474148      -0.014783737       0.027514925
                        -----------------------------------------
Magnitude (a.u.)       :      0.040305858
Magnitude (Debye)      :      0.102449350

Rotational constants in cm-1:             0.137502             0.038625             0.032605
Rotational constants in MHz :          4122.203001          1157.940262           977.484670

                             ****ORCA TERMINATED NORMALLY****
TOTAL RUN TIME: 0 days 0 hours 0 minutes 10 seconds 737 msec
