                         Program Version 6.0.0  -   RELEASE  -
|  1> ! pbe def2-sv(p) def2/J RI DEFGRID1 loosescf d4 GCP(DFT/SV(P)) printgap
|  2> %output
|  3>     printlevel normal
|  4> end
|  5> * xyz 0 1
|  6> C -1.3586149951 -0.415056049 -0.3552263434
|  7> C 0.0011176318 -0.0361004524 0.2597751607
|  8> C 1.1231537815 -0.8373784645 -0.4257541566
|  9> O 2.4068590739 -0.4979002686 0.0367239269
| 10> O 0.2361722363 1.3510554481 0.2144044714
| 11> O -2.4319048948 0.3171326511 0.1824253993
| 12> H -1.5201611562 -1.4937037952 -0.2279124292
| 13> H -1.3595085667 -0.1869585581 -1.4239256689
| 14> H -0.0084841321 -0.2696929307 1.3318914309
| 15> H 1.1344649074 -0.6188132591 -1.4964283536
| 16> H 0.9305557578 -1.909814395 -0.2902293426
| 17> H 2.4454317685 -0.6043527015 0.9974119231
| 18> H 0.2643021243 1.6467427032 -0.7061052479
| 19> H -2.4454213891 0.2145228881 1.1440845413
| 20> *
| 21>
| 22>                          ****END OF INPUT****

CARTESIAN COORDINATES (ANGSTROEM)
---------------------------------
  C     -1.358615   -0.415056   -0.355226
  C      0.001118   -0.036100    0.259775
  C      1.123154   -0.837378   -0.425754
  O      2.406859   -0.497900    0.036724
  O      0.236172    1.351055    0.214404
  O     -2.431905    0.317133    0.182425
  H     -1.520161   -1.493704   -0.227912
  H     -1.359509   -0.186959   -1.423926
  H     -0.008484   -0.269693    1.331891
  H      1.134465   -0.618813   -1.496428
  H      0.930556   -1.909814   -0.290229
  H      2.445432   -0.604353    0.997412
  H      0.264302    1.646743   -0.706105
  H     -2.445421    0.214523    1.144085

 Total Charge           Charge          ....    0
 Multiplicity           Mult            ....    1
 Number of Electrons    NEL             ....   50
 Basis Dimension        Dim             ....  100

ORBITAL ENERGIES
----------------

  NO   OCC          E(Eh)            E(eV)
   0   2.0000     -18.746710      -510.1239
   1   2.0000     -18.746113      -510.1077
   2   2.0000     -18.745949      -510.1032
   3   2.0000      -9.943304      -270.5711
   4   2.0000      -9.935960      -270.3712
   5   2.0000      -9.935848      -270.3682
   6   2.0000      -0.938921       -25.5493
   7   2.0000      -0.922238       -25.0954
   8   2.0000      -0.909368       -24.7452
   9   2.0000      -0.685701       -18.6589
  10   2.0000      -0.603449       -16.4207
  11   2.0000      -0.564806       -15.3692
  12   2.0000      -0.485078       -13.1996
  13   2.0000      -0.445062       -12.1108
  14   2.0000      -0.437961       -11.9175
  15   2.0000      -0.411720       -11.2035
  16   2.0000      -0.407992       -11.1020
  17   2.0000      -0.377573       -10.2743
  18   2.0000      -0.347497        -9.4559
  19   2.0000      -0.303307        -8.2534
  20   2.0000      -0.283758        -7.7215
  21   2.0000      -0.276760        -7.5310
  22   2.0000      -0.230375        -6.2688
  23   2.0000      -0.225535        -6.1371
  24   2.0000      -0.200875        -5.4661
  25   0.0000       0.017425         0.4742
  26   0.0000       0.032592         0.8869
  27   0.0000       0.035635         0.9697
  28   0.0000       0.063214         1.7201
  29   0.0000       0.083091         2.2610

MULLIKEN ATOMIC CHARGES
-----------------------
   0 C :    0.034331
   1 C :   -0.045161
   2 C :    0.033665
   3 O :   -0.421440
   4 O :   -0.409856
   5 O :   -0.421394
   6 H :    0.069865
   7 H :    0.075016
   8 H :    0.051901
   9 H :    0.075059
  10 H :    0.070068
  11 H :    0.295987
  12 H :    0.296130
  13 H :    0.295830
Sum of atomic charges:    0.0000000

LOEWDIN ATOMIC CHARGES
----------------------
   0 C :   -0.139808
   1 C :   -0.105940
   2 C :   -0.139936
   3 O :   -0.333502
   4 O :   -0.315969
   5 O :   -0.333495
   6 H :    0.096253
   7 H :    0.110421
   8 H :    0.102633
   9 H :    0.110402
  10 H :    0.096355
  11 H :    0.283579
  12 H :    0.285558
  13 H :    0.283450

  Mayer bond orders larger than 0.100000
B(  0-C ,  1-C ) :   1.0239 B(  0-C ,  5-O ) :   1.0899 B(  0-C ,  6-H ) :   0.9136
B(  0-C ,  7-H ) :   0.9122 B(  1-C ,  2-C ) :   1.0241 B(  1-C ,  4-O ) :   1.0630
B(  1-C ,  8-H ) :   0.8863 B(  2-C ,  3-O ) :   1.0901 B(  2-C ,  9-H ) :   0.9123
B(  2-C , 10-H ) :   0.9136 B(  3-O , 11-H ) :   0.8531 B(  4-O , 12-H ) :   0.8530
B(  5-O , 13-H ) :   0.8532

Dispersion correction           -0.009002321
FINAL SINGLE POINT ENERGY      -344.001878277555

DIPOLE MOMENT
-------------

Method             : SCF
Type of density    : Electron Density
Multiplicity       :   1
Irrep              :   0
Energy             :  -344.0743375419095287 Eh
Relativity type    :
Basis              : AO
                                X                 Y                 Z
Electronic contribution:      0.421366938       2.326597797       0.938612906
Nuclear contribution   :     -0.521135181      -3.005480000      -0.623275452
                        -----------------------------------------
Total Dipole Moment    :     -0.099768242      -0.678882203       0.315337454
                        -----------------------------------------
Magnitude (a.u.)       :      0.755163862
Magnitude (Debye)      :      1.919473993

Rotational constants in cm-1:             0.263070             0.064494             0.055830
Rotational constants in MHz :          7886.633072          1933.488169          1673.747583

                             ****ORCA TERMINATED NORMALLY****
TOTAL RUN TIME: 0 days 0 hours 0 minutes 6 seconds 632 msec
