                         Program Version 6.0.0  -   RELEASE  -
|  1> ! r2scan-3c def2/J RI DEFGRID2 scfconv6 printgap
|  2> %output
|  3>     printlevel normal
|  4> end
|  5> * xyz 0 1
|  6> C -2.5436724771 0.6159115592 0.6544825742
|  7> C -1.7421632367 0.3545153528 -0.6228443098
|  8> C -0.4299050901 -0.308257786 -0.2899977302
|  9> O -0.1496571499 -1.459533492 -0.5541863697
| 10> O 0.3822497233 0.5175398343 0.3556004278
| 11> C 1.6755598026 0.0372266835 0.756708959
| 12> C 2.703111149 0.257354173 -0.3429989747
| 13> H -3.4834257415 1.0988006587 0.4041310895
| 14> H -2.757719399 -0.3194552894 1.1660312665
| 15> H -1.9817625197 1.2612226639 1.3242075205
| 16> H -1.5315866381 1.3008269418 -1.120992249
| 17> H -2.2944045597 -0.3016550094 -1.2947245232
| 18> H 1.9205855912 0.613849384 1.6492772724
| 19> H 1.5935099683 -1.0262587411 1.0008405088
| 20> H 2.7379549547 1.3082401344 -0.6171189156
| 21> H 3.6806478583 -0.0543297849 0.0099976012
| 22> H 2.4408402095 -0.3294904996 -1.2205871225
| 23> *
| 24>
| 25>                          ****END OF INPUT****

CARTESIAN COORDINATES (ANGSTROEM)
---------------------------------
  C     -2.543672    0.615912    0.654483
  C     -1.742163    0.354515   -0.622844
  C     -0.429905   -0.308258   -0.289998
  O     -0.149657   -1.459533   -0.554186
  O      0.382250    0.517540    0.355600
  C      1.675560    0.037227    0.756709
  C      2.703111    0.257354   -0.342999
  H     -3.483426    1.098801    0.404131
  H     -2.757719   -0.319455    1.166031
  H     -1.981763    1.261223    1.324208
  H     -1.531587    1.300827   -1.120992
  H     -2.294405   -0.301655   -1.294725
  H      1.920586    0.613849    1.649277
  H      1.593510   -1.026259    1.000841
  H      2.737955    1.308240   -0.617119
  H      3.680648   -0.054330    0.009998
  H      2.440840   -0.329490   -1.220587

 Total Charge           Charge          ....    0
 Multiplicity           Mult            ....    1
 Number of Electrons    NEL             ....   56
 Basis Dimension        Dim             ....  193

ORBITAL ENERGIES
----------------

  NO   OCC          E(Eh)            E(eV)
   0   2.0000     -18.996033      -516.9083
   1   2.0000     -18.926951      -515.0285
   2   2.0000     -10.151026      -276.2235
   3   2.0000     -10.091171      -274.5947
   4   2.0000     -10.043252      -273.2908
   5   2.0000     -10.030766      -272.9510
   6   2.0000     -10.028879      -272.8997
   7   2.0000      -1.071306       -29.1517
   8   2.0000      -0.974373       -26.5140
   9   2.0000      -0.766248       -20.8507
  10   2.0000      -0.729358       -19.8468
  11   2.0000      -0.641526       -17.4568
  12   2.0000      -0.599801       -16.3214
  13   2.0000      -0.524154       -14.2629
  14   2.0000      -0.473049       -12.8723
  15   2.0000      -0.449526       -12.2322
  16   2.0000      -0.437683       -11.9100
  17   2.0000      -0.413167       -11.2428
  18   2.0000      -0.406443       -11.0599
  19   2.0000      -0.386064       -10.5053
  20   2.0000      -0.362362        -9.8604
  21   2.0000      -0.356363        -9.6971
  22   2.0000      -0.339480        -9.2377
  23   2.0000      -0.328960        -8.9515
  24   2.0000      -0.324950        -8.8423
  25   2.0000      -0.305933        -8.3249
  26   2.0000      -0.270391        -7.3577
  27   2.0000      -0.232530        -6.3275
  28   0.0000      -0.014046        -0.3822
  29   0.0000       0.075322         2.0496
  30   0.0000       0.090290         2.4569
  31   0.0000       0.121360         3.3024
  32   0.0000       0.122867         3.3434

MULLIKEN ATOMIC CHARGES
-----------------------
   0 C :   -0.471689
   1 C :   -0.297627
   2 C :    0.413564
   3 O :   -0.430579
   4 O :   -0.183440
   5 C :   -0.136856
   6 C :   -0.463659
   7 H :    0.152198
   8 H :    0.153519
   9 H :    0.161863
  10 H :    0.153272
  11 H :    0.165262
  12 H :    0.146891
  13 H :    0.169319
  14 H :    0.151100
  15 H :    0.146668
  16 H :    0.170196
Sum of atomic charges:   -0.0000000

LOEWDIN ATOMIC CHARGES
----------------------
   0 C :   -0.393741
   1 C :   -0.235936
   2 C :    0.357124
   3 O :   -0.432637
   4 O :   -0.598954
   5 C :    0.027632
   6 C :   -0.389899
   7 H :    0.152555
   8 H :    0.157442
   9 H :    0.160597
  10 H :    0.174835
  11 H :    0.174275
  12 H :    0.177036
  13 H :    0.189062
  14 H :    0.156869
  15 H :    0.159100
  16 H :    0.164640

  Mayer bond orders larger than 0.100000
B(  0-C ,  1-C ) :   0.8930 B(  0-C ,  7-H ) :   0.9716 B(  0-C ,  8-H ) :   0.9733
B(  0-C ,  9-H ) :   0.9762 B(  1-C ,  2-C ) :   0.9701 B(  1-C , 10-H ) :   0.9603
B(  1-C , 11-H ) :   0.9831 B(  2-C ,  3-O ) :   1.8471 B(  2-C ,  4-O ) :   1.0375
B(  4-O ,  5-C ) :   0.8152 B(  5-C ,  6-C ) :   0.9400 B(  5-C , 12-H ) :   0.9611
B(  5-C , 13-H ) :   0.9657 B(  6-C , 14-H ) :   0.9740 B(  6-C , 15-H ) :   0.9658
B(  6-C , 16-H ) :   0.9713

Dispersion correction           -0.004002013
FINAL SINGLE POINT ENERGY      -346.935905484487

DIPOLE MOMENT
-------------

Method             : SCF
Type of density    : Electron Density
Multiplicity       :   1
Irrep              :   0
Energy             :  -346.9423081469543035 Eh
Relativity type    :
Basis              : AO
                                X                 Y                 Z
Electronic contribution:     -0.177345356      -2.554361545      -0.920440493
Nuclear contribution   :      0.308014795       3.318169642       1.217669850
                        -----------------------------------------
Total Dipole Moment    :      0.130669439       0.763808097       0.297229357
                        -----------------------------------------
Magnitude (a.u.)       :      0.829953373
Magnitude (Debye)      :      2.109573824

Rotational constants in cm-1:             0.184056             0.050793             0.045274
Rotational constants in MHz :          5517.846698          1522.728027          1357.276025

                             ****ORCA TERMINATED NORMALLY****
TOTAL RUN TIME: 0 days 0 hours 0 minutes 21 seconds 105 msec
