                         Program Version 6.0.0  -   RELEASE  -
|  1> ! r2scan-3c def2/J RI DEFGRID2 scfconv6 printgap
|  2> %output
|  3>     printlevel normal
|  4> end
|  5> %cpcm
|  6>     smd true
|  7>     smdsolvent "water"
|  8> end
|  9> * xyz 0 1
| 10> C -2.5436724771 0.6159115592 0.6544825742
| 11> C -1.7421632367 0.3545153528 -0.6228443098
| 12> C -0.4299050901 -0.308257786 -0.2899977302
| 13> O -0.1496571499 -1.459533492 -0.5541863697
| 14> O 0.3822497233 0.5175398343 0.3556004278
| 15> C 1.6755598026 0.0372266835 0.756708959
| 16> C 2.703111149 0.257354173 -0.3429989747
| 17> H -3.4834257415 1.0988006587 0.4041310895
| 18> H -2.757719399 -0.3194552894 1.1660312665
| 19> H -1.9817625197 1.2612226639 1.3242075205
| 20> H -1.5315866381 1.3008269418 -1.120992249
| 21> H -2.2944045597 -0.3016550094 -1.2947245232
| 22> H 1.9205855912 0.613849384 1.6492772724
| 23> H 1.5935099683 -1.0262587411 1.0008405088
| 24> H 2.7379549547 1.3082401344 -0.6171189156
| 25> H 3.6806478583 -0.0543297849 0.0099976012
| 26> H 2.4408402095 -0.3294904996 -1.2205871225
| 27> *
| 28>
| 29>                          ****END OF INPUT****

CARTESIAN COORDINATES (ANGSTROEM)
---------------------------------
  C     -2.543672    0.615912    0.654483
  C     -1.742163    0.354515   -0.622844
  C     -0.429905   -0.308258   -0.289998
  O     -0.149657   -1.459533   -0.554186
  O      0.382250    0.517540    0.355600
  C      1.675560    0.037227    0.756709
  C      2.703111    0.257354   -0.342999
  H     -3.483426    1.098801    0.404131
  H     -2.757719   -0.319455    1.166031
  H     -1.981763    1.261223    1.324208
  H     -1.531587    1.300827   -1.120992
  H     -2.294405   -0.301655   -1.294725
  H      1.920586    0.613849    1.649277
  H      1.593510   -1.026259    1.000841
  H      2.737955    1.308240   -0.617119
  H      3.680648   -0.054330    0.009998
  H      2.440840   -0.329490   -1.220587

 Total Charge           Charge          ....    0
 Multiplicity           Mult            ....    1
 Number of Electrons    NEL             ....   56
 Basis Dimension        Dim             ....  193

ORBITAL ENERGIES
----------------

  NO   OCC          E(Eh)            E(eV)
   0   2.0000     -19.001702      -517.0626
   1   2.0000     -18.943189      -515.4704
   2   2.0000     -10.161914      -276.5197
   3   2.0000     -10.083287      -274.3802
   4   2.0000     -10.037446      -273.1328
   5   2.0000     -10.021308      -272.6936
   6   2.0000     -10.018259      -272.6107
   7   2.0000      -1.078723       -29.3535
   8   2.0000      -0.988454       -26.8972
   9   2.0000      -0.762003       -20.7351
  10   2.0000      -0.721684       -19.6380
  11   2.0000      -0.636306       -17.3148
  12   2.0000      -0.593642       -16.1538
  13   2.0000      -0.521899       -14.2016
  14   2.0000      -0.471632       -12.8338
  15   2.0000      -0.459099       -12.4927
  16   2.0000      -0.438894       -11.9429
  17   2.0000      -0.411454       -11.1962
  18   2.0000      -0.403338       -10.9754
  19   2.0000      -0.381202       -10.3730
  20   2.0000      -0.355908        -9.6848
  21   2.0000      -0.349959        -9.5229
  22   2.0000      -0.336654        -9.1608
  23   2.0000      -0.325591        -8.8598
  24   2.0000      -0.318616        -8.6700
  25   2.0000      -0.303930        -8.2704
  26   2.0000      -0.277189        -7.5427
  27   2.0000      -0.248584        -6.7643
  28   0.0000      -0.022478        -0.6116
  29   0.0000       0.078395         2.1332
  30   0.0000       0.097404         2.6505
  31   0.0000       0.130698         3.5565
  32   0.0000       0.133097         3.6218

MULLIKEN ATOMIC CHARGES
-----------------------
   0 C :   -0.495353
   1 C :   -0.313356
   2 C :    0.453727
   3 O :   -0.516145
   4 O :   -0.200537
   5 C :   -0.141899
   6 C :   -0.489670
   7 H :    0.171151
   8 H :    0.163843
   9 H :    0.167475
  10 H :    0.180262
  11 H :    0.173217
  12 H :    0.173265
  13 H :    0.171856
  14 H :    0.165261
  15 H :    0.169891
  16 H :    0.167012
Sum of atomic charges:   -0.0000000

LOEWDIN ATOMIC CHARGES
----------------------
   0 C :   -0.395087
   1 C :   -0.233375
   2 C :    0.366628
   3 O :   -0.493586
   4 O :   -0.600098
   5 C :    0.032464
   6 C :   -0.392891
   7 H :    0.159788
   8 H :    0.160348
   9 H :    0.162017
  10 H :    0.185760
  11 H :    0.178010
  12 H :    0.188568
  13 H :    0.189902
  14 H :    0.161826
  15 H :    0.167659
  16 H :    0.162068

  Mayer bond orders larger than 0.100000
B(  0-C ,  1-C ) :   0.8838 B(  0-C ,  7-H ) :   0.9666 B(  0-C ,  8-H ) :   0.9700
B(  0-C ,  9-H ) :   0.9736 B(  1-C ,  2-C ) :   0.9683 B(  1-C , 10-H ) :   0.9504
B(  1-C , 11-H ) :   0.9793 B(  2-C ,  3-O ) :   1.7755 B(  2-C ,  4-O ) :   1.0665
B(  4-O ,  5-C ) :   0.7974 B(  5-C ,  6-C ) :   0.9385 B(  5-C , 12-H ) :   0.9518
B(  5-C , 13-H ) :   0.9622 B(  6-C , 14-H ) :   0.9702 B(  6-C , 15-H ) :   0.9608
B(  6-C , 16-H ) :   0.9689

Dispersion correction           -0.004002013
FINAL SINGLE POINT ENERGY      -346.940961244867

DIPOLE MOMENT
-------------

Method             : SCF
Type of density    : Electron Density
Multiplicity       :   1
Irrep              :   0
Energy             :  -346.9473639073341928 Eh
Relativity type    :
Basis              : AO
                                X                 Y                 Z
Electronic contribution:     -0.156084757      -2.224558004      -0.792213261
Nuclear contribution   :      0.308014795       3.318169642       1.217669850
                        -----------------------------------------
Total Dipole Moment    :      0.151930038       1.093611638       0.425456589
                        -----------------------------------------
Magnitude (a.u.)       :      1.183250802
Magnitude (Debye)      :      3.007584523

Rotational constants in cm-1:             0.184056             0.050793             0.045274
Rotational constants in MHz :          5517.846698          1522.728027          1357.276025

                             ****ORCA TERMINATED NORMALLY****
TOTAL RUN TIME: 0 days 0 hours 0 minutes 24 seconds 929 msec
