                         Program Version 6.0.0  -   RELEASE  -
|  1> ! pbe def2-sv(p) def2/J RI DEFGRID1 loosescf d4 GCP(DFT/SV(P)) printgap
|  2> %output
|  3>     printlevel normal
|  4> end
|  5> * xyz 0 1
|  6> C -2.4551889796 0.1208900234 -0.2587019169
|  7> C -1.1930385974 -0.2392826523 0.5119358569
|  8> N -0.0095727031 0.1684503984 -0.2232509228
|  9> C 1.2298651354 -0.2045990421 0.433908906
| 10> C 2.4289847734 0.1896354354 -0.4165204994
| 11> H -2.461203859 1.1841517599 -0.4790481074
| 12> H -2.4985949444 -0.4284195795 -1.196475126
| 13> H -3.3345015426 -0.125032787 0.3297576153
| 14> H -1.1887286988 -1.3240288939 0.7343773352
| 15> H -1.1795339915 0.2902133717 1.4703180699
| 16> H -0.0335613364 -0.2478299211 -1.150677103
| 17> H 1.2632157306 0.3259013799 1.3912555379
| 18> H 1.2704430824 -1.2886605938 0.6560049994
| 19> H 2.3893120944 1.251764174 -0.6386817053
| 20> H 3.3509879525 -0.0281787663 0.1148859977
| 21> H 2.428614293 -0.3616388277 -1.3541097445
| 22> *
| 23>
| 24>                          ****END OF INPUT****

CARTESIAN COORDINATES (ANGSTROEM)
---------------------------------
  C     -2.455189    0.120890   -0.258702
  C     -1.193039   -0.239283    0.511936
  N     -0.009573    0.168450   -0.223251
  C      1.229865   -0.204599    0.433909
  C      2.428985    0.189635   -0.416520
  H     -2.461204    1.184152   -0.479048
  H     -2.498595   -0.428420   -1.196475
  H     -3.334502   -0.125033    0.329758
  H     -1.188729   -1.324029    0.734377
  H     -1.179534    0.290213    1.470318
  H     -0.033561   -0.247830   -1.150677
  H      1.263216    0.325901    1.391256
  H      1.270443   -1.288661    0.656005
  H      2.389312    1.251764   -0.638682
  H      3.350988   -0.028179    0.114886
  H      2.428614   -0.361639   -1.354110

 Total Charge           Charge          ....    0
 Multiplicity           Mult            ....    1
 Number of Electrons    NEL             ....   42
 Basis Dimension        Dim             ....   92

ORBITAL ENERGIES
----------------

  NO   OCC          E(Eh)            E(eV)
   0   2.0000     -13.962994      -379.9524
   1   2.0000      -9.904115      -269.5047
   2   2.0000      -9.904097      -269.5042
   3   2.0000      -9.872260      -268.6378
   4   2.0000      -9.872254      -268.6377
   5   2.0000      -0.814889       -22.1742
   6   2.0000      -0.684137       -18.6163
   7   2.0000      -0.633218       -17.2307
   8   2.0000      -0.537661       -14.6305
   9   2.0000      -0.537433       -14.6243
  10   2.0000      -0.431272       -11.7355
  11   2.0000      -0.415838       -11.3155
  12   2.0000      -0.387976       -10.5574
  13   2.0000      -0.382852       -10.4179
  14   2.0000      -0.353835        -9.6283
  15   2.0000      -0.323526        -8.8036
  16   2.0000      -0.318025        -8.6539
  17   2.0000      -0.304238        -8.2787
  18   2.0000      -0.298017        -8.1095
  19   2.0000      -0.292163        -7.9502
  20   2.0000      -0.171741        -4.6733
  21   0.0000       0.036453         0.9919
  22   0.0000       0.058050         1.5796
  23   0.0000       0.064452         1.7538
  24   0.0000       0.083496         2.2721
  25   0.0000       0.107145         2.9156

MULLIKEN ATOMIC CHARGES
-----------------------
   0 C :   -0.272177
   1 C :   -0.084046
   2 N :   -0.374295
   3 C :   -0.083604
   4 C :   -0.272601
   5 H :    0.108161
   6 H :    0.096230
   7 H :    0.101520
   8 H :    0.058978
   9 H :    0.081830
  10 H :    0.193171
  11 H :    0.081746
  12 H :    0.058882
  13 H :    0.108219
  14 H :    0.101611
  15 H :    0.096375
Sum of atomic charges:   -0.0000000

LOEWDIN ATOMIC CHARGES
----------------------
   0 C :   -0.347776
   1 C :   -0.171213
   2 N :   -0.272983
   3 C :   -0.171145
   4 C :   -0.347891
   5 H :    0.122542
   6 H :    0.114839
   7 H :    0.122125
   8 H :    0.085137
   9 H :    0.109532
  10 H :    0.202613
  11 H :    0.109495
  12 H :    0.085121
  13 H :    0.122559
  14 H :    0.122176
  15 H :    0.114869

  Mayer bond orders larger than 0.100000
B(  0-C ,  1-C ) :   1.1544 B(  0-C ,  5-H ) :   0.9501 B(  0-C ,  6-H ) :   0.9550
B(  0-C ,  7-H ) :   0.9495 B(  1-C ,  2-N ) :   1.0534 B(  1-C ,  8-H ) :   0.9091
B(  1-C ,  9-H ) :   0.9275 B(  2-N ,  3-C ) :   1.0533 B(  2-N , 10-H ) :   0.8755
B(  3-C ,  4-C ) :   1.1545 B(  3-C , 11-H ) :   0.9276 B(  3-C , 12-H ) :   0.9090
B(  4-C , 13-H ) :   0.9500 B(  4-C , 14-H ) :   0.9495 B(  4-C , 15-H ) :   0.9549

Dispersion correction           -0.009717477
FINAL SINGLE POINT ENERGY      -213.245432771952

DIPOLE MOMENT
-------------

Method             : SCF
Type of density    : Electron Density
Multiplicity       :   1
Irrep              :   0
Energy             :  -213.3056568085220874 Eh
Relativity type    :
Basis              : AO
                                X                 Y                 Z
Electronic contribution:     -0.003155197       0.386519578       0.060517639
Nuclear contribution   :      0.005997331      -0.704350467      -0.116054582
                        -----------------------------------------
Total Dipole Moment    :      0.002842134      -0.317830889      -0.055536943
                        -----------------------------------------
Magnitude (a.u.)       :      0.322659114
Magnitude (Debye)      :      0.820134290

Rotational constants in cm-1:             0.592533             0.070730             0.066612
Rotational constants in MHz :         17763.684485          2120.427510          1996.981362

                             ****ORCA TERMINATED NORMALLY****
TOTAL RUN TIME: 0 days 0 hours 0 minutes 6 seconds 442 msec
