                         Program Version 6.0.0  -   RELEASE  -
|  1> ! r2scan-3c def2/J RI DEFGRID2 scfconv6 printgap
|  2> %output
|  3>     printlevel normal
|  4> end
|  5> * xyz 0 1
|  6> C -1.780235126 -0.4518993621 -0.5635127016
|  7> O -1.0668250031 -0.059421955 0.5919231918
|  8> C -0.0706732886 0.9178339014 0.374177917
|  9> C 1.1289995805 0.4353257199 -0.4548488468
| 10> O 1.7076214125 -0.750958578 0.0348757838
| 11> H -2.6032894514 -1.0672019551 -0.2082253963
| 12> H -1.154380058 -1.0394526224 -1.2407870897
| 13> H -2.1721518477 0.4229633621 -1.0930303662
| 14> H -0.502549769 1.7997423702 -0.1204979189
| 15> H 0.2577224368 1.1955197071 1.3787684838
| 16> H 1.8690492312 1.2467125413 -0.4852228022
| 17> H 0.8236665678 0.2087636602 -1.4785180703
| 18> H 1.9126889906 -0.6431054167 0.9742732461
| 19> *
| 20>
| 21>                          ****END OF INPUT****

CARTESIAN COORDINATES (ANGSTROEM)
---------------------------------
  C     -1.780235   -0.451899   -0.563513
  O     -1.066825   -0.059422    0.591923
  C     -0.070673    0.917834    0.374178
  C      1.129000    0.435326   -0.454849
  O      1.707621   -0.750959    0.034876
  H     -2.603289   -1.067202   -0.208225
  H     -1.154380   -1.039453   -1.240787
  H     -2.172152    0.422963   -1.093030
  H     -0.502550    1.799742   -0.120498
  H      0.257722    1.195520    1.378768
  H      1.869049    1.246713   -0.485223
  H      0.823667    0.208764   -1.478518
  H      1.912689   -0.643105    0.974273

 Total Charge           Charge          ....    0
 Multiplicity           Mult            ....    1
 Number of Electrons    NEL             ....   42
 Basis Dimension        Dim             ....  145

ORBITAL ENERGIES
----------------

  NO   OCC          E(Eh)            E(eV)
   0   2.0000     -18.952116      -515.7133
   1   2.0000     -18.949612      -515.6451
   2   2.0000     -10.080876      -274.3146
   3   2.0000     -10.079366      -274.2735
   4   2.0000     -10.069674      -274.0098
   5   2.0000      -1.001772       -27.2596
   6   2.0000      -0.981987       -26.7212
   7   2.0000      -0.716420       -19.4948
   8   2.0000      -0.652380       -17.7522
   9   2.0000      -0.575668       -15.6647
  10   2.0000      -0.480227       -13.0677
  11   2.0000      -0.456329       -12.4174
  12   2.0000      -0.443584       -12.0705
  13   2.0000      -0.420605       -11.4452
  14   2.0000      -0.397303       -10.8112
  15   2.0000      -0.379829       -10.3357
  16   2.0000      -0.342402        -9.3172
  17   2.0000      -0.306426        -8.3383
  18   2.0000      -0.284815        -7.7502
  19   2.0000      -0.244973        -6.6660
  20   2.0000      -0.218413        -5.9433
  21   0.0000       0.055164         1.5011
  22   0.0000       0.083123         2.2619
  23   0.0000       0.099287         2.7017
  24   0.0000       0.116121         3.1598
  25   0.0000       0.128709         3.5023

MULLIKEN ATOMIC CHARGES
-----------------------
   0 C :   -0.297278
   1 O :   -0.210859
   2 C :   -0.200730
   3 C :   -0.157491
   4 O :   -0.396733
   5 H :    0.148608
   6 H :    0.146416
   7 H :    0.129002
   8 H :    0.130795
   9 H :    0.143012
  10 H :    0.130712
  11 H :    0.140898
  12 H :    0.293647
Sum of atomic charges:    0.0000000

LOEWDIN ATOMIC CHARGES
----------------------
   0 C :   -0.073265
   1 O :   -0.775182
   2 C :    0.003851
   3 C :    0.002539
   4 O :   -0.597302
   5 H :    0.176504
   6 H :    0.158080
   7 H :    0.155095
   8 H :    0.166671
   9 H :    0.179287
  10 H :    0.160365
  11 H :    0.176779
  12 H :    0.266578

  Mayer bond orders larger than 0.100000
B(  0-C ,  1-O ) :   0.8848 B(  0-C ,  5-H ) :   0.9740 B(  0-C ,  6-H ) :   0.9618
B(  0-C ,  7-H ) :   0.9635 B(  1-O ,  2-C ) :   0.9154 B(  2-C ,  3-C ) :   0.9316
B(  2-C ,  8-H ) :   0.9658 B(  2-C ,  9-H ) :   0.9704 B(  3-C ,  4-O ) :   0.9553
B(  3-C , 10-H ) :   0.9647 B(  3-C , 11-H ) :   0.9694 B(  4-O , 12-H ) :   0.8968

Dispersion correction           -0.002523616
FINAL SINGLE POINT ENERGY      -269.489139326837

DIPOLE MOMENT
-------------

Method             : SCF
Type of density    : Electron Density
Multiplicity       :   1
Irrep              :   0
Energy             :  -269.4971038184058330 Eh
Relativity type    :
Basis              : AO
                                X                 Y                 Z
Electronic contribution:      1.423044302      -1.351972404       2.022442212
Nuclear contribution   :     -1.462696911       1.980578481      -2.123374844
                        -----------------------------------------
Total Dipole Moment    :     -0.039652609       0.628606077      -0.100932632
                        -----------------------------------------
Magnitude (a.u.)       :      0.637891312
Magnitude (Debye)      :      1.621390860

Rotational constants in cm-1:             0.307647             0.105732             0.096732
Rotational constants in MHz :          9223.023158          3169.752444          2899.953086

                             ****ORCA TERMINATED NORMALLY****
TOTAL RUN TIME: 0 days 0 hours 0 minutes 15 seconds 452 msec
