                         Program Version 6.0.0  -   RELEASE  -
|  1> ! r2scan-3c def2/J RI DEFGRID2 scfconv6 printgap
|  2> %output
|  3>     printlevel normal
|  4> end
|  5> * xyz 0 1
|  6> C -4.15622297 -0.6812270116 1.4333084305
|  7> C -3.473662427 -0.1401549569 0.1920199205
|  8> O -2.0550698925 -0.194157561 0.3997805127
|  9> C -1.2780171847 0.2172689989 -0.6013209743
| 10> O -1.7357977091 0.6265365704 -1.6574439584
| 11> C 0.1576718485 0.1263241853 -0.3018829399
| 12> C 1.0734109255 0.5250368706 -1.2760255183
| 13> C 2.4280047417 0.4553703262 -1.0356545047
| 14> C 2.8942620207 -0.0171269255 0.1915252164
| 15> C 1.9791489572 -0.4168965322 1.1692664618
| 16> C 0.626974659 -0.3463035859 0.9259133862
| 17> O 4.205654793 -0.1070876542 0.4817629649
| 18> H -3.8491673591 -1.7080246653 1.6086950466
| 19> H -3.886246814 -0.0812225819 2.2972537814
| 20> H -5.2316894042 -0.6470024379 1.2944952355
| 21> H -3.7551937267 0.8996985975 -0.0068106364
| 22> H -3.7165765492 -0.7317680022 -0.6974097184
| 23> H 0.6946087952 0.8879289913 -2.2194969458
| 24> H 3.1265413432 0.7666658457 -1.797587736
| 25> H 2.3597931783 -0.7787241808 2.1106646989
| 26> H -0.0795999801 -0.6542936492 1.6791183714
| 27> H 4.7552700574 0.1924825921 -0.2601119276
| 28> *
| 29>
| 30>                          ****END OF INPUT****

CARTESIAN COORDINATES (ANGSTROEM)
---------------------------------
  C     -4.156223   -0.681227    1.433308
  C     -3.473662   -0.140155    0.192020
  O     -2.055070   -0.194158    0.399781
  C     -1.278017    0.217269   -0.601321
  O     -1.735798    0.626537   -1.657444
  C      0.157672    0.126324   -0.301883
  C      1.073411    0.525037   -1.276026
  C      2.428005    0.455370   -1.035655
  C      2.894262   -0.017127    0.191525
  C      1.979149   -0.416897    1.169266
  C      0.626975   -0.346304    0.925913
  O      4.205655   -0.107088    0.481763
  H     -3.849167   -1.708025    1.608695
  H     -3.886247   -0.081223    2.297254
  H     -5.231689   -0.647002    1.294495
  H     -3.755194    0.899699   -0.006811
  H     -3.716577   -0.731768   -0.697410
  H      0.694609    0.887929   -2.219497
  H      3.126541    0.766666   -1.797588
  H      2.359793   -0.778724    2.110665
  H     -0.079600   -0.654294    1.679118
  H      4.755270    0.192483   -0.260112

 Total Charge           Charge          ....    0
 Multiplicity           Mult            ....    1
 Number of Electrons    NEL             ....   88
 Basis Dimension        Dim             ....  293

ORBITAL ENERGIES
----------------

  NO   OCC          E(Eh)            E(eV)
   0   2.0000     -19.002200      -517.0761
   1   2.0000     -18.993298      -516.8339
   2   2.0000     -18.922001      -514.8938
   3   2.0000     -10.149476      -276.1813
   4   2.0000     -10.113686      -275.2074
   5   2.0000     -10.089320      -274.5444
   6   2.0000     -10.048469      -273.4327
   7   2.0000     -10.048294      -273.4280
   8   2.0000     -10.046406      -273.3766
   9   2.0000     -10.046204      -273.3711
  10   2.0000     -10.041148      -273.2335
  11   2.0000     -10.030417      -272.9415
  12   2.0000      -1.067416       -29.0459
  13   2.0000      -1.049087       -28.5471
  14   2.0000      -0.967992       -26.3404
  15   2.0000      -0.836017       -22.7492
  16   2.0000      -0.754209       -20.5231
  17   2.0000      -0.732159       -19.9230
  18   2.0000      -0.723138       -19.6776
  19   2.0000      -0.635969       -17.3056
  20   2.0000      -0.610123       -16.6023
  21   2.0000      -0.581295       -15.8178
  22   2.0000      -0.537792       -14.6341
  23   2.0000      -0.530426       -14.4336
  24   2.0000      -0.503434       -13.6991
  25   2.0000      -0.460272       -12.5246
  26   2.0000      -0.451833       -12.2950
  27   2.0000      -0.431166       -11.7326
  28   2.0000      -0.417028       -11.3479
  29   2.0000      -0.403473       -10.9791
  30   2.0000      -0.402399       -10.9498
  31   2.0000      -0.391181       -10.6446
  32   2.0000      -0.389730       -10.6051
  33   2.0000      -0.372168       -10.1272
  34   2.0000      -0.365951        -9.9580
  35   2.0000      -0.348407        -9.4806
  36   2.0000      -0.338312        -9.2059
  37   2.0000      -0.321864        -8.7584
  38   2.0000      -0.313701        -8.5362
  39   2.0000      -0.309344        -8.4177
  40   2.0000      -0.268725        -7.3124
  41   2.0000      -0.249868        -6.7993
  42   2.0000      -0.233777        -6.3614
  43   2.0000      -0.218459        -5.9446
  44   0.0000      -0.064227        -1.7477
  45   0.0000      -0.042133        -1.1465
  46   0.0000       0.035804         0.9743
  47   0.0000       0.045861         1.2479
  48   0.0000       0.069245         1.8843

MULLIKEN ATOMIC CHARGES
-----------------------
   0 C :   -0.450109
   1 C :   -0.140951
   2 O :   -0.143237
   3 C :    0.333077
   4 O :   -0.434730
   5 C :    0.072333
   6 C :   -0.218383
   7 C :   -0.326746
   8 C :    0.449083
   9 C :   -0.302523
  10 C :   -0.175664
  11 O :   -0.400538
  12 H :    0.152471
  13 H :    0.152194
  14 H :    0.148084
  15 H :    0.156234
  16 H :    0.157968
  17 H :    0.182498
  18 H :    0.140071
  19 H :    0.157058
  20 H :    0.172357
  21 H :    0.319453
Sum of atomic charges:   -0.0000000

LOEWDIN ATOMIC CHARGES
----------------------
   0 C :   -0.387564
   1 C :    0.036777
   2 O :   -0.609251
   3 C :    0.382938
   4 O :   -0.444411
   5 C :   -0.054123
   6 C :   -0.092531
   7 C :   -0.167981
   8 C :    0.197793
   9 C :   -0.140269
  10 C :   -0.100822
  11 O :   -0.480497
  12 H :    0.159085
  13 H :    0.159005
  14 H :    0.159684
  15 H :    0.179435
  16 H :    0.180333
  17 H :    0.191726
  18 H :    0.170892
  19 H :    0.181611
  20 H :    0.189056
  21 H :    0.289112

  Mayer bond orders larger than 0.100000
B(  0-C ,  1-C ) :   0.9411 B(  0-C , 12-H ) :   0.9735 B(  0-C , 13-H ) :   0.9730
B(  0-C , 14-H ) :   0.9687 B(  1-C ,  2-O ) :   0.7894 B(  1-C , 15-H ) :   0.9511
B(  1-C , 16-H ) :   0.9528 B(  2-O ,  3-C ) :   1.2015 B(  2-O ,  5-C ) :  -0.1425
B(  3-C ,  4-O ) :   1.8477 B(  3-C ,  5-C ) :   1.0434 B(  5-C ,  6-C ) :   1.4847
B(  5-C , 10-C ) :   1.3611 B(  6-C ,  7-C ) :   1.3787 B(  6-C , 17-H ) :   0.9334
B(  7-C ,  8-C ) :   1.3004 B(  7-C , 18-H ) :   0.9311 B(  8-C ,  9-C ) :   1.3830
B(  8-C , 11-O ) :   0.9416 B(  9-C , 10-C ) :   1.3605 B(  9-C , 11-O ) :   0.1034
B(  9-C , 19-H ) :   0.9546 B( 10-C , 20-H ) :   0.9515 B( 11-O , 21-H ) :   0.8769

Dispersion correction           -0.007317614
FINAL SINGLE POINT ENERGY      -574.554023524691

DIPOLE MOMENT
-------------

Method             : SCF
Type of density    : Electron Density
Multiplicity       :   1
Irrep              :   0
Energy             :  -574.5573919772679119 Eh
Relativity type    :
Basis              : AO
                                X                 Y                 Z
Electronic contribution:      9.479314342       1.590946386      -3.376470733
Nuclear contribution   :     -8.983652601      -1.734793794       3.749455791
                        -----------------------------------------
Total Dipole Moment    :      0.495661741      -0.143847408       0.372985058
                        -----------------------------------------
Magnitude (a.u.)       :      0.636781353
Magnitude (Debye)      :      1.618569570

Rotational constants in cm-1:             0.087048             0.014807             0.012715
Rotational constants in MHz :          2609.620459           443.889286           381.174611

                             ****ORCA TERMINATED NORMALLY****
TOTAL RUN TIME: 0 days 0 hours 0 minutes 42 seconds 67 msec
