                         Program Version 6.0.0  -   RELEASE  -
|  1> ! r2scan-3c def2/J RI DEFGRID2 scfconv6 printgap
|  2> %output
|  3>     printlevel normal
|  4> end
|  5> %cpcm
|  6>     smd true
|  7>     smdsolvent "water"
|  8> end
|  9> * xyz 0 1
| 10> C -4.15622297 -0.6812270116 1.4333084305
| 11> C -3.473662427 -0.1401549569 0.1920199205
| 12> O -2.0550698925 -0.194157561 0.3997805127
| 13> C -1.2780171847 0.2172689989 -0.6013209743
| 14> O -1.7357977091 0.6265365704 -1.6574439584
| 15> C 0.1576718485 0.1263241853 -0.3018829399
| 16> C 1.0734109255 0.5250368706 -1.2760255183
| 17> C 2.4280047417 0.4553703262 -1.0356545047
| 18> C 2.8942620207 -0.0171269255 0.1915252164
| 19> C 1.9791489572 -0.4168965322 1.1692664618
| 20> C 0.626974659 -0.3463035859 0.9259133862
| 21> O 4.205654793 -0.1070876542 0.4817629649
| 22> H -3.8491673591 -1.7080246653 1.6086950466
| 23> H -3.886246814 -0.0812225819 2.2972537814
| 24> H -5.2316894042 -0.6470024379 1.2944952355
| 25> H -3.7551937267 0.8996985975 -0.0068106364
| 26> H -3.7165765492 -0.7317680022 -0.6974097184
| 27> H 0.6946087952 0.8879289913 -2.2194969458
| 28> H 3.1265413432 0.7666658457 -1.797587736
| 29> H 2.3597931783 -0.7787241808 2.1106646989
| 30> H -0.0795999801 -0.6542936492 1.6791183714
| 31> H 4.7552700574 0.1924825921 -0.2601119276
| 32> *
| 33>
| 34>                          ****END OF INPUT****

CARTESIAN COORDINATES (ANGSTROEM)
---------------------------------
  C     -4.156223   -0.681227    1.433308
  C     -3.473662   -0.140155    0.192020
  O     -2.055070   -0.194158    0.399781
  C     -1.278017    0.217269   -0.601321
  O     -1.735798    0.626537   -1.657444
  C      0.157672    0.126324   -0.301883
  C      1.073411    0.525037   -1.276026
  C      2.428005    0.455370   -1.035655
  C      2.894262   -0.017127    0.191525
  C      1.979149   -0.416897    1.169266
  C      0.626975   -0.346304    0.925913
  O      4.205655   -0.107088    0.481763
  H     -3.849167   -1.708025    1.608695
  H     -3.886247   -0.081223    2.297254
  H     -5.231689   -0.647002    1.294495
  H     -3.755194    0.899699   -0.006811
  H     -3.716577   -0.731768   -0.697410
  H      0.694609    0.887929   -2.219497
  H      3.126541    0.766666   -1.797588
  H      2.359793   -0.778724    2.110665
  H     -0.079600   -0.654294    1.679118
  H      4.755270    0.192483   -0.260112

 Total Charge           Charge          ....    0
 Multiplicity           Mult            ....    1
 Number of Electrons    NEL             ....   88
 Basis Dimension        Dim             ....  293

ORBITAL ENERGIES
----------------

  NO   OCC          E(Eh)            E(eV)
   0   2.0000     -19.000542      -517.0310
   1   2.0000     -18.993301      -516.8340
   2   2.0000     -18.940376      -515.3938
   3   2.0000     -10.164056      -276.5780
   4   2.0000     -10.112017      -275.1620
   5   2.0000     -10.084597      -274.4158
   6   2.0000     -10.048490      -273.4333
   7   2.0000     -10.048053      -273.4214
   8   2.0000     -10.047837      -273.4156
   9   2.0000     -10.041014      -273.2299
  10   2.0000     -10.038793      -273.1694
  11   2.0000     -10.018658      -272.6215
  12   2.0000      -1.077498       -29.3202
  13   2.0000      -1.039978       -28.2992
  14   2.0000      -0.984737       -26.7961
  15   2.0000      -0.836316       -22.7573
  16   2.0000      -0.752577       -20.4787
  17   2.0000      -0.730538       -19.8790
  18   2.0000      -0.719322       -19.5738
  19   2.0000      -0.633162       -17.2292
  20   2.0000      -0.605752       -16.4833
  21   2.0000      -0.577801       -15.7228
  22   2.0000      -0.537350       -14.6220
  23   2.0000      -0.523956       -14.2576
  24   2.0000      -0.505348       -13.7512
  25   2.0000      -0.461145       -12.5484
  26   2.0000      -0.454364       -12.3639
  27   2.0000      -0.441423       -12.0117
  28   2.0000      -0.417005       -11.3473
  29   2.0000      -0.402291       -10.9469
  30   2.0000      -0.399812       -10.8794
  31   2.0000      -0.389758       -10.6059
  32   2.0000      -0.389214       -10.5911
  33   2.0000      -0.365782        -9.9534
  34   2.0000      -0.362090        -9.8530
  35   2.0000      -0.346586        -9.4311
  36   2.0000      -0.334245        -9.0953
  37   2.0000      -0.320391        -8.7183
  38   2.0000      -0.316297        -8.6069
  39   2.0000      -0.309145        -8.4123
  40   2.0000      -0.277483        -7.5507
  41   2.0000      -0.254211        -6.9174
  42   2.0000      -0.250450        -6.8151
  43   2.0000      -0.219633        -5.9765
  44   0.0000      -0.070746        -1.9251
  45   0.0000      -0.041881        -1.1396
  46   0.0000       0.029954         0.8151
  47   0.0000       0.070843         1.9277
  48   0.0000       0.079650         2.1674

MULLIKEN ATOMIC CHARGES
-----------------------
   0 C :   -0.495842
   1 C :   -0.145120
   2 O :   -0.153935
   3 C :    0.379141
   4 O :   -0.515023
   5 C :    0.070819
   6 C :   -0.229777
   7 C :   -0.341790
   8 C :    0.412938
   9 C :   -0.338446
  10 C :   -0.200868
  11 O :   -0.431666
  12 H :    0.165137
  13 H :    0.164930
  14 H :    0.169898
  15 H :    0.171220
  16 H :    0.171274
  17 H :    0.195944
  18 H :    0.188949
  19 H :    0.187952
  20 H :    0.195518
  21 H :    0.378747
Sum of atomic charges:   -0.0000000

LOEWDIN ATOMIC CHARGES
----------------------
   0 C :   -0.389663
   1 C :    0.038709
   2 O :   -0.609044
   3 C :    0.387389
   4 O :   -0.507393
   5 C :   -0.069604
   6 C :   -0.105255
   7 C :   -0.155176
   8 C :    0.196066
   9 C :   -0.145856
  10 C :   -0.105587
  11 O :   -0.483698
  12 H :    0.162678
  13 H :    0.162668
  14 H :    0.168409
  15 H :    0.184297
  16 H :    0.184724
  17 H :    0.194409
  18 H :    0.190951
  19 H :    0.191819
  20 H :    0.196806
  21 H :    0.312351

  Mayer bond orders larger than 0.100000
B(  0-C ,  1-C ) :   0.9432 B(  0-C , 12-H ) :   0.9712 B(  0-C , 13-H ) :   0.9705
B(  0-C , 14-H ) :   0.9621 B(  1-C ,  2-O ) :   0.7762 B(  1-C , 15-H ) :   0.9439
B(  1-C , 16-H ) :   0.9460 B(  2-O ,  3-C ) :   1.2155 B(  2-O ,  5-C ) :  -0.1269
B(  3-C ,  4-O ) :   1.7863 B(  3-C ,  5-C ) :   1.0503 B(  5-C ,  6-C ) :   1.3918
B(  5-C , 10-C ) :   1.3120 B(  6-C ,  7-C ) :   1.3698 B(  6-C , 17-H ) :   0.9491
B(  7-C ,  8-C ) :   1.3002 B(  7-C , 18-H ) :   0.9519 B(  8-C ,  9-C ) :   1.3282
B(  8-C , 11-O ) :   0.9621 B(  9-C , 10-C ) :   1.3822 B(  9-C , 19-H ) :   0.9588
B( 10-C , 20-H ) :   0.9594 B( 11-O , 21-H ) :   0.8440

Dispersion correction           -0.007317614
FINAL SINGLE POINT ENERGY      -574.567852819053

DIPOLE MOMENT
-------------

Method             : SCF
Type of density    : Electron Density
Multiplicity       :   1
Irrep              :   0
Energy             :  -574.5712212716299518 Eh
Relativity type    :
Basis              : AO
                                X                 Y                 Z
Electronic contribution:      9.869026836       1.531579478      -3.211262741
Nuclear contribution   :     -8.983652601      -1.734793794       3.749455791
                        -----------------------------------------
Total Dipole Moment    :      0.885374235      -0.203214317       0.538193050
                        -----------------------------------------
Magnitude (a.u.)       :      1.055857639
Magnitude (Debye)      :      2.683776834

Rotational constants in cm-1:             0.087048             0.014807             0.012715
Rotational constants in MHz :          2609.620459           443.889286           381.174611

                             ****ORCA TERMINATED NORMALLY****
TOTAL RUN TIME: 0 days 0 hours 0 minutes 53 seconds 748 msec
