                         Program Version 6.0.0  -   RELEASE  -
|  1> ! r2scan-3c def2/J RI DEFGRID2 scfconv6 printgap
|  2> %output
|  3>     printlevel normal
|  4> end
|  5> * xyz 0 1
|  6> C -2.35898668 0.7224176293 -0.0123050225
|  7> C -0.8448665159 0.8955362227 -0.0049294703
|  8> C -0.0918493639 -0.3330877783 0.5170800023
|  9> H -0.432832107 -0.5485097777 1.5355416586
| 10> C -0.3329147614 -1.568262384 -0.3511801503
| 11> C 1.4107332161 -0.0202533658 0.6177831321
| 12> O 2.0092703826 0.3358702285 -0.6091189729
| 13> H -2.8387398507 1.6574957778 -0.2908057805
| 14> H -2.6642528138 -0.0390057958 -0.7244876285
| 15> H -2.7132557837 0.4360812356 0.9755903572
| 16> H -0.5884805466 1.7482678277 0.6283087896
| 17> H -0.4941844838 1.1237087733 -1.0136280161
| 18> H 0.3230973816 -2.3805014911 -0.0445851539
| 19> H -0.1535595755 -1.3433070138 -1.400228415
| 20> H -1.3587907981 -1.9094053021 -0.2494805751
| 21> H 1.9359830719 -0.8799381639 1.0573165525
| 22> H 1.5646040087 0.8427607266 1.2709123535
| 23> H 1.9554699616 -0.4206995542 -1.2089592859
| 24> *
| 25>
| 26>                          ****END OF INPUT****

CARTESIAN COORDINATES (ANGSTROEM)
---------------------------------
  C     -2.358987    0.722418   -0.012305
  C     -0.844867    0.895536   -0.004929
  C     -0.091849   -0.333088    0.517080
  H     -0.432832   -0.548510    1.535542
  C     -0.332915   -1.568262   -0.351180
  C      1.410733   -0.020253    0.617783
  O      2.009270    0.335870   -0.609119
  H     -2.838740    1.657496   -0.290806
  H     -2.664253   -0.039006   -0.724488
  H     -2.713256    0.436081    0.975590
  H     -0.588481    1.748268    0.628309
  H     -0.494184    1.123709   -1.013628
  H      0.323097   -2.380501   -0.044585
  H     -0.153560   -1.343307   -1.400228
  H     -1.358791   -1.909405   -0.249481
  H      1.935983   -0.879938    1.057317
  H      1.564604    0.842761    1.270912
  H      1.955470   -0.420700   -1.208959

 Total Charge           Charge          ....    0
 Multiplicity           Mult            ....    1
 Number of Electrons    NEL             ....   50
 Basis Dimension        Dim             ....  179

ORBITAL ENERGIES
----------------

  NO   OCC          E(Eh)            E(eV)
   0   2.0000     -18.946822      -515.5692
   1   2.0000     -10.070671      -274.0369
   2   2.0000     -10.033791      -273.0333
   3   2.0000     -10.023308      -272.7481
   4   2.0000     -10.020862      -272.6815
   5   2.0000     -10.015410      -272.5332
   6   2.0000      -0.984262       -26.7831
   7   2.0000      -0.774271       -21.0690
   8   2.0000      -0.697578       -18.9821
   9   2.0000      -0.650618       -17.7042
  10   2.0000      -0.591527       -16.0963
  11   2.0000      -0.529944       -14.4205
  12   2.0000      -0.466330       -12.6895
  13   2.0000      -0.441653       -12.0180
  14   2.0000      -0.415056       -11.2942
  15   2.0000      -0.405296       -11.0287
  16   2.0000      -0.390879       -10.6364
  17   2.0000      -0.356209        -9.6929
  18   2.0000      -0.351856        -9.5745
  19   2.0000      -0.330289        -8.9876
  20   2.0000      -0.317915        -8.6509
  21   2.0000      -0.300086        -8.1657
  22   2.0000      -0.293505        -7.9867
  23   2.0000      -0.281048        -7.6477
  24   2.0000      -0.232259        -6.3201
  25   0.0000       0.053275         1.4497
  26   0.0000       0.097399         2.6504
  27   0.0000       0.112677         3.0661
  28   0.0000       0.125977         3.4280
  29   0.0000       0.130634         3.5547

MULLIKEN ATOMIC CHARGES
-----------------------
   0 C :   -0.494268
   1 C :   -0.266331
   2 C :    0.016511
   3 H :    0.146936
   4 C :   -0.565606
   5 C :   -0.195976
   6 O :   -0.427994
   7 H :    0.148368
   8 H :    0.150272
   9 H :    0.144064
  10 H :    0.138476
  11 H :    0.161897
  12 H :    0.152550
  13 H :    0.151975
  14 H :    0.161414
  15 H :    0.136242
  16 H :    0.140678
  17 H :    0.300792
Sum of atomic charges:    0.0000000

LOEWDIN ATOMIC CHARGES
----------------------
   0 C :   -0.423033
   1 C :   -0.306970
   2 C :   -0.235690
   3 H :    0.161923
   4 C :   -0.421331
   5 C :    0.004088
   6 O :   -0.618343
   7 H :    0.151615
   8 H :    0.149254
   9 H :    0.149982
  10 H :    0.156683
  11 H :    0.163091
  12 H :    0.155991
  13 H :    0.152469
  14 H :    0.158772
  15 H :    0.157507
  16 H :    0.178313
  17 H :    0.265679

  Mayer bond orders larger than 0.100000
B(  0-C ,  1-C ) :   0.8778 B(  0-C ,  7-H ) :   0.9735 B(  0-C ,  8-H ) :   0.9835
B(  0-C ,  9-H ) :   0.9834 B(  1-C ,  2-C ) :   0.9077 B(  1-C , 10-H ) :   0.9678
B(  1-C , 11-H ) :   0.9792 B(  2-C ,  3-H ) :   0.9516 B(  2-C ,  4-C ) :   0.8515
B(  2-C ,  5-C ) :   0.9203 B(  4-C , 12-H ) :   0.9732 B(  4-C , 13-H ) :   0.9863
B(  4-C , 14-H ) :   0.9685 B(  5-C ,  6-O ) :   0.9521 B(  5-C , 15-H ) :   0.9862
B(  5-C , 16-H ) :   0.9780 B(  6-O , 17-H ) :   0.8937

Dispersion correction           -0.004420214
FINAL SINGLE POINT ENERGY      -272.898278068042

DIPOLE MOMENT
-------------

Method             : SCF
Type of density    : Electron Density
Multiplicity       :   1
Irrep              :   0
Energy             :  -272.9037730310178063 Eh
Relativity type    :
Basis              : AO
                                X                 Y                 Z
Electronic contribution:      4.784168887       1.097892037      -0.381268504
Nuclear contribution   :     -5.097190899      -1.602139324       0.493342197
                        -----------------------------------------
Total Dipole Moment    :     -0.313022011      -0.504247287       0.112073693
                        -----------------------------------------
Magnitude (a.u.)       :      0.603993890
Magnitude (Debye)      :      1.535230461

Rotational constants in cm-1:             0.181106             0.073204             0.062351
Rotational constants in MHz :          5429.421530          2194.609749          1869.243479

                             ****ORCA TERMINATED NORMALLY****
TOTAL RUN TIME: 0 days 0 hours 0 minutes 23 seconds 799 msec
