                         Program Version 6.0.0  -   RELEASE  -
|  1> ! r2scan-3c def2/J RI DEFGRID2 scfconv6 printgap
|  2> %output
|  3>     printlevel normal
|  4> end
|  5> %cpcm
|  6>     smd true
|  7>     smdsolvent "water"
|  8> end
|  9> * xyz 0 1
| 10> C -2.35898668 0.7224176293 -0.0123050225
| 11> C -0.8448665159 0.8955362227 -0.0049294703
| 12> C -0.0918493639 -0.3330877783 0.5170800023
| 13> H -0.432832107 -0.5485097777 1.5355416586
| 14> C -0.3329147614 -1.568262384 -0.3511801503
| 15> C 1.4107332161 -0.0202533658 0.6177831321
| 16> O 2.0092703826 0.3358702285 -0.6091189729
| 17> H -2.8387398507 1.6574957778 -0.2908057805
| 18> H -2.6642528138 -0.0390057958 -0.7244876285
| 19> H -2.7132557837 0.4360812356 0.9755903572
| 20> H -0.5884805466 1.7482678277 0.6283087896
| 21> H -0.4941844838 1.1237087733 -1.0136280161
| 22> H 0.3230973816 -2.3805014911 -0.0445851539
| 23> H -0.1535595755 -1.3433070138 -1.400228415
| 24> H -1.3587907981 -1.9094053021 -0.2494805751
| 25> H 1.9359830719 -0.8799381639 1.0573165525
| 26> H 1.5646040087 0.8427607266 1.2709123535
| 27> H 1.9554699616 -0.4206995542 -1.2089592859
| 28> *
| 29>
| 30>                          ****END OF INPUT****

CARTESIAN COORDINATES (ANGSTROEM)
---------------------------------
  C     -2.358987    0.722418   -0.012305
  C     -0.844867    0.895536   -0.004929
  C     -0.091849   -0.333088    0.517080
  H     -0.432832   -0.548510    1.535542
  C     -0.332915   -1.568262   -0.351180
  C      1.410733   -0.020253    0.617783
  O      2.009270    0.335870   -0.609119
  H     -2.838740    1.657496   -0.290806
  H     -2.664253   -0.039006   -0.724488
  H     -2.713256    0.436081    0.975590
  H     -0.588481    1.748268    0.628309
  H     -0.494184    1.123709   -1.013628
  H      0.323097   -2.380501   -0.044585
  H     -0.153560   -1.343307   -1.400228
  H     -1.358791   -1.909405   -0.249481
  H      1.935983   -0.879938    1.057317
  H      1.564604    0.842761    1.270912
  H      1.955470   -0.420700   -1.208959

 Total Charge           Charge          ....    0
 Multiplicity           Mult            ....    1
 Number of Electrons    NEL             ....   50
 Basis Dimension        Dim             ....  179

ORBITAL ENERGIES
----------------

  NO   OCC          E(Eh)            E(eV)
   0   2.0000     -18.950130      -515.6593
   1   2.0000     -10.064228      -273.8616
   2   2.0000     -10.023891      -272.7639
   3   2.0000     -10.014205      -272.5004
   4   2.0000     -10.008244      -272.3382
   5   2.0000     -10.007140      -272.3081
   6   2.0000      -0.986420       -26.8418
   7   2.0000      -0.765142       -20.8206
   8   2.0000      -0.688831       -18.7441
   9   2.0000      -0.641204       -17.4480
  10   2.0000      -0.584684       -15.9101
  11   2.0000      -0.522518       -14.2184
  12   2.0000      -0.461168       -12.5490
  13   2.0000      -0.433838       -11.8053
  14   2.0000      -0.407642       -11.0925
  15   2.0000      -0.398223       -10.8362
  16   2.0000      -0.383631       -10.4391
  17   2.0000      -0.347167        -9.4469
  18   2.0000      -0.343200        -9.3389
  19   2.0000      -0.321297        -8.7429
  20   2.0000      -0.313166        -8.5217
  21   2.0000      -0.294063        -8.0018
  22   2.0000      -0.285429        -7.7669
  23   2.0000      -0.275398        -7.4939
  24   2.0000      -0.234382        -6.3779
  25   0.0000       0.068840         1.8732
  26   0.0000       0.108830         2.9614
  27   0.0000       0.121769         3.3135
  28   0.0000       0.135610         3.6901
  29   0.0000       0.140429         3.8213

MULLIKEN ATOMIC CHARGES
-----------------------
   0 C :   -0.533585
   1 C :   -0.289717
   2 C :    0.020804
   3 H :    0.159933
   4 C :   -0.582986
   5 C :   -0.193430
   6 O :   -0.517215
   7 H :    0.156353
   8 H :    0.162320
   9 H :    0.156190
  10 H :    0.151327
  11 H :    0.155635
  12 H :    0.162146
  13 H :    0.166387
  14 H :    0.169085
  15 H :    0.148090
  16 H :    0.152961
  17 H :    0.355704
Sum of atomic charges:   -0.0000000

LOEWDIN ATOMIC CHARGES
----------------------
   0 C :   -0.429847
   1 C :   -0.311980
   2 C :   -0.231330
   3 H :    0.167397
   4 C :   -0.424376
   5 C :    0.002474
   6 O :   -0.656737
   7 H :    0.152766
   8 H :    0.152884
   9 H :    0.153595
  10 H :    0.158329
  11 H :    0.159133
  12 H :    0.160055
  13 H :    0.158293
  14 H :    0.159511
  15 H :    0.165183
  16 H :    0.180823
  17 H :    0.283831

  Mayer bond orders larger than 0.100000
B(  0-C ,  1-C ) :   0.8821 B(  0-C ,  7-H ) :   0.9717 B(  0-C ,  8-H ) :   0.9793
B(  0-C ,  9-H ) :   0.9812 B(  1-C ,  2-C ) :   0.8963 B(  1-C , 10-H ) :   0.9695
B(  1-C , 11-H ) :   0.9804 B(  2-C ,  3-H ) :   0.9492 B(  2-C ,  4-C ) :   0.8623
B(  2-C ,  5-C ) :   0.9292 B(  4-C , 12-H ) :   0.9682 B(  4-C , 13-H ) :   0.9797
B(  4-C , 14-H ) :   0.9678 B(  5-C ,  6-O ) :   0.9363 B(  5-C , 15-H ) :   0.9753
B(  5-C , 16-H ) :   0.9768 B(  6-O , 17-H ) :   0.8662

Dispersion correction           -0.004420214
FINAL SINGLE POINT ENERGY      -272.904305931278

DIPOLE MOMENT
-------------

Method             : SCF
Type of density    : Electron Density
Multiplicity       :   1
Irrep              :   0
Energy             :  -272.9098008942542037 Eh
Relativity type    :
Basis              : AO
                                X                 Y                 Z
Electronic contribution:      4.687157677       0.844364250      -0.322088284
Nuclear contribution   :     -5.097190899      -1.602139324       0.493342197
                        -----------------------------------------
Total Dipole Moment    :     -0.410033221      -0.757775074       0.171253913
                        -----------------------------------------
Magnitude (a.u.)       :      0.878452167
Magnitude (Debye)      :      2.232847960

Rotational constants in cm-1:             0.181106             0.073204             0.062351
Rotational constants in MHz :          5429.421530          2194.609749          1869.243479

                             ****ORCA TERMINATED NORMALLY****
TOTAL RUN TIME: 0 days 0 hours 0 minutes 28 seconds 628 msec
