                         Program Version 6.0.0  -   RELEASE  -
|  1> ! r2scan-3c def2/J RI DEFGRID2 scfconv6 printgap
|  2> %output
|  3>     printlevel normal
|  4> end
|  5> * xyz 0 1
|  6> C -1.4452898116 0.3775550261 -0.267927112
|  7> C -0.0164042503 0.3281201576 0.2967260769
|  8> C 0.8330779584 -0.7736128391 -0.3545681416
|  9> O 2.165661739 -0.7275181431 0.1059058883
| 10> O 0.5682582906 1.5929473244 0.0697876295
| 11> O -2.2361232566 -0.7198591039 0.1160706856
| 12> H -1.3988084976 0.4820238786 -1.3573206144
| 13> H -1.9311906418 1.2667651239 0.1409269706
| 14> H -0.0811460915 0.1425170827 1.3826299491
| 15> H 0.8882347229 -0.5979150444 -1.4321132585
| 16> H 0.3872076346 -1.7556906896 -0.1682446629
| 17> H 2.201552768 -1.0241511078 1.0261575678
| 18> H 1.532688492 1.4781462377 0.0766095416
| 19> H -2.0095845095 -1.4928287333 -0.418020976
| 20> *
| 21>
| 22>                          ****END OF INPUT****

CARTESIAN COORDINATES (ANGSTROEM)
---------------------------------
  C     -1.445290    0.377555   -0.267927
  C     -0.016404    0.328120    0.296726
  C      0.833078   -0.773613   -0.354568
  O      2.165662   -0.727518    0.105906
  O      0.568258    1.592947    0.069788
  O     -2.236123   -0.719859    0.116071
  H     -1.398808    0.482024   -1.357321
  H     -1.931191    1.266765    0.140927
  H     -0.081146    0.142517    1.382630
  H      0.888235   -0.597915   -1.432113
  H      0.387208   -1.755691   -0.168245
  H      2.201553   -1.024151    1.026158
  H      1.532688    1.478146    0.076610
  H     -2.009585   -1.492829   -0.418021

 Total Charge           Charge          ....    0
 Multiplicity           Mult            ....    1
 Number of Electrons    NEL             ....   50
 Basis Dimension        Dim             ....  169

ORBITAL ENERGIES
----------------

  NO   OCC          E(Eh)            E(eV)
   0   2.0000     -18.971298      -516.2353
   1   2.0000     -18.960030      -515.9287
   2   2.0000     -18.950206      -515.6613
   3   2.0000     -10.090011      -274.5631
   4   2.0000     -10.084993      -274.4266
   5   2.0000     -10.080824      -274.3132
   6   2.0000      -1.013969       -27.5915
   7   2.0000      -0.997544       -27.1446
   8   2.0000      -0.981989       -26.7213
   9   2.0000      -0.726948       -19.7812
  10   2.0000      -0.655512       -17.8374
  11   2.0000      -0.575171       -15.6512
  12   2.0000      -0.504656       -13.7324
  13   2.0000      -0.497216       -13.5299
  14   2.0000      -0.461918       -12.5694
  15   2.0000      -0.435964       -11.8632
  16   2.0000      -0.419705       -11.4208
  17   2.0000      -0.394555       -10.7364
  18   2.0000      -0.374249       -10.1838
  19   2.0000      -0.322106        -8.7649
  20   2.0000      -0.318429        -8.6649
  21   2.0000      -0.305400        -8.3104
  22   2.0000      -0.274240        -7.4624
  23   2.0000      -0.242178        -6.5900
  24   2.0000      -0.236239        -6.4284
  25   0.0000       0.026552         0.7225
  26   0.0000       0.055599         1.5129
  27   0.0000       0.088487         2.4079
  28   0.0000       0.113852         3.0981
  29   0.0000       0.124349         3.3837

MULLIKEN ATOMIC CHARGES
-----------------------
   0 C :   -0.229319
   1 C :    0.125984
   2 C :   -0.235804
   3 O :   -0.437473
   4 O :   -0.434410
   5 O :   -0.419727
   6 H :    0.140495
   7 H :    0.154199
   8 H :    0.133390
   9 H :    0.153676
  10 H :    0.126250
  11 H :    0.305346
  12 H :    0.316941
  13 H :    0.300453
Sum of atomic charges:    0.0000000

LOEWDIN ATOMIC CHARGES
----------------------
   0 C :    0.038137
   1 C :    0.068679
   2 C :    0.015242
   3 O :   -0.607096
   4 O :   -0.594763
   5 O :   -0.605130
   6 H :    0.165090
   7 H :    0.189859
   8 H :    0.167685
   9 H :    0.184331
  10 H :    0.162209
  11 H :    0.269131
  12 H :    0.281064
  13 H :    0.265564

  Mayer bond orders larger than 0.100000
B(  0-C ,  1-C ) :   0.9108 B(  0-C ,  5-O ) :   0.9676 B(  0-C ,  6-H ) :   0.9908
B(  0-C ,  7-H ) :   0.9630 B(  1-C ,  2-C ) :   0.8967 B(  1-C ,  4-O ) :   0.8627
B(  1-C ,  8-H ) :   0.9261 B(  2-C ,  3-O ) :   0.9729 B(  2-C ,  9-H ) :   0.9764
B(  2-C , 10-H ) :   0.9752 B(  3-O , 11-H ) :   0.8917 B(  4-O , 12-H ) :   0.8650
B(  5-O , 13-H ) :   0.8934

Dispersion correction           -0.003005855
FINAL SINGLE POINT ENERGY      -344.723249923374

DIPOLE MOMENT
-------------

Method             : SCF
Type of density    : Electron Density
Multiplicity       :   1
Irrep              :   0
Energy             :  -344.7307821064877089 Eh
Relativity type    :
Basis              : AO
                                X                 Y                 Z
Electronic contribution:      0.686028073       0.640513113       0.694063341
Nuclear contribution   :     -0.378239583      -1.406161341      -0.698711039
                        -----------------------------------------
Total Dipole Moment    :      0.307788490      -0.765648228      -0.004647698
                        -----------------------------------------
Magnitude (a.u.)       :      0.825210619
Magnitude (Debye)      :      2.097518700

Rotational constants in cm-1:             0.188707             0.075747             0.058074
Rotational constants in MHz :          5657.304928          2270.839458          1741.023720

                             ****ORCA TERMINATED NORMALLY****
TOTAL RUN TIME: 0 days 0 hours 0 minutes 20 seconds 521 msec
