                         Program Version 6.0.0  -   RELEASE  -
|  1> ! r2scan-3c def2/J RI DEFGRID2 scfconv6 printgap
|  2> %output
|  3>     printlevel normal
|  4> end
|  5> %cpcm
|  6>     smd true
|  7>     smdsolvent "water"
|  8> end
|  9> * xyz 0 1
| 10> C -1.4452898116 0.3775550261 -0.267927112
| 11> C -0.0164042503 0.3281201576 0.2967260769
| 12> C 0.8330779584 -0.7736128391 -0.3545681416
| 13> O 2.165661739 -0.7275181431 0.1059058883
| 14> O 0.5682582906 1.5929473244 0.0697876295
| 15> O -2.2361232566 -0.7198591039 0.1160706856
| 16> H -1.3988084976 0.4820238786 -1.3573206144
| 17> H -1.9311906418 1.2667651239 0.1409269706
| 18> H -0.0811460915 0.1425170827 1.3826299491
| 19> H 0.8882347229 -0.5979150444 -1.4321132585
| 20> H 0.3872076346 -1.7556906896 -0.1682446629
| 21> H 2.201552768 -1.0241511078 1.0261575678
| 22> H 1.532688492 1.4781462377 0.0766095416
| 23> H -2.0095845095 -1.4928287333 -0.418020976
| 24> *
| 25>
| 26>                          ****END OF INPUT****

CARTESIAN COORDINATES (ANGSTROEM)
---------------------------------
  C     -1.445290    0.377555   -0.267927
  C     -0.016404    0.328120    0.296726
  C      0.833078   -0.773613   -0.354568
  O      2.165662   -0.727518    0.105906
  O      0.568258    1.592947    0.069788
  O     -2.236123   -0.719859    0.116071
  H     -1.398808    0.482024   -1.357321
  H     -1.931191    1.266765    0.140927
  H     -0.081146    0.142517    1.382630
  H      0.888235   -0.597915   -1.432113
  H      0.387208   -1.755691   -0.168245
  H      2.201553   -1.024151    1.026158
  H      1.532688    1.478146    0.076610
  H     -2.009585   -1.492829   -0.418021

 Total Charge           Charge          ....    0
 Multiplicity           Mult            ....    1
 Number of Electrons    NEL             ....   50
 Basis Dimension        Dim             ....  169

ORBITAL ENERGIES
----------------

  NO   OCC          E(Eh)            E(eV)
   0   2.0000     -18.958339      -515.8826
   1   2.0000     -18.957287      -515.8540
   2   2.0000     -18.954507      -515.7784
   3   2.0000     -10.077316      -274.2177
   4   2.0000     -10.073831      -274.1229
   5   2.0000     -10.072947      -274.0988
   6   2.0000      -1.006190       -27.3798
   7   2.0000      -0.992360       -27.0035
   8   2.0000      -0.980246       -26.6739
   9   2.0000      -0.718101       -19.5405
  10   2.0000      -0.644056       -17.5256
  11   2.0000      -0.567335       -15.4380
  12   2.0000      -0.497406       -13.5351
  13   2.0000      -0.486107       -13.2276
  14   2.0000      -0.451734       -12.2923
  15   2.0000      -0.427571       -11.6348
  16   2.0000      -0.413236       -11.2447
  17   2.0000      -0.390727       -10.6322
  18   2.0000      -0.368568       -10.0292
  19   2.0000      -0.324964        -8.8427
  20   2.0000      -0.311959        -8.4888
  21   2.0000      -0.298698        -8.1280
  22   2.0000      -0.271762        -7.3950
  23   2.0000      -0.240334        -6.5398
  24   2.0000      -0.234373        -6.3776
  25   0.0000       0.046276         1.2592
  26   0.0000       0.085562         2.3283
  27   0.0000       0.101770         2.7693
  28   0.0000       0.129461         3.5228
  29   0.0000       0.136928         3.7260

MULLIKEN ATOMIC CHARGES
-----------------------
   0 C :   -0.222771
   1 C :    0.095413
   2 C :   -0.211719
   3 O :   -0.501213
   4 O :   -0.511567
   5 O :   -0.497379
   6 H :    0.158875
   7 H :    0.159989
   8 H :    0.147545
   9 H :    0.164498
  10 H :    0.153172
  11 H :    0.354419
  12 H :    0.351780
  13 H :    0.358957
Sum of atomic charges:   -0.0000000

LOEWDIN ATOMIC CHARGES
----------------------
   0 C :    0.033520
   1 C :    0.070917
   2 C :    0.022259
   3 O :   -0.631594
   4 O :   -0.630434
   5 O :   -0.633055
   6 H :    0.174003
   7 H :    0.188730
   8 H :    0.174606
   9 H :    0.188120
  10 H :    0.177110
  11 H :    0.287054
  12 H :    0.291995
  13 H :    0.286769

  Mayer bond orders larger than 0.100000
B(  0-C ,  1-C ) :   0.9132 B(  0-C ,  5-O ) :   0.9662 B(  0-C ,  6-H ) :   0.9753
B(  0-C ,  7-H ) :   0.9632 B(  1-C ,  2-C ) :   0.9327 B(  1-C ,  4-O ) :   0.8525
B(  1-C ,  8-H ) :   0.9336 B(  2-C ,  3-O ) :   0.9609 B(  2-C ,  9-H ) :   0.9730
B(  2-C , 10-H ) :   0.9574 B(  3-O , 11-H ) :   0.8663 B(  4-O , 12-H ) :   0.8485
B(  5-O , 13-H ) :   0.8629

Dispersion correction           -0.003005855
FINAL SINGLE POINT ENERGY      -344.744959480945

DIPOLE MOMENT
-------------

Method             : SCF
Type of density    : Electron Density
Multiplicity       :   1
Irrep              :   0
Energy             :  -344.7524916640591641 Eh
Relativity type    :
Basis              : AO
                                X                 Y                 Z
Electronic contribution:      0.768903107       0.292988042       0.684345222
Nuclear contribution   :     -0.378239583      -1.406161341      -0.698711039
                        -----------------------------------------
Total Dipole Moment    :      0.390663524      -1.113173300      -0.014365817
                        -----------------------------------------
Magnitude (a.u.)       :      1.179821665
Magnitude (Debye)      :      2.998868348

Rotational constants in cm-1:             0.188707             0.075747             0.058074
Rotational constants in MHz :          5657.304928          2270.839458          1741.023720

                             ****ORCA TERMINATED NORMALLY****
TOTAL RUN TIME: 0 days 0 hours 0 minutes 23 seconds 499 msec
