                         Program Version 6.0.0  -   RELEASE  -
|  1> ! pbe def2-sv(p) def2/J RI DEFGRID1 loosescf d4 GCP(DFT/SV(P)) printgap
|  2> %output
|  3>     printlevel normal
|  4> end
|  5> * xyz 0 1
|  6> C -2.4994519751 0.5088429962 0.8795358058
|  7> C -1.8755728577 -0.4989729169 -0.0785108491
|  8> C -0.8528796225 0.153853967 -1.0050674512
|  9> O 0.2625091483 0.6784380979 -0.2711386587
| 10> C 1.274781843 -0.1358518518 0.0069448149
| 11> O 1.3153691862 -1.298647689 -0.3394550046
| 12> C 2.3498351632 0.5699236723 0.778146308
| 13> H -3.1887219607 0.0096953589 1.5547502629
| 14> H -1.728212403 0.9981432645 1.4693642681
| 15> H -3.043759776 1.2696257575 0.3259966342
| 16> H -2.6474712002 -0.9549624224 -0.6986406236
| 17> H -1.3785100336 -1.2943650511 0.4814872952
| 18> H -0.480680802 -0.5739874557 -1.7328161034
| 19> H -1.2806365778 1.0177958657 -1.5150641547
| 20> H 1.9278715626 0.9793099076 1.6917189831
| 21> H 2.7294957142 1.3958966939 0.1825935285
| 22> H 3.1495389846 -0.1257954593 1.0088976187
| 23> *
| 24>
| 25>                          ****END OF INPUT****

CARTESIAN COORDINATES (ANGSTROEM)
---------------------------------
  C     -2.499452    0.508843    0.879536
  C     -1.875573   -0.498973   -0.078511
  C     -0.852880    0.153854   -1.005067
  O      0.262509    0.678438   -0.271139
  C      1.274782   -0.135852    0.006945
  O      1.315369   -1.298648   -0.339455
  C      2.349835    0.569924    0.778146
  H     -3.188722    0.009695    1.554750
  H     -1.728212    0.998143    1.469364
  H     -3.043760    1.269626    0.325997
  H     -2.647471   -0.954962   -0.698641
  H     -1.378510   -1.294365    0.481487
  H     -0.480681   -0.573987   -1.732816
  H     -1.280637    1.017796   -1.515064
  H      1.927872    0.979310    1.691719
  H      2.729496    1.395897    0.182594
  H      3.149539   -0.125795    1.008898

 Total Charge           Charge          ....    0
 Multiplicity           Mult            ....    1
 Number of Electrons    NEL             ....   56
 Basis Dimension        Dim             ....  118

ORBITAL ENERGIES
----------------

  NO   OCC          E(Eh)            E(eV)
   0   2.0000     -18.796584      -511.4810
   1   2.0000     -18.731312      -509.7049
   2   2.0000     -10.008368      -272.3415
   3   2.0000      -9.942959      -270.5617
   4   2.0000      -9.893856      -269.2255
   5   2.0000      -9.893381      -269.2126
   6   2.0000      -9.879663      -268.8393
   7   2.0000      -1.004262       -27.3274
   8   2.0000      -0.908414       -24.7192
   9   2.0000      -0.722664       -19.6647
  10   2.0000      -0.678003       -18.4494
  11   2.0000      -0.621984       -16.9251
  12   2.0000      -0.557224       -15.1628
  13   2.0000      -0.487218       -13.2579
  14   2.0000      -0.448126       -12.1941
  15   2.0000      -0.433811       -11.8046
  16   2.0000      -0.418888       -11.3985
  17   2.0000      -0.396676       -10.7941
  18   2.0000      -0.392225       -10.6730
  19   2.0000      -0.365951        -9.9580
  20   2.0000      -0.356911        -9.7120
  21   2.0000      -0.342065        -9.3081
  22   2.0000      -0.330003        -8.9798
  23   2.0000      -0.310977        -8.4621
  24   2.0000      -0.303431        -8.2568
  25   2.0000      -0.286968        -7.8088
  26   2.0000      -0.253886        -6.9086
  27   2.0000      -0.217217        -5.9108
  28   0.0000      -0.019651        -0.5347
  29   0.0000       0.038001         1.0341
  30   0.0000       0.056962         1.5500
  31   0.0000       0.077825         2.1177
  32   0.0000       0.080578         2.1926

MULLIKEN ATOMIC CHARGES
-----------------------
   0 C :   -0.283803
   1 C :   -0.212398
   2 C :    0.017399
   3 O :   -0.246619
   4 C :    0.081016
   5 O :   -0.210350
   6 C :   -0.242582
   7 H :    0.108991
   8 H :    0.108326
   9 H :    0.096879
  10 H :    0.096677
  11 H :    0.110250
  12 H :    0.105731
  13 H :    0.091678
  14 H :    0.126686
  15 H :    0.128873
  16 H :    0.123246
Sum of atomic charges:   -0.0000000

LOEWDIN ATOMIC CHARGES
----------------------
   0 C :   -0.343546
   1 C :   -0.249158
   2 C :   -0.106816
   3 O :   -0.072086
   4 C :    0.030154
   5 O :   -0.170904
   6 C :   -0.358339
   7 H :    0.121409
   8 H :    0.119034
   9 H :    0.117001
  10 H :    0.125122
  11 H :    0.126772
  12 H :    0.118688
  13 H :    0.115017
  14 H :    0.143368
  15 H :    0.145338
  16 H :    0.138946

  Mayer bond orders larger than 0.100000
B(  0-C ,  1-C ) :   1.1412 B(  0-C ,  7-H ) :   0.9544 B(  0-C ,  8-H ) :   0.9543
B(  0-C ,  9-H ) :   0.9556 B(  1-C ,  2-C ) :   1.1306 B(  1-C , 10-H ) :   0.9214
B(  1-C , 11-H ) :   0.9202 B(  2-C ,  3-O ) :   0.9261 B(  2-C , 12-H ) :   0.9093
B(  2-C , 13-H ) :   0.9318 B(  3-O ,  4-C ) :   1.1839 B(  4-C ,  5-O ) :   2.0523
B(  4-C ,  6-C ) :   1.0829 B(  6-C , 14-H ) :   0.9302 B(  6-C , 15-H ) :   0.9275
B(  6-C , 16-H ) :   0.9427

Dispersion correction           -0.012116669
FINAL SINGLE POINT ENERGY      -346.244556285292

DIPOLE MOMENT
-------------

Method             : SCF
Type of density    : Electron Density
Multiplicity       :   1
Irrep              :   0
Energy             :  -346.3094367008806671 Eh
Relativity type    :
Basis              : AO
                                X                 Y                 Z
Electronic contribution:      5.216478812      -1.915344618      -2.473814366
Nuclear contribution   :     -5.550338616       2.543892049       2.588063975
                        -----------------------------------------
Total Dipole Moment    :     -0.333859805       0.628547432       0.114249609
                        -----------------------------------------
Magnitude (a.u.)       :      0.720823984
Magnitude (Debye)      :      1.832188961

Rotational constants in cm-1:             0.168202             0.051221             0.046405
Rotational constants in MHz :          5042.556635          1535.553951          1391.198088

                             ****ORCA TERMINATED NORMALLY****
TOTAL RUN TIME: 0 days 0 hours 0 minutes 8 seconds 967 msec
