                         Program Version 6.0.0  -   RELEASE  -
|  1> ! pbe def2-sv(p) def2/J RI DEFGRID1 loosescf d4 GCP(DFT/SV(P)) printgap
|  2> %output
|  3>     printlevel normal
|  4> end
|  5> * xyz 0 1
|  6> C -3.5970592327 0.0208327718 -0.2433752318
|  7> C -2.239300016 0.3255343526 0.3787691459
|  8> C -1.1321328172 -0.5311452206 -0.2324445172
|  9> C 0.2384333494 -0.2513441085 0.3798956291
| 10> C 1.3179154486 -1.2215759913 -0.1139215634
| 11> C 2.6167845703 -0.4666073412 0.1418613385
| 12> C 2.2808541525 0.9549307304 -0.3091522371
| 13> C 0.7953669284 1.1476348499 0.0433016738
| 14> H -3.5792274657 0.220551718 -1.3124804972
| 15> H -3.8575059989 -1.0249456122 -0.095550234
| 16> H -4.371768443 0.6355699586 0.2083075082
| 17> H -2.004127151 1.3818078896 0.2352542231
| 18> H -2.2833967391 0.1401323512 1.4544548223
| 19> H -1.3765452987 -1.5859098203 -0.0816172784
| 20> H -1.0891833475 -0.3533279485 -1.3099119485
| 21> H 0.1567090377 -0.3506091808 1.4674252125
| 22> H 1.2770124164 -2.1813649726 0.3991662269
| 23> H 1.1952446691 -1.3959537282 -1.1844814385
| 24> H 2.846618213 -0.4790221546 1.208570259
| 25> H 3.4640912367 -0.8858016661 -0.3987275246
| 26> H 2.9162792576 1.6982801645 0.1700582293
| 27> H 2.4234249629 1.0369686012 -1.3873393967
| 28> H 0.6782216437 1.8218513243 0.8910273673
| 29> H 0.257156196 1.5808450302 -0.7996304102
| 30> *
| 31>
| 32>                          ****END OF INPUT****

CARTESIAN COORDINATES (ANGSTROEM)
---------------------------------
  C     -3.597059    0.020833   -0.243375
  C     -2.239300    0.325534    0.378769
  C     -1.132133   -0.531145   -0.232445
  C      0.238433   -0.251344    0.379896
  C      1.317915   -1.221576   -0.113922
  C      2.616785   -0.466607    0.141861
  C      2.280854    0.954931   -0.309152
  C      0.795367    1.147635    0.043302
  H     -3.579227    0.220552   -1.312480
  H     -3.857506   -1.024946   -0.095550
  H     -4.371768    0.635570    0.208308
  H     -2.004127    1.381808    0.235254
  H     -2.283397    0.140132    1.454455
  H     -1.376545   -1.585910   -0.081617
  H     -1.089183   -0.353328   -1.309912
  H      0.156709   -0.350609    1.467425
  H      1.277012   -2.181365    0.399166
  H      1.195245   -1.395954   -1.184481
  H      2.846618   -0.479022    1.208570
  H      3.464091   -0.885802   -0.398728
  H      2.916279    1.698280    0.170058
  H      2.423425    1.036969   -1.387339
  H      0.678222    1.821851    0.891027
  H      0.257156    1.580845   -0.799630

 Total Charge           Charge          ....    0
 Multiplicity           Mult            ....    1
 Number of Electrons    NEL             ....   64
 Basis Dimension        Dim             ....  144

ORBITAL ENERGIES
----------------

  NO   OCC          E(Eh)            E(eV)
   0   2.0000      -9.883462      -268.9427
   1   2.0000      -9.878127      -268.7975
   2   2.0000      -9.876303      -268.7479
   3   2.0000      -9.875009      -268.7127
   4   2.0000      -9.874956      -268.7112
   5   2.0000      -9.873518      -268.6721
   6   2.0000      -9.873432      -268.6697
   7   2.0000      -9.868997      -268.5491
   8   2.0000      -0.758412       -20.6374
   9   2.0000      -0.704611       -19.1734
  10   2.0000      -0.645443       -17.5634
  11   2.0000      -0.629604       -17.1324
  12   2.0000      -0.578645       -15.7457
  13   2.0000      -0.520286       -14.1577
  14   2.0000      -0.500675       -13.6241
  15   2.0000      -0.483841       -13.1660
  16   2.0000      -0.435208       -11.8426
  17   2.0000      -0.418718       -11.3939
  18   2.0000      -0.406100       -11.0506
  19   2.0000      -0.378396       -10.2967
  20   2.0000      -0.366919        -9.9844
  21   2.0000      -0.351421        -9.5626
  22   2.0000      -0.337093        -9.1728
  23   2.0000      -0.330392        -8.9904
  24   2.0000      -0.299934        -8.1616
  25   2.0000      -0.291233        -7.9248
  26   2.0000      -0.289779        -7.8853
  27   2.0000      -0.286795        -7.8041
  28   2.0000      -0.279000        -7.5920
  29   2.0000      -0.268703        -7.3118
  30   2.0000      -0.266127        -7.2417
  31   2.0000      -0.260666        -7.0931
  32   0.0000       0.031253         0.8505
  33   0.0000       0.044614         1.2140
  34   0.0000       0.049759         1.3540
  35   0.0000       0.072355         1.9689
  36   0.0000       0.083518         2.2726

MULLIKEN ATOMIC CHARGES
-----------------------
   0 C :   -0.253448
   1 C :   -0.187345
   2 C :   -0.125870
   3 C :   -0.193870
   4 C :   -0.109581
   5 C :   -0.147056
   6 C :   -0.158343
   7 C :   -0.117140
   8 H :    0.094786
   9 H :    0.095303
  10 H :    0.099845
  11 H :    0.089353
  12 H :    0.079851
  13 H :    0.073107
  14 H :    0.071110
  15 H :    0.059463
  16 H :    0.082943
  17 H :    0.070646
  18 H :    0.076372
  19 H :    0.085428
  20 H :    0.081491
  21 H :    0.076453
  22 H :    0.079965
  23 H :    0.076540
Sum of atomic charges:   -0.0000000

LOEWDIN ATOMIC CHARGES
----------------------
   0 C :   -0.339527
   1 C :   -0.234376
   2 C :   -0.216340
   3 C :   -0.144994
   4 C :   -0.219836
   5 C :   -0.228136
   6 C :   -0.228994
   7 C :   -0.224553
   8 H :    0.116025
   9 H :    0.115790
  10 H :    0.117518
  11 H :    0.114344
  12 H :    0.113336
  13 H :    0.112520
  14 H :    0.110403
  15 H :    0.113546
  16 H :    0.114960
  17 H :    0.113552
  18 H :    0.114531
  19 H :    0.114641
  20 H :    0.115829
  21 H :    0.116078
  22 H :    0.117946
  23 H :    0.115735

  Mayer bond orders larger than 0.100000
B(  0-C ,  1-C ) :   1.1567 B(  0-C ,  8-H ) :   0.9544 B(  0-C ,  9-H ) :   0.9546
B(  0-C , 10-H ) :   0.9530 B(  1-C ,  2-C ) :   1.1419 B(  1-C , 11-H ) :   0.9211
B(  1-C , 12-H ) :   0.9242 B(  2-C ,  3-C ) :   1.0940 B(  2-C , 13-H ) :   0.9161
B(  2-C , 14-H ) :   0.9077 B(  3-C ,  4-C ) :   1.1184 B(  3-C ,  7-C ) :   1.1124
B(  3-C , 15-H ) :   0.8906 B(  4-C ,  5-C ) :   1.1155 B(  4-C , 16-H ) :   0.9207
B(  4-C , 17-H ) :   0.9126 B(  5-C ,  6-C ) :   1.1567 B(  5-C , 18-H ) :   0.9171
B(  5-C , 19-H ) :   0.9283 B(  6-C ,  7-C ) :   1.1621 B(  6-C , 20-H ) :   0.9231
B(  6-C , 21-H ) :   0.9187 B(  7-C , 22-H ) :   0.9158 B(  7-C , 23-H ) :   0.9140

Dispersion correction           -0.020347777
FINAL SINGLE POINT ENERGY      -313.694147893164

DIPOLE MOMENT
-------------

Method             : SCF
Type of density    : Electron Density
Multiplicity       :   1
Irrep              :   0
Energy             :  -313.7754311389526265 Eh
Relativity type    :
Basis              : AO
                                X                 Y                 Z
Electronic contribution:      3.150105134      -0.237289478       0.540004280
Nuclear contribution   :     -3.140028702       0.243051732      -0.502362740
                        -----------------------------------------
Total Dipole Moment    :      0.010076432       0.005762254       0.037641540
                        -----------------------------------------
Magnitude (a.u.)       :      0.039390654
Magnitude (Debye)      :      0.100123085

Rotational constants in cm-1:             0.172881             0.032185             0.029090
Rotational constants in MHz :          5182.844035           964.869107           872.082750

                             ****ORCA TERMINATED NORMALLY****
TOTAL RUN TIME: 0 days 0 hours 0 minutes 10 seconds 950 msec
