                         Program Version 6.0.0  -   RELEASE  -
|  1> ! pbe def2-sv(p) def2/J RI DEFGRID1 loosescf d4 GCP(DFT/SV(P)) printgap
|  2> %output
|  3>     printlevel normal
|  4> end
|  5> * xyz 0 1
|  6> C -2.195593869 -0.7761502873 1.3060517029
|  7> C -2.2904798199 -0.1155621929 -0.0666759355
|  8> C -2.2593742134 1.4042158192 0.0621070903
|  9> C -1.1827939467 -0.6157303787 -1.018888126
| 10> C 0.193028953 -0.2934491987 -0.5320673168
| 11> C 0.9023650041 -1.1460188718 0.3185502183
| 12> N 2.105111971 -0.8460275475 0.78047059
| 13> C 2.6289078927 0.3109925525 0.3929132456
| 14> C 1.9469327424 1.1534026943 -0.4723843485
| 15> N 0.7406759662 0.8527715456 -0.9298839288
| 16> H -2.2159833465 -1.8596685844 1.2163936742
| 17> H -3.0340200654 -0.4689143068 1.9263173429
| 18> H -1.2762874874 -0.4870286999 1.8117783904
| 19> H -3.2449423607 -0.4036373027 -0.5201129797
| 20> H -3.079702164 1.7459948463 0.6885839728
| 21> H -1.3246745162 1.7329408774 0.5112623796
| 22> H -2.3488960903 1.8733919665 -0.9138898239
| 23> H -1.3218000521 -0.1380335071 -1.9888523159
| 24> H -1.2784356462 -1.6965339918 -1.1323183285
| 25> H 0.4976314366 -2.0974027445 0.6338802428
| 26> H 3.6081744806 0.5495845646 0.7808121306
| 27> H 2.3676968605 2.0886743811 -0.8136128181
| 28> *
| 29>
| 30>                          ****END OF INPUT****

CARTESIAN COORDINATES (ANGSTROEM)
---------------------------------
  C     -2.195594   -0.776150    1.306052
  C     -2.290480   -0.115562   -0.066676
  C     -2.259374    1.404216    0.062107
  C     -1.182794   -0.615730   -1.018888
  C      0.193029   -0.293449   -0.532067
  C      0.902365   -1.146019    0.318550
  N      2.105112   -0.846028    0.780471
  C      2.628908    0.310993    0.392913
  C      1.946933    1.153403   -0.472384
  N      0.740676    0.852772   -0.929884
  H     -2.215983   -1.859669    1.216394
  H     -3.034020   -0.468914    1.926317
  H     -1.276287   -0.487029    1.811778
  H     -3.244942   -0.403637   -0.520113
  H     -3.079702    1.745995    0.688584
  H     -1.324675    1.732941    0.511262
  H     -2.348896    1.873392   -0.913890
  H     -1.321800   -0.138034   -1.988852
  H     -1.278436   -1.696534   -1.132318
  H      0.497631   -2.097403    0.633880
  H      3.608174    0.549585    0.780812
  H      2.367697    2.088674   -0.813613

 Total Charge           Charge          ....    0
 Multiplicity           Mult            ....    1
 Number of Electrons    NEL             ....   74
 Basis Dimension        Dim             ....  164

ORBITAL ENERGIES
----------------

  NO   OCC          E(Eh)            E(eV)
   0   2.0000     -13.999888      -380.9563
   1   2.0000     -13.998647      -380.9226
   2   2.0000      -9.942321      -270.5443
   3   2.0000      -9.931877      -270.2601
   4   2.0000      -9.931090      -270.2387
   5   2.0000      -9.929773      -270.2028
   6   2.0000      -9.904564      -269.5169
   7   2.0000      -9.893019      -269.2027
   8   2.0000      -9.878160      -268.7984
   9   2.0000      -9.872165      -268.6353
  10   2.0000      -0.898106       -24.4387
  11   2.0000      -0.823760       -22.4157
  12   2.0000      -0.745172       -20.2772
  13   2.0000      -0.700090       -19.0504
  14   2.0000      -0.635312       -17.2877
  15   2.0000      -0.615053       -16.7365
  16   2.0000      -0.592129       -16.1126
  17   2.0000      -0.569104       -15.4861
  18   2.0000      -0.502648       -13.6777
  19   2.0000      -0.475824       -12.9478
  20   2.0000      -0.461507       -12.5583
  21   2.0000      -0.434658       -11.8277
  22   2.0000      -0.419326       -11.4104
  23   2.0000      -0.394893       -10.7456
  24   2.0000      -0.388560       -10.5733
  25   2.0000      -0.378782       -10.3072
  26   2.0000      -0.373521       -10.1640
  27   2.0000      -0.343681        -9.3520
  28   2.0000      -0.340611        -9.2685
  29   2.0000      -0.325362        -8.8536
  30   2.0000      -0.307640        -8.3713
  31   2.0000      -0.293632        -7.9901
  32   2.0000      -0.291349        -7.9280
  33   2.0000      -0.288961        -7.8630
  34   2.0000      -0.249799        -6.7974
  35   2.0000      -0.243745        -6.6326
  36   2.0000      -0.197543        -5.3754
  37   0.0000      -0.077778        -2.1164
  38   0.0000      -0.056647        -1.5414
  39   0.0000       0.032388         0.8813
  40   0.0000       0.066474         1.8089
  41   0.0000       0.067576         1.8388

MULLIKEN ATOMIC CHARGES
-----------------------
   0 C :   -0.257352
   1 C :   -0.206556
   2 C :   -0.237797
   3 C :   -0.014206
   4 C :   -0.101073
   5 C :   -0.073968
   6 N :   -0.037498
   7 C :   -0.060401
   8 C :   -0.048853
   9 N :   -0.050375
  10 H :    0.097385
  11 H :    0.103068
  12 H :    0.116415
  13 H :    0.079789
  14 H :    0.097823
  15 H :    0.108439
  16 H :    0.101516
  17 H :    0.088004
  18 H :    0.082891
  19 H :    0.061715
  20 H :    0.076214
  21 H :    0.074819
Sum of atomic charges:    0.0000000

LOEWDIN ATOMIC CHARGES
----------------------
   0 C :   -0.334053
   1 C :   -0.147266
   2 C :   -0.330257
   3 C :   -0.211064
   4 C :   -0.022177
   5 C :   -0.095451
   6 N :   -0.051174
   7 C :   -0.103675
   8 C :   -0.096857
   9 N :   -0.051902
  10 H :    0.115980
  11 H :    0.121450
  12 H :    0.120051
  13 H :    0.117469
  14 H :    0.117451
  15 H :    0.118981
  16 H :    0.120657
  17 H :    0.130829
  18 H :    0.124178
  19 H :    0.117765
  20 H :    0.119607
  21 H :    0.119456

  Mayer bond orders larger than 0.100000
B(  0-C ,  1-C ) :   1.1189 B(  0-C , 10-H ) :   0.9481 B(  0-C , 11-H ) :   0.9470
B(  0-C , 12-H ) :   0.9368 B(  1-C ,  2-C ) :   1.1179 B(  1-C ,  3-C ) :   1.0775
B(  1-C , 13-H ) :   0.9016 B(  2-C , 14-H ) :   0.9486 B(  2-C , 15-H ) :   0.9399
B(  2-C , 16-H ) :   0.9491 B(  3-C ,  4-C ) :   1.0603 B(  3-C , 17-H ) :   0.8888
B(  3-C , 18-H ) :   0.8999 B(  4-C ,  5-C ) :   1.3352 B(  4-C ,  7-C ) :   0.1020
B(  4-C ,  9-N ) :   1.5249 B(  5-C ,  6-N ) :   1.5670 B(  5-C , 19-H ) :   0.9441
B(  6-N ,  7-C ) :   1.5342 B(  7-C ,  8-C ) :   1.3593 B(  7-C , 20-H ) :   0.9476
B(  8-C ,  9-N ) :   1.5255 B(  8-C , 21-H ) :   0.9459

Dispersion correction           -0.023132944
FINAL SINGLE POINT ENERGY      -420.625814226274

DIPOLE MOMENT
-------------

Method             : SCF
Type of density    : Electron Density
Multiplicity       :   1
Irrep              :   0
Energy             :  -420.6932731982907399 Eh
Relativity type    :
Basis              : AO
                                X                 Y                 Z
Electronic contribution:     11.564238294      -0.752648911      -2.108124303
Nuclear contribution   :    -11.853389215       0.787504816       2.063377766
                        -----------------------------------------
Total Dipole Moment    :     -0.289150921       0.034855905      -0.044746537
                        -----------------------------------------
Magnitude (a.u.)       :      0.294661571
Magnitude (Debye)      :      0.748970193

Rotational constants in cm-1:             0.086199             0.031689             0.027599
Rotational constants in MHz :          2584.173387           950.014801           827.383081

                             ****ORCA TERMINATED NORMALLY****
TOTAL RUN TIME: 0 days 0 hours 0 minutes 11 seconds 552 msec
