                         Program Version 6.0.0  -   RELEASE  -
|  1> ! r2scan-3c def2/J RI DEFGRID2 scfconv6 printgap
|  2> %output
|  3>     printlevel normal
|  4> end
|  5> * xyz 0 1
|  6> C -3.7431612666 -0.9811526639 -0.7636282133
|  7> C -3.0322785183 -0.2201804725 0.3431906345
|  8> O -1.6172022507 -0.4467644657 0.2471766885
|  9> C -0.7954280688 0.5964502826 0.1951342021
| 10> O -1.1747572563 1.7542089327 0.2491273784
| 11> C 0.6238066621 0.2027017112 0.0703402533
| 12> C 1.5921803147 1.2054706891 0.0496191043
| 13> C 2.9287469402 0.8748105441 -0.0650334
| 14> C 3.3059494584 -0.4560371385 -0.1607574525
| 15> C 2.345929567 -1.4566316397 -0.1421304234
| 16> C 1.0068564403 -1.1341047038 -0.0265266945
| 17> H -3.4258442865 -0.6159548794 -1.7368844339
| 18> H -3.5132750967 -2.0403581823 -0.6937290115
| 19> H -4.8142346723 -0.8395684508 -0.6629432139
| 20> H -3.3395614608 -0.5826269901 1.327881713
| 21> H -3.2181492478 0.8563283329 0.2764096243
| 22> H 1.2705297944 2.2333723907 0.1255175347
| 23> H 3.6755183961 1.6531453747 -0.0798262471
| 24> H 4.3499133998 -0.7136283789 -0.2505091793
| 25> H 2.6430986578 -2.4909043869 -0.2178389475
| 26> H 0.2522505434 -1.9038874781 -0.0104567455
| 27> *
| 28>
| 29>                          ****END OF INPUT****

CARTESIAN COORDINATES (ANGSTROEM)
---------------------------------
  C     -3.743161   -0.981153   -0.763628
  C     -3.032279   -0.220180    0.343191
  O     -1.617202   -0.446764    0.247177
  C     -0.795428    0.596450    0.195134
  O     -1.174757    1.754209    0.249127
  C      0.623807    0.202702    0.070340
  C      1.592180    1.205471    0.049619
  C      2.928747    0.874811   -0.065033
  C      3.305949   -0.456037   -0.160757
  C      2.345930   -1.456632   -0.142130
  C      1.006856   -1.134105   -0.026527
  H     -3.425844   -0.615955   -1.736884
  H     -3.513275   -2.040358   -0.693729
  H     -4.814235   -0.839568   -0.662943
  H     -3.339561   -0.582627    1.327882
  H     -3.218149    0.856328    0.276410
  H      1.270530    2.233372    0.125518
  H      3.675518    1.653145   -0.079826
  H      4.349913   -0.713628   -0.250509
  H      2.643099   -2.490904   -0.217839
  H      0.252251   -1.903887   -0.010457

 Total Charge           Charge          ....    0
 Multiplicity           Mult            ....    1
 Number of Electrons    NEL             ....   80
 Basis Dimension        Dim             ....  269

ORBITAL ENERGIES
----------------

  NO   OCC          E(Eh)            E(eV)
   0   2.0000     -18.998496      -516.9754
   1   2.0000     -18.928227      -515.0632
   2   2.0000     -10.156413      -276.3701
   3   2.0000     -10.091249      -274.5968
   4   2.0000     -10.054016      -273.5837
   5   2.0000     -10.047799      -273.4145
   6   2.0000     -10.046890      -273.3898
   7   2.0000     -10.044923      -273.3363
   8   2.0000     -10.044585      -273.3271
   9   2.0000     -10.044011      -273.3114
  10   2.0000     -10.032331      -272.9936
  11   2.0000      -1.072304       -29.1789
  12   2.0000      -0.975446       -26.5432
  13   2.0000      -0.838567       -22.8186
  14   2.0000      -0.758336       -20.6354
  15   2.0000      -0.728874       -19.8337
  16   2.0000      -0.725799       -19.7500
  17   2.0000      -0.640363       -17.4252
  18   2.0000      -0.592043       -16.1103
  19   2.0000      -0.579899       -15.7799
  20   2.0000      -0.534080       -14.5330
  21   2.0000      -0.512313       -13.9407
  22   2.0000      -0.463716       -12.6183
  23   2.0000      -0.457721       -12.4552
  24   2.0000      -0.437639       -11.9088
  25   2.0000      -0.422306       -11.4915
  26   2.0000      -0.414237       -11.2720
  27   2.0000      -0.404050       -10.9948
  28   2.0000      -0.399879       -10.8813
  29   2.0000      -0.376581       -10.2473
  30   2.0000      -0.370437       -10.0801
  31   2.0000      -0.352629        -9.5955
  32   2.0000      -0.341159        -9.2834
  33   2.0000      -0.330013        -8.9801
  34   2.0000      -0.321944        -8.7605
  35   2.0000      -0.306513        -8.3406
  36   2.0000      -0.271757        -7.3949
  37   2.0000      -0.248122        -6.7517
  38   2.0000      -0.246350        -6.7035
  39   2.0000      -0.240687        -6.5494
  40   0.0000      -0.075211        -2.0466
  41   0.0000      -0.039916        -1.0862
  42   0.0000       0.027612         0.7514
  43   0.0000       0.070410         1.9159
  44   0.0000       0.092637         2.5208

MULLIKEN ATOMIC CHARGES
-----------------------
   0 C :   -0.443964
   1 C :   -0.165468
   2 O :   -0.152634
   3 C :    0.378574
   4 O :   -0.444582
   5 C :    0.090850
   6 C :   -0.223635
   7 C :   -0.157951
   8 C :   -0.113912
   9 C :   -0.152225
  10 C :   -0.201871
  11 H :    0.154281
  12 H :    0.152036
  13 H :    0.147404
  14 H :    0.143392
  15 H :    0.191121
  16 H :    0.182423
  17 H :    0.147979
  18 H :    0.148640
  19 H :    0.147407
  20 H :    0.172135
Sum of atomic charges:   -0.0000000

LOEWDIN ATOMIC CHARGES
----------------------
   0 C :   -0.386784
   1 C :    0.033733
   2 O :   -0.603033
   3 C :    0.391608
   4 O :   -0.449355
   5 C :   -0.032265
   6 C :   -0.105564
   7 C :   -0.160117
   8 C :   -0.145085
   9 C :   -0.162440
  10 C :   -0.114122
  11 H :    0.159238
  12 H :    0.157125
  13 H :    0.159500
  14 H :    0.175585
  15 H :    0.197146
  16 H :    0.190520
  17 H :    0.169591
  18 H :    0.168303
  19 H :    0.168724
  20 H :    0.187692

  Mayer bond orders larger than 0.100000
B(  0-C ,  1-C ) :   0.9499 B(  0-C , 11-H ) :   0.9721 B(  0-C , 12-H ) :   0.9724
B(  0-C , 13-H ) :   0.9666 B(  1-C ,  2-O ) :   0.7652 B(  1-C , 14-H ) :   0.9520
B(  1-C , 15-H ) :   0.9718 B(  2-O ,  3-C ) :   1.1666 B(  2-O ,  5-C ) :  -0.1206
B(  3-C ,  4-O ) :   1.8744 B(  3-C ,  5-C ) :   1.0223 B(  5-C ,  6-C ) :   1.4764
B(  5-C , 10-C ) :   1.3834 B(  6-C ,  7-C ) :   1.3734 B(  6-C , 16-H ) :   0.9409
B(  7-C ,  8-C ) :   1.3993 B(  7-C , 17-H ) :   0.9558 B(  8-C ,  9-C ) :   1.4063
B(  8-C , 18-H ) :   0.9458 B(  9-C , 10-C ) :   1.3815 B(  9-C , 19-H ) :   0.9523
B( 10-C , 20-H ) :   0.9508

Dispersion correction           -0.006869934
FINAL SINGLE POINT ENERGY      -499.328852752724

DIPOLE MOMENT
-------------

Method             : SCF
Type of density    : Electron Density
Multiplicity       :   1
Irrep              :   0
Energy             :  -499.3315380808610371 Eh
Relativity type    :
Basis              : AO
                                X                 Y                 Z
Electronic contribution:      5.853769796       3.303014500       1.703247572
Nuclear contribution   :     -5.782731607      -4.149936723      -1.796166077
                        -----------------------------------------
Total Dipole Moment    :      0.071038189      -0.846922223      -0.092918505
                        -----------------------------------------
Magnitude (a.u.)       :      0.854960540
Magnitude (Debye)      :      2.173136990

Rotational constants in cm-1:             0.093169             0.020471             0.017273
Rotational constants in MHz :          2793.150288           613.701959           517.845009

                             ****ORCA TERMINATED NORMALLY****
TOTAL RUN TIME: 0 days 0 hours 0 minutes 40 seconds 603 msec
