                         Program Version 6.0.0  -   RELEASE  -
|  1> ! r2scan-3c def2/J RI DEFGRID2 scfconv6 printgap
|  2> %output
|  3>     printlevel normal
|  4> end
|  5> %cpcm
|  6>     smd true
|  7>     smdsolvent "water"
|  8> end
|  9> * xyz 0 1
| 10> C -3.7431612666 -0.9811526639 -0.7636282133
| 11> C -3.0322785183 -0.2201804725 0.3431906345
| 12> O -1.6172022507 -0.4467644657 0.2471766885
| 13> C -0.7954280688 0.5964502826 0.1951342021
| 14> O -1.1747572563 1.7542089327 0.2491273784
| 15> C 0.6238066621 0.2027017112 0.0703402533
| 16> C 1.5921803147 1.2054706891 0.0496191043
| 17> C 2.9287469402 0.8748105441 -0.0650334
| 18> C 3.3059494584 -0.4560371385 -0.1607574525
| 19> C 2.345929567 -1.4566316397 -0.1421304234
| 20> C 1.0068564403 -1.1341047038 -0.0265266945
| 21> H -3.4258442865 -0.6159548794 -1.7368844339
| 22> H -3.5132750967 -2.0403581823 -0.6937290115
| 23> H -4.8142346723 -0.8395684508 -0.6629432139
| 24> H -3.3395614608 -0.5826269901 1.327881713
| 25> H -3.2181492478 0.8563283329 0.2764096243
| 26> H 1.2705297944 2.2333723907 0.1255175347
| 27> H 3.6755183961 1.6531453747 -0.0798262471
| 28> H 4.3499133998 -0.7136283789 -0.2505091793
| 29> H 2.6430986578 -2.4909043869 -0.2178389475
| 30> H 0.2522505434 -1.9038874781 -0.0104567455
| 31> *
| 32>
| 33>                          ****END OF INPUT****

CARTESIAN COORDINATES (ANGSTROEM)
---------------------------------
  C     -3.743161   -0.981153   -0.763628
  C     -3.032279   -0.220180    0.343191
  O     -1.617202   -0.446764    0.247177
  C     -0.795428    0.596450    0.195134
  O     -1.174757    1.754209    0.249127
  C      0.623807    0.202702    0.070340
  C      1.592180    1.205471    0.049619
  C      2.928747    0.874811   -0.065033
  C      3.305949   -0.456037   -0.160757
  C      2.345930   -1.456632   -0.142130
  C      1.006856   -1.134105   -0.026527
  H     -3.425844   -0.615955   -1.736884
  H     -3.513275   -2.040358   -0.693729
  H     -4.814235   -0.839568   -0.662943
  H     -3.339561   -0.582627    1.327882
  H     -3.218149    0.856328    0.276410
  H      1.270530    2.233372    0.125518
  H      3.675518    1.653145   -0.079826
  H      4.349913   -0.713628   -0.250509
  H      2.643099   -2.490904   -0.217839
  H      0.252251   -1.903887   -0.010457

 Total Charge           Charge          ....    0
 Multiplicity           Mult            ....    1
 Number of Electrons    NEL             ....   80
 Basis Dimension        Dim             ....  269

ORBITAL ENERGIES
----------------

  NO   OCC          E(Eh)            E(eV)
   0   2.0000     -19.003437      -517.1098
   1   2.0000     -18.943801      -515.4870
   2   2.0000     -10.168964      -276.7116
   3   2.0000     -10.083951      -274.3982
   4   2.0000     -10.055664      -273.6285
   5   2.0000     -10.045896      -273.3627
   6   2.0000     -10.045410      -273.3495
   7   2.0000     -10.044579      -273.3269
   8   2.0000     -10.041314      -273.2380
   9   2.0000     -10.041185      -273.2345
  10   2.0000     -10.018794      -272.6253
  11   2.0000      -1.079888       -29.3852
  12   2.0000      -0.989387       -26.9226
  13   2.0000      -0.839025       -22.8310
  14   2.0000      -0.756009       -20.5720
  15   2.0000      -0.726751       -19.7759
  16   2.0000      -0.722110       -19.6496
  17   2.0000      -0.636667       -17.3246
  18   2.0000      -0.589955       -16.0535
  19   2.0000      -0.576719       -15.6933
  20   2.0000      -0.531595       -14.4654
  21   2.0000      -0.512278       -13.9398
  22   2.0000      -0.464561       -12.6414
  23   2.0000      -0.459400       -12.5009
  24   2.0000      -0.442327       -12.0363
  25   2.0000      -0.421658       -11.4739
  26   2.0000      -0.418092       -11.3769
  27   2.0000      -0.401915       -10.9367
  28   2.0000      -0.396389       -10.7863
  29   2.0000      -0.370065       -10.0700
  30   2.0000      -0.365956        -9.9582
  31   2.0000      -0.350138        -9.5277
  32   2.0000      -0.338900        -9.2219
  33   2.0000      -0.327726        -8.9179
  34   2.0000      -0.317771        -8.6470
  35   2.0000      -0.304892        -8.2965
  36   2.0000      -0.278223        -7.5708
  37   2.0000      -0.257742        -7.0135
  38   2.0000      -0.249868        -6.7993
  39   2.0000      -0.248209        -6.7541
  40   0.0000      -0.080275        -2.1844
  41   0.0000      -0.040343        -1.0978
  42   0.0000       0.022306         0.6070
  43   0.0000       0.072193         1.9645
  44   0.0000       0.100849         2.7442

MULLIKEN ATOMIC CHARGES
-----------------------
   0 C :   -0.485429
   1 C :   -0.151309
   2 O :   -0.163726
   3 C :    0.416046
   4 O :   -0.519646
   5 C :    0.093029
   6 C :   -0.245344
   7 C :   -0.203127
   8 C :   -0.131623
   9 C :   -0.191176
  10 C :   -0.214566
  11 H :    0.164410
  12 H :    0.166097
  13 H :    0.168984
  14 H :    0.169914
  15 H :    0.184675
  16 H :    0.195908
  17 H :    0.182638
  18 H :    0.185324
  19 H :    0.182986
  20 H :    0.195935
Sum of atomic charges:   -0.0000000

LOEWDIN ATOMIC CHARGES
----------------------
   0 C :   -0.389717
   1 C :    0.039637
   2 O :   -0.600768
   3 C :    0.397227
   4 O :   -0.507487
   5 C :   -0.044423
   6 C :   -0.116975
   7 C :   -0.162342
   8 C :   -0.142983
   9 C :   -0.163132
  10 C :   -0.116067
  11 H :    0.161367
  12 H :    0.161536
  13 H :    0.167984
  14 H :    0.186633
  15 H :    0.195592
  16 H :    0.193100
  17 H :    0.181921
  18 H :    0.181418
  19 H :    0.181675
  20 H :    0.195805

  Mayer bond orders larger than 0.100000
B(  0-C ,  1-C ) :   0.9443 B(  0-C , 11-H ) :   0.9698 B(  0-C , 12-H ) :   0.9695
B(  0-C , 13-H ) :   0.9605 B(  1-C ,  2-O ) :   0.7543 B(  1-C , 14-H ) :   0.9429
B(  1-C , 15-H ) :   0.9672 B(  2-O ,  3-C ) :   1.1856 B(  2-O ,  5-C ) :  -0.1070
B(  3-C ,  4-O ) :   1.8179 B(  3-C ,  5-C ) :   1.0244 B(  5-C ,  6-C ) :   1.4033
B(  5-C , 10-C ) :   1.3359 B(  6-C ,  7-C ) :   1.3710 B(  6-C , 16-H ) :   0.9504
B(  7-C ,  8-C ) :   1.3742 B(  7-C , 17-H ) :   0.9610 B(  8-C ,  9-C ) :   1.3757
B(  8-C , 18-H ) :   0.9484 B(  9-C , 10-C ) :   1.3690 B(  9-C , 19-H ) :   0.9589
B( 10-C , 20-H ) :   0.9594

Dispersion correction           -0.006869934
FINAL SINGLE POINT ENERGY      -499.334223914959

DIPOLE MOMENT
-------------

Method             : SCF
Type of density    : Electron Density
Multiplicity       :   1
Irrep              :   0
Energy             :  -499.3369092430961587 Eh
Relativity type    :
Basis              : AO
                                X                 Y                 Z
Electronic contribution:      6.004402421       2.880746998       1.679705965
Nuclear contribution   :     -5.782731607      -4.149936723      -1.796166077
                        -----------------------------------------
Total Dipole Moment    :      0.221670814      -1.269189725      -0.116460112
                        -----------------------------------------
Magnitude (a.u.)       :      1.293655080
Magnitude (Debye)      :      3.288209895

Rotational constants in cm-1:             0.093169             0.020471             0.017273
Rotational constants in MHz :          2793.150288           613.701959           517.845009

                             ****ORCA TERMINATED NORMALLY****
TOTAL RUN TIME: 0 days 0 hours 0 minutes 48 seconds 483 msec
