                         Program Version 6.0.0  -   RELEASE  -
|  1> ! pbe def2-sv(p) def2/J RI DEFGRID1 loosescf d4 GCP(DFT/SV(P)) printgap
|  2> %output
|  3>     printlevel normal
|  4> end
|  5> * xyz 0 1
|  6> C -2.9081045806 0.8443057692 -0.430417006
|  7> C -2.3827757293 -0.1974740078 0.5514675942
|  8> C -1.16221404 -0.9685699617 0.0332123259
|  9> C 0.1856850213 -0.3434202534 0.3885684914
| 10> C 1.3638738014 -1.2250074825 -0.038093459
| 11> C 2.5832750968 -0.2981581324 0.0068889642
| 12> C 2.0286538858 1.1312676758 -0.1489406802
| 13> C 0.5111172957 0.9796290473 -0.306474912
| 14> H -2.1570089663 1.5977407528 -0.6462814947
| 15> H -3.1957473393 0.3694764435 -1.3658827576
| 16> H -3.7830631917 1.3416417506 -0.0176574791
| 17> H -2.1302181738 0.2861896015 1.4971851184
| 18> H -3.1874156324 -0.9079524227 0.7542441453
| 19> H -1.1754957917 -1.9741312163 0.4614680345
| 20> H -1.2367089158 -1.0757355606 -1.051359427
| 21> H 0.2310935607 -0.1939201013 1.4729148773
| 22> H 1.4838445709 -2.0967750383 0.603678536
| 23> H 1.1939886802 -1.5753639897 -1.0577736821
| 24> H 3.1002641726 -0.4003714987 0.9610904777
| 25> H 3.2942879784 -0.5426993128 -0.7810350006
| 26> H 2.2547961797 1.7205950306 0.740081173
| 27> H 2.4661396927 1.644378183 -1.004254097
| 28> H -0.0217408201 1.8243359086 0.1264522221
| 29> H 0.2471058027 0.9052820608 -1.3627328802
| 30> *
| 31>
| 32>                          ****END OF INPUT****

CARTESIAN COORDINATES (ANGSTROEM)
---------------------------------
  C     -2.908105    0.844306   -0.430417
  C     -2.382776   -0.197474    0.551468
  C     -1.162214   -0.968570    0.033212
  C      0.185685   -0.343420    0.388568
  C      1.363874   -1.225007   -0.038093
  C      2.583275   -0.298158    0.006889
  C      2.028654    1.131268   -0.148941
  C      0.511117    0.979629   -0.306475
  H     -2.157009    1.597741   -0.646281
  H     -3.195747    0.369476   -1.365883
  H     -3.783063    1.341642   -0.017657
  H     -2.130218    0.286190    1.497185
  H     -3.187416   -0.907952    0.754244
  H     -1.175496   -1.974131    0.461468
  H     -1.236709   -1.075736   -1.051359
  H      0.231094   -0.193920    1.472915
  H      1.483845   -2.096775    0.603679
  H      1.193989   -1.575364   -1.057774
  H      3.100264   -0.400371    0.961090
  H      3.294288   -0.542699   -0.781035
  H      2.254796    1.720595    0.740081
  H      2.466140    1.644378   -1.004254
  H     -0.021741    1.824336    0.126452
  H      0.247106    0.905282   -1.362733

 Total Charge           Charge          ....    0
 Multiplicity           Mult            ....    1
 Number of Electrons    NEL             ....   64
 Basis Dimension        Dim             ....  144

ORBITAL ENERGIES
----------------

  NO   OCC          E(Eh)            E(eV)
   0   2.0000      -9.884322      -268.9661
   1   2.0000      -9.878394      -268.8048
   2   2.0000      -9.876456      -268.7520
   3   2.0000      -9.874696      -268.7041
   4   2.0000      -9.874375      -268.6954
   5   2.0000      -9.874243      -268.6918
   6   2.0000      -9.873432      -268.6697
   7   2.0000      -9.867950      -268.5206
   8   2.0000      -0.758381       -20.6366
   9   2.0000      -0.702446       -19.1145
  10   2.0000      -0.644131       -17.5277
  11   2.0000      -0.629407       -17.1270
  12   2.0000      -0.584366       -15.9014
  13   2.0000      -0.515763       -14.0346
  14   2.0000      -0.495836       -13.4924
  15   2.0000      -0.493088       -13.4176
  16   2.0000      -0.432457       -11.7678
  17   2.0000      -0.419002       -11.4016
  18   2.0000      -0.394219       -10.7272
  19   2.0000      -0.376716       -10.2510
  20   2.0000      -0.374796       -10.1987
  21   2.0000      -0.364650        -9.9226
  22   2.0000      -0.335287        -9.1236
  23   2.0000      -0.319772        -8.7014
  24   2.0000      -0.303776        -8.2662
  25   2.0000      -0.292241        -7.9523
  26   2.0000      -0.289555        -7.8792
  27   2.0000      -0.288427        -7.8485
  28   2.0000      -0.274881        -7.4799
  29   2.0000      -0.270010        -7.3474
  30   2.0000      -0.262731        -7.1493
  31   2.0000      -0.260334        -7.0840
  32   0.0000       0.031195         0.8489
  33   0.0000       0.044435         1.2091
  34   0.0000       0.051118         1.3910
  35   0.0000       0.068779         1.8716
  36   0.0000       0.082682         2.2499

MULLIKEN ATOMIC CHARGES
-----------------------
   0 C :   -0.296401
   1 C :   -0.152143
   2 C :   -0.094565
   3 C :   -0.234273
   4 C :   -0.112702
   5 C :   -0.144443
   6 C :   -0.132789
   7 C :   -0.144307
   8 H :    0.112371
   9 H :    0.097038
  10 H :    0.099680
  11 H :    0.080102
  12 H :    0.079775
  13 H :    0.074674
  14 H :    0.069905
  15 H :    0.066620
  16 H :    0.080248
  17 H :    0.070543
  18 H :    0.076104
  19 H :    0.080491
  20 H :    0.074797
  21 H :    0.080544
  22 H :    0.095038
  23 H :    0.073696
Sum of atomic charges:   -0.0000000

LOEWDIN ATOMIC CHARGES
----------------------
   0 C :   -0.343579
   1 C :   -0.233036
   2 C :   -0.217044
   3 C :   -0.146309
   4 C :   -0.220040
   5 C :   -0.231461
   6 C :   -0.229981
   7 C :   -0.224219
   8 H :    0.116931
   9 H :    0.115774
  10 H :    0.117560
  11 H :    0.113658
  12 H :    0.114999
  13 H :    0.115467
  14 H :    0.112267
  15 H :    0.112752
  16 H :    0.115215
  17 H :    0.113869
  18 H :    0.116799
  19 H :    0.116799
  20 H :    0.116589
  21 H :    0.116844
  22 H :    0.116320
  23 H :    0.113827

  Mayer bond orders larger than 0.100000
B(  0-C ,  1-C ) :   1.1653 B(  0-C ,  8-H ) :   0.9453 B(  0-C ,  9-H ) :   0.9530
B(  0-C , 10-H ) :   0.9510 B(  1-C ,  2-C ) :   1.1030 B(  1-C , 11-H ) :   0.9253
B(  1-C , 12-H ) :   0.9274 B(  2-C ,  3-C ) :   1.1178 B(  2-C , 13-H ) :   0.9169
B(  2-C , 14-H ) :   0.9106 B(  3-C ,  4-C ) :   1.0909 B(  3-C ,  7-C ) :   1.0898
B(  3-C , 15-H ) :   0.8955 B(  4-C ,  5-C ) :   1.1742 B(  4-C , 16-H ) :   0.9181
B(  4-C , 17-H ) :   0.9112 B(  5-C ,  6-C ) :   1.1585 B(  5-C , 18-H ) :   0.9173
B(  5-C , 19-H ) :   0.9250 B(  6-C ,  7-C ) :   1.1667 B(  6-C , 20-H ) :   0.9171
B(  6-C , 21-H ) :   0.9246 B(  7-C , 22-H ) :   0.9124 B(  7-C , 23-H ) :   0.9101

Dispersion correction           -0.020855665
FINAL SINGLE POINT ENERGY      -313.691438455391

DIPOLE MOMENT
-------------

Method             : SCF
Type of density    : Electron Density
Multiplicity       :   1
Irrep              :   0
Energy             :  -313.7724366255360451 Eh
Relativity type    :
Basis              : AO
                                X                 Y                 Z
Electronic contribution:      2.449988257      -0.876629981       0.669272158
Nuclear contribution   :     -2.454120237       0.865634209      -0.628439990
                        -----------------------------------------
Total Dipole Moment    :     -0.004131980      -0.010995772       0.040832168
                        -----------------------------------------
Magnitude (a.u.)       :      0.042488189
Magnitude (Debye)      :      0.107996394

Rotational constants in cm-1:             0.141177             0.037836             0.032216
Rotational constants in MHz :          4232.374201          1134.300080           965.801597

                             ****ORCA TERMINATED NORMALLY****
TOTAL RUN TIME: 0 days 0 hours 0 minutes 10 seconds 764 msec
