                         Program Version 6.0.0  -   RELEASE  -
|  1> ! r2scan-3c def2/J RI DEFGRID2 scfconv6 printgap
|  2> %output
|  3>     printlevel normal
|  4> end
|  5> * xyz 0 1
|  6> C -2.7694468453 0.2413111082 0.4539442655
|  7> C -1.6764387072 0.5484553326 -0.5728821341
|  8> C -0.4098571364 -0.1735509212 -0.190254753
|  9> O -0.2484953202 -1.3737458496 -0.2686831351
| 10> O 0.50467375 0.6629781028 0.2827222779
| 11> C 1.7686660641 0.1291541051 0.7123394493
| 12> C 2.7393970702 0.0133580825 -0.4528949162
| 13> H -2.9236153376 -0.832783135 0.5229508917
| 14> H -2.4861075155 0.6163182697 1.4341871023
| 15> H -3.700071018 0.7129632856 0.1536799523
| 16> H -1.4743676547 1.6174942788 -0.6108314969
| 17> H -1.9888853025 0.1910742013 -1.554246915
| 18> H 2.126853799 0.8386039507 1.4588338643
| 19> H 1.5963844728 -0.850384368 1.1686429699
| 20> H 2.3663887398 -0.7066448704 -1.1779369129
| 21> H 2.8566665533 0.9778388888 -0.9394019874
| 22> H 3.7034255123 -0.3234059944 -0.0858939087
| 23> *
| 24>
| 25>                          ****END OF INPUT****

CARTESIAN COORDINATES (ANGSTROEM)
---------------------------------
  C     -2.769447    0.241311    0.453944
  C     -1.676439    0.548455   -0.572882
  C     -0.409857   -0.173551   -0.190255
  O     -0.248495   -1.373746   -0.268683
  O      0.504674    0.662978    0.282722
  C      1.768666    0.129154    0.712339
  C      2.739397    0.013358   -0.452895
  H     -2.923615   -0.832783    0.522951
  H     -2.486108    0.616318    1.434187
  H     -3.700071    0.712963    0.153680
  H     -1.474368    1.617494   -0.610831
  H     -1.988885    0.191074   -1.554247
  H      2.126854    0.838604    1.458834
  H      1.596384   -0.850384    1.168643
  H      2.366389   -0.706645   -1.177937
  H      2.856667    0.977839   -0.939402
  H      3.703426   -0.323406   -0.085894

 Total Charge           Charge          ....    0
 Multiplicity           Mult            ....    1
 Number of Electrons    NEL             ....   56
 Basis Dimension        Dim             ....  193

ORBITAL ENERGIES
----------------

  NO   OCC          E(Eh)            E(eV)
   0   2.0000     -18.996777      -516.9286
   1   2.0000     -18.926773      -515.0237
   2   2.0000     -10.150982      -276.2223
   3   2.0000     -10.090908      -274.5876
   4   2.0000     -10.042775      -273.2778
   5   2.0000     -10.029860      -272.9264
   6   2.0000     -10.028549      -272.8907
   7   2.0000      -1.071156       -29.1476
   8   2.0000      -0.974776       -26.5250
   9   2.0000      -0.764313       -20.7980
  10   2.0000      -0.730264       -19.8715
  11   2.0000      -0.643564       -17.5123
  12   2.0000      -0.596109       -16.2209
  13   2.0000      -0.522680       -14.2228
  14   2.0000      -0.472675       -12.8621
  15   2.0000      -0.452423       -12.3111
  16   2.0000      -0.434343       -11.8191
  17   2.0000      -0.416182       -11.3249
  18   2.0000      -0.408951       -11.1281
  19   2.0000      -0.381758       -10.3882
  20   2.0000      -0.363857        -9.9010
  21   2.0000      -0.355454        -9.6724
  22   2.0000      -0.335075        -9.1178
  23   2.0000      -0.331864        -9.0305
  24   2.0000      -0.321331        -8.7439
  25   2.0000      -0.305171        -8.3041
  26   2.0000      -0.270553        -7.3621
  27   2.0000      -0.234707        -6.3867
  28   0.0000      -0.014620        -0.3978
  29   0.0000       0.075874         2.0646
  30   0.0000       0.093883         2.5547
  31   0.0000       0.120611         3.2820
  32   0.0000       0.122401         3.3307

MULLIKEN ATOMIC CHARGES
-----------------------
   0 C :   -0.465738
   1 C :   -0.300054
   2 C :    0.416412
   3 O :   -0.437833
   4 O :   -0.178722
   5 C :   -0.138080
   6 C :   -0.467773
   7 H :    0.169008
   8 H :    0.147218
   9 H :    0.152456
  10 H :    0.158889
  11 H :    0.158947
  12 H :    0.147424
  13 H :    0.167591
  14 H :    0.172504
  15 H :    0.151197
  16 H :    0.146555
Sum of atomic charges:   -0.0000000

LOEWDIN ATOMIC CHARGES
----------------------
   0 C :   -0.392549
   1 C :   -0.236914
   2 C :    0.357397
   3 O :   -0.435850
   4 O :   -0.596151
   5 C :    0.026890
   6 C :   -0.390140
   7 H :    0.163008
   8 H :    0.155169
   9 H :    0.152467
  10 H :    0.173723
  11 H :    0.175820
  12 H :    0.177515
  13 H :    0.188061
  14 H :    0.165408
  15 H :    0.157058
  16 H :    0.159089

  Mayer bond orders larger than 0.100000
B(  0-C ,  1-C ) :   0.8994 B(  0-C ,  7-H ) :   0.9746 B(  0-C ,  8-H ) :   0.9748
B(  0-C ,  9-H ) :   0.9720 B(  1-C ,  2-C ) :   0.9454 B(  1-C , 10-H ) :   0.9841
B(  1-C , 11-H ) :   0.9614 B(  2-C ,  3-O ) :   1.8205 B(  2-C ,  4-O ) :   1.0596
B(  4-O ,  5-C ) :   0.8235 B(  5-C ,  6-C ) :   0.9384 B(  5-C , 12-H ) :   0.9610
B(  5-C , 13-H ) :   0.9665 B(  6-C , 14-H ) :   0.9711 B(  6-C , 15-H ) :   0.9733
B(  6-C , 16-H ) :   0.9653

Dispersion correction           -0.003971204
FINAL SINGLE POINT ENERGY      -346.936175357515

DIPOLE MOMENT
-------------

Method             : SCF
Type of density    : Electron Density
Multiplicity       :   1
Irrep              :   0
Energy             :  -346.9426119856772743 Eh
Relativity type    :
Basis              : AO
                                X                 Y                 Z
Electronic contribution:      0.115290191      -1.372590755      -0.195386184
Nuclear contribution   :      0.075729531       2.091964645       0.347314587
                        -----------------------------------------
Total Dipole Moment    :      0.191019722       0.719373889       0.151928404
                        -----------------------------------------
Magnitude (a.u.)       :      0.759650951
Magnitude (Debye)      :      1.930879267

Rotational constants in cm-1:             0.216223             0.047210             0.044126
Rotational constants in MHz :          6482.188659          1415.318018          1322.851874

                             ****ORCA TERMINATED NORMALLY****
TOTAL RUN TIME: 0 days 0 hours 0 minutes 20 seconds 947 msec
