                         Program Version 6.0.0  -   RELEASE  -
|  1> ! r2scan-3c def2/J RI DEFGRID2 scfconv6 printgap
|  2> %output
|  3>     printlevel normal
|  4> end
|  5> %cpcm
|  6>     smd true
|  7>     smdsolvent "water"
|  8> end
|  9> * xyz 0 1
| 10> C -2.7694468453 0.2413111082 0.4539442655
| 11> C -1.6764387072 0.5484553326 -0.5728821341
| 12> C -0.4098571364 -0.1735509212 -0.190254753
| 13> O -0.2484953202 -1.3737458496 -0.2686831351
| 14> O 0.50467375 0.6629781028 0.2827222779
| 15> C 1.7686660641 0.1291541051 0.7123394493
| 16> C 2.7393970702 0.0133580825 -0.4528949162
| 17> H -2.9236153376 -0.832783135 0.5229508917
| 18> H -2.4861075155 0.6163182697 1.4341871023
| 19> H -3.700071018 0.7129632856 0.1536799523
| 20> H -1.4743676547 1.6174942788 -0.6108314969
| 21> H -1.9888853025 0.1910742013 -1.554246915
| 22> H 2.126853799 0.8386039507 1.4588338643
| 23> H 1.5963844728 -0.850384368 1.1686429699
| 24> H 2.3663887398 -0.7066448704 -1.1779369129
| 25> H 2.8566665533 0.9778388888 -0.9394019874
| 26> H 3.7034255123 -0.3234059944 -0.0858939087
| 27> *
| 28>
| 29>                          ****END OF INPUT****

CARTESIAN COORDINATES (ANGSTROEM)
---------------------------------
  C     -2.769447    0.241311    0.453944
  C     -1.676439    0.548455   -0.572882
  C     -0.409857   -0.173551   -0.190255
  O     -0.248495   -1.373746   -0.268683
  O      0.504674    0.662978    0.282722
  C      1.768666    0.129154    0.712339
  C      2.739397    0.013358   -0.452895
  H     -2.923615   -0.832783    0.522951
  H     -2.486108    0.616318    1.434187
  H     -3.700071    0.712963    0.153680
  H     -1.474368    1.617494   -0.610831
  H     -1.988885    0.191074   -1.554247
  H      2.126854    0.838604    1.458834
  H      1.596384   -0.850384    1.168643
  H      2.366389   -0.706645   -1.177937
  H      2.856667    0.977839   -0.939402
  H      3.703426   -0.323406   -0.085894

 Total Charge           Charge          ....    0
 Multiplicity           Mult            ....    1
 Number of Electrons    NEL             ....   56
 Basis Dimension        Dim             ....  193

ORBITAL ENERGIES
----------------

  NO   OCC          E(Eh)            E(eV)
   0   2.0000     -19.002859      -517.0941
   1   2.0000     -18.943003      -515.4653
   2   2.0000     -10.161931      -276.5202
   3   2.0000     -10.083222      -274.3784
   4   2.0000     -10.037229      -273.1269
   5   2.0000     -10.021769      -272.7062
   6   2.0000     -10.018392      -272.6143
   7   2.0000      -1.078868       -29.3575
   8   2.0000      -0.988849       -26.9080
   9   2.0000      -0.760652       -20.6984
  10   2.0000      -0.723247       -19.6805
  11   2.0000      -0.638894       -17.3852
  12   2.0000      -0.590201       -16.0602
  13   2.0000      -0.520987       -14.1768
  14   2.0000      -0.472255       -12.8507
  15   2.0000      -0.461469       -12.5572
  16   2.0000      -0.435680       -11.8554
  17   2.0000      -0.412773       -11.2321
  18   2.0000      -0.408588       -11.1183
  19   2.0000      -0.379213       -10.3189
  20   2.0000      -0.356258        -9.6943
  21   2.0000      -0.350258        -9.5310
  22   2.0000      -0.331814        -9.0291
  23   2.0000      -0.330253        -8.9866
  24   2.0000      -0.314406        -8.5554
  25   2.0000      -0.303497        -8.2586
  26   2.0000      -0.278351        -7.5743
  27   2.0000      -0.251059        -6.8316
  28   0.0000      -0.022958        -0.6247
  29   0.0000       0.078446         2.1346
  30   0.0000       0.101311         2.7568
  31   0.0000       0.128649         3.5007
  32   0.0000       0.133120         3.6224

MULLIKEN ATOMIC CHARGES
-----------------------
   0 C :   -0.492492
   1 C :   -0.313536
   2 C :    0.455051
   3 O :   -0.520839
   4 O :   -0.198268
   5 C :   -0.144359
   6 C :   -0.492667
   7 H :    0.166750
   8 H :    0.163395
   9 H :    0.172457
  10 H :    0.174748
  11 H :    0.180676
  12 H :    0.173850
  13 H :    0.171672
  14 H :    0.168030
  15 H :    0.165387
  16 H :    0.170145
Sum of atomic charges:   -0.0000000

LOEWDIN ATOMIC CHARGES
----------------------
   0 C :   -0.395132
   1 C :   -0.233476
   2 C :    0.366935
   3 O :   -0.495575
   4 O :   -0.598216
   5 C :    0.031643
   6 C :   -0.393027
   7 H :    0.160898
   8 H :    0.160045
   9 H :    0.160254
  10 H :    0.181404
  11 H :    0.183611
  12 H :    0.189069
  13 H :    0.189378
  14 H :    0.162373
  15 H :    0.161994
  16 H :    0.167823

  Mayer bond orders larger than 0.100000
B(  0-C ,  1-C ) :   0.8859 B(  0-C ,  7-H ) :   0.9745 B(  0-C ,  8-H ) :   0.9710
B(  0-C ,  9-H ) :   0.9661 B(  1-C ,  2-C ) :   0.9475 B(  1-C , 10-H ) :   0.9754
B(  1-C , 11-H ) :   0.9551 B(  2-C ,  3-O ) :   1.7520 B(  2-C ,  4-O ) :   1.0828
B(  4-O ,  5-C ) :   0.8049 B(  5-C ,  6-C ) :   0.9368 B(  5-C , 12-H ) :   0.9515
B(  5-C , 13-H ) :   0.9630 B(  6-C , 14-H ) :   0.9689 B(  6-C , 15-H ) :   0.9694
B(  6-C , 16-H ) :   0.9602

Dispersion correction           -0.003971204
FINAL SINGLE POINT ENERGY      -346.941192828834

DIPOLE MOMENT
-------------

Method             : SCF
Type of density    : Electron Density
Multiplicity       :   1
Irrep              :   0
Energy             :  -346.9476294569961965 Eh
Relativity type    :
Basis              : AO
                                X                 Y                 Z
Electronic contribution:      0.172002574      -1.029395199      -0.122906668
Nuclear contribution   :      0.075729531       2.091964645       0.347314587
                        -----------------------------------------
Total Dipole Moment    :      0.247732104       1.062569446       0.224407919
                        -----------------------------------------
Magnitude (a.u.)       :      1.113904815
Magnitude (Debye)      :      2.831321032

Rotational constants in cm-1:             0.216223             0.047210             0.044126
Rotational constants in MHz :          6482.188659          1415.318018          1322.851874

                             ****ORCA TERMINATED NORMALLY****
TOTAL RUN TIME: 0 days 0 hours 0 minutes 25 seconds 588 msec
