                         Program Version 6.0.0  -   RELEASE  -
|  1> ! pbe def2-sv(p) def2/J RI DEFGRID1 loosescf d4 GCP(DFT/SV(P)) printgap
|  2> %output
|  3>     printlevel normal
|  4> end
|  5> * xyz 0 1
|  6> C 1.8738885392 -1.0442820868 0.3677712924
|  7> C 1.2739858811 0.2729291261 0.845613438
|  8> C 0.1713505854 0.8634814319 -0.0461768787
|  9> H -0.0437057646 1.8661586827 0.3685124299
| 10> C -1.1861999188 0.1219921174 -0.0960098849
| 11> C -1.1356718165 -1.2139759164 -0.8368962887
| 12> C -1.7867138546 -0.0485388214 1.2965964376
| 13> O 0.7167046614 1.0197827924 -1.3465363273
| 14> H 2.0976406812 -0.983168965 -0.6935606182
| 15> H 1.2008873081 -1.8776591301 0.539061562
| 16> H 2.7985081798 -1.2389700978 0.9061983062
| 17> H 0.887684385 0.1703830394 1.8591666163
| 18> H 2.071771864 1.0193436933 0.8675228365
| 19> H -1.8514217082 0.7857044216 -0.6656974748
| 20> H -2.1301245598 -1.4811522401 -1.1871780709
| 21> H -0.4710300535 -1.1468253408 -1.6943456634
| 22> H -0.7843535379 -2.0094510903 -0.1871849053
| 23> H -1.2113561835 -0.7614257757 1.8811066893
| 24> H -2.8050603793 -0.4204216676 1.2147803321
| 25> H -1.8070276088 0.9010066136 1.8269223024
| 26> H 0.0773179246 1.4820134425 -1.9038864954
| 27> *
| 28>
| 29>                          ****END OF INPUT****

CARTESIAN COORDINATES (ANGSTROEM)
---------------------------------
  C      1.873889   -1.044282    0.367771
  C      1.273986    0.272929    0.845613
  C      0.171351    0.863481   -0.046177
  H     -0.043706    1.866159    0.368512
  C     -1.186200    0.121992   -0.096010
  C     -1.135672   -1.213976   -0.836896
  C     -1.786714   -0.048539    1.296596
  O      0.716705    1.019783   -1.346536
  H      2.097641   -0.983169   -0.693561
  H      1.200887   -1.877659    0.539062
  H      2.798508   -1.238970    0.906198
  H      0.887684    0.170383    1.859167
  H      2.071772    1.019344    0.867523
  H     -1.851422    0.785704   -0.665697
  H     -2.130125   -1.481152   -1.187178
  H     -0.471030   -1.146825   -1.694346
  H     -0.784354   -2.009451   -0.187185
  H     -1.211356   -0.761426    1.881107
  H     -2.805060   -0.420422    1.214780
  H     -1.807028    0.901007    1.826922
  H      0.077318    1.482013   -1.903886

 Total Charge           Charge          ....    0
 Multiplicity           Mult            ....    1
 Number of Electrons    NEL             ....   58
 Basis Dimension        Dim             ....  126

ORBITAL ENERGIES
----------------

  NO   OCC          E(Eh)            E(eV)
   0   2.0000     -18.740434      -509.9531
   1   2.0000      -9.932509      -270.2773
   2   2.0000      -9.893915      -269.2271
   3   2.0000      -9.878796      -268.8157
   4   2.0000      -9.875514      -268.7264
   5   2.0000      -9.867194      -268.5000
   6   2.0000      -9.863620      -268.4027
   7   2.0000      -0.917630       -24.9700
   8   2.0000      -0.723969       -19.7002
   9   2.0000      -0.679698       -18.4955
  10   2.0000      -0.611876       -16.6500
  11   2.0000      -0.598283       -16.2801
  12   2.0000      -0.533567       -14.5191
  13   2.0000      -0.495216       -13.4755
  14   2.0000      -0.446591       -12.1524
  15   2.0000      -0.429456       -11.6861
  16   2.0000      -0.392650       -10.6845
  17   2.0000      -0.376364       -10.2414
  18   2.0000      -0.368830       -10.0364
  19   2.0000      -0.354502        -9.6465
  20   2.0000      -0.340583        -9.2677
  21   2.0000      -0.329623        -8.9695
  22   2.0000      -0.318626        -8.6703
  23   2.0000      -0.299643        -8.1537
  24   2.0000      -0.298104        -8.1118
  25   2.0000      -0.284439        -7.7400
  26   2.0000      -0.280226        -7.6253
  27   2.0000      -0.256147        -6.9701
  28   2.0000      -0.210771        -5.7354
  29   0.0000       0.018830         0.5124
  30   0.0000       0.048312         1.3146
  31   0.0000       0.063213         1.7201
  32   0.0000       0.071587         1.9480
  33   0.0000       0.084907         2.3104

MULLIKEN ATOMIC CHARGES
-----------------------
   0 C :   -0.280629
   1 C :   -0.167122
   2 C :    0.055318
   3 H :    0.051023
   4 C :   -0.187092
   5 C :   -0.235442
   6 C :   -0.259152
   7 O :   -0.416609
   8 H :    0.116697
   9 H :    0.099383
  10 H :    0.096902
  11 H :    0.086955
  12 H :    0.086402
  13 H :    0.055157
  14 H :    0.093848
  15 H :    0.100542
  16 H :    0.101441
  17 H :    0.107852
  18 H :    0.100235
  19 H :    0.098256
  20 H :    0.296038
Sum of atomic charges:   -0.0000000

LOEWDIN ATOMIC CHARGES
----------------------
   0 C :   -0.345158
   1 C :   -0.234972
   2 C :   -0.047367
   3 H :    0.094870
   4 C :   -0.171083
   5 C :   -0.336685
   6 C :   -0.329666
   7 O :   -0.325601
   8 H :    0.125544
   9 H :    0.113341
  10 H :    0.118130
  11 H :    0.118371
  12 H :    0.122290
  13 H :    0.108011
  14 H :    0.117273
  15 H :    0.118765
  16 H :    0.115979
  17 H :    0.118267
  18 H :    0.120565
  19 H :    0.116438
  20 H :    0.282688

  Mayer bond orders larger than 0.100000
B(  0-C ,  1-C ) :   1.1716 B(  0-C ,  8-H ) :   0.9448 B(  0-C ,  9-H ) :   0.9450
B(  0-C , 10-H ) :   0.9486 B(  1-C ,  2-C ) :   1.0833 B(  1-C , 11-H ) :   0.9179
B(  1-C , 12-H ) :   0.9131 B(  2-C ,  3-H ) :   0.8972 B(  2-C ,  4-C ) :   1.0265
B(  2-C ,  7-O ) :   1.0450 B(  4-C ,  5-C ) :   1.1169 B(  4-C ,  6-C ) :   1.1040
B(  4-C , 13-H ) :   0.8921 B(  5-C , 14-H ) :   0.9460 B(  5-C , 15-H ) :   0.9340
B(  5-C , 16-H ) :   0.9421 B(  6-C , 17-H ) :   0.9417 B(  6-C , 18-H ) :   0.9465
B(  6-C , 19-H ) :   0.9479 B(  7-O , 20-H ) :   0.8485

Dispersion correction           -0.017397119
FINAL SINGLE POINT ENERGY      -311.515269135608

DIPOLE MOMENT
-------------

Method             : SCF
Type of density    : Electron Density
Multiplicity       :   1
Irrep              :   0
Energy             :  -311.5946456590220919 Eh
Relativity type    :
Basis              : AO
                                X                 Y                 Z
Electronic contribution:      1.324177914       3.687950296      -2.859750683
Nuclear contribution   :     -1.837798527      -3.450877474       2.917798433
                        -----------------------------------------
Total Dipole Moment    :     -0.513620613       0.237072823       0.058047751
                        -----------------------------------------
Magnitude (a.u.)       :      0.568664399
Magnitude (Debye)      :      1.445430033

Rotational constants in cm-1:             0.099618             0.065992             0.060152
Rotational constants in MHz :          2986.464332          1978.395107          1803.311164

                             ****ORCA TERMINATED NORMALLY****
TOTAL RUN TIME: 0 days 0 hours 0 minutes 9 seconds 523 msec
