                         Program Version 6.0.0  -   RELEASE  -
|  1> ! r2scan-3c def2/J RI DEFGRID2 scfconv6 printgap
|  2> %output
|  3>     printlevel normal
|  4> end
|  5> * xyz 0 1
|  6> C -1.8504630373 -0.759581111 -0.1228000616
|  7> C -1.3271835759 0.6047318045 0.3116322836
|  8> C 0.0733858238 0.8667373948 -0.245954671
|  9> C 1.0909238035 -0.0510294922 0.339139902
| 10> O 2.002425549 -0.5697091683 -0.2604981766
| 11> H -1.1881887946 -1.5512122756 0.2227234712
| 12> H -2.8421062164 -0.9354848688 0.2856208771
| 13> H -1.9099636237 -0.8176970311 -1.2070951775
| 14> H -1.2979130052 0.6561971734 1.4014075893
| 15> H -2.002241326 1.3830049247 -0.0451504739
| 16> H 0.0900651192 0.7872109274 -1.3338976256
| 17> H 0.3867433646 1.8786869889 0.0272155729
| 18> H 0.9695368581 -0.2323736672 1.4236048789
| 19> *
| 20>
| 21>                          ****END OF INPUT****

CARTESIAN COORDINATES (ANGSTROEM)
---------------------------------
  C     -1.850463   -0.759581   -0.122800
  C     -1.327184    0.604732    0.311632
  C      0.073386    0.866737   -0.245955
  C      1.090924   -0.051029    0.339140
  O      2.002426   -0.569709   -0.260498
  H     -1.188189   -1.551212    0.222723
  H     -2.842106   -0.935485    0.285621
  H     -1.909964   -0.817697   -1.207095
  H     -1.297913    0.656197    1.401408
  H     -2.002241    1.383005   -0.045150
  H      0.090065    0.787211   -1.333898
  H      0.386743    1.878687    0.027216
  H      0.969537   -0.232374    1.423605

 Total Charge           Charge          ....    0
 Multiplicity           Mult            ....    1
 Number of Electrons    NEL             ....   40
 Basis Dimension        Dim             ....  140

ORBITAL ENERGIES
----------------

  NO   OCC          E(Eh)            E(eV)
   0   2.0000     -18.948800      -515.6231
   1   2.0000     -10.120209      -275.3849
   2   2.0000     -10.046482      -273.3787
   3   2.0000     -10.044664      -273.3292
   4   2.0000     -10.028945      -272.9015
   5   2.0000      -1.012421       -27.5494
   6   2.0000      -0.781032       -21.2530
   7   2.0000      -0.688053       -18.7229
   8   2.0000      -0.589510       -16.0414
   9   2.0000      -0.544678       -14.8214
  10   2.0000      -0.444009       -12.0821
  11   2.0000      -0.438677       -11.9370
  12   2.0000      -0.430531       -11.7154
  13   2.0000      -0.389990       -10.6122
  14   2.0000      -0.373676       -10.1682
  15   2.0000      -0.358556        -9.7568
  16   2.0000      -0.329687        -8.9712
  17   2.0000      -0.320947        -8.7334
  18   2.0000      -0.317351        -8.6356
  19   2.0000      -0.220930        -6.0118
  20   0.0000      -0.059425        -1.6170
  21   0.0000       0.088749         2.4150
  22   0.0000       0.108646         2.9564
  23   0.0000       0.113701         3.0940
  24   0.0000       0.118877         3.2348

MULLIKEN ATOMIC CHARGES
-----------------------
   0 C :   -0.456576
   1 C :   -0.264730
   2 C :   -0.201574
   3 C :    0.093341
   4 O :   -0.332726
   5 H :    0.149884
   6 H :    0.149354
   7 H :    0.148928
   8 H :    0.139780
   9 H :    0.148751
  10 H :    0.162977
  11 H :    0.162516
  12 H :    0.100075
Sum of atomic charges:   -0.0000000

LOEWDIN ATOMIC CHARGES
----------------------
   0 C :   -0.416982
   1 C :   -0.311485
   2 C :   -0.299348
   3 C :    0.195216
   4 O :   -0.447739
   5 H :    0.154275
   6 H :    0.153240
   7 H :    0.153940
   8 H :    0.154596
   9 H :    0.156470
  10 H :    0.176044
  11 H :    0.181901
  12 H :    0.149872

  Mayer bond orders larger than 0.100000
B(  0-C ,  1-C ) :   0.9125 B(  0-C ,  5-H ) :   0.9721 B(  0-C ,  6-H ) :   0.9678
B(  0-C ,  7-H ) :   0.9777 B(  1-C ,  2-C ) :   0.8895 B(  1-C ,  8-H ) :   0.9718
B(  1-C ,  9-H ) :   0.9649 B(  2-C ,  3-C ) :   0.8977 B(  2-C , 10-H ) :   0.9686
B(  2-C , 11-H ) :   0.9299 B(  3-C ,  4-O ) :   1.9121 B(  3-C , 12-H ) :   0.9664

Dispersion correction           -0.002722733
FINAL SINGLE POINT ENERGY      -232.391551488385

DIPOLE MOMENT
-------------

Method             : SCF
Type of density    : Electron Density
Multiplicity       :   1
Irrep              :   0
Energy             :  -232.3947844668809637 Eh
Relativity type    :
Basis              : AO
                                X                 Y                 Z
Electronic contribution:      6.292243199      -0.516128489      -0.362986329
Nuclear contribution   :     -7.282407785       1.087626611       0.722674990
                        -----------------------------------------
Total Dipole Moment    :     -0.990164586       0.571498122       0.359688661
                        -----------------------------------------
Magnitude (a.u.)       :      1.198504044
Magnitude (Debye)      :      3.046355182

Rotational constants in cm-1:             0.355685             0.097401             0.085347
Rotational constants in MHz :         10663.182326          2920.019086          2558.633618

                             ****ORCA TERMINATED NORMALLY****
TOTAL RUN TIME: 0 days 0 hours 0 minutes 18 seconds 161 msec
