                         Program Version 6.0.0  -   RELEASE  -
|  1> ! r2scan-3c def2/J RI DEFGRID2 scfconv6 printgap
|  2> %output
|  3>     printlevel normal
|  4> end
|  5> %cpcm
|  6>     smd true
|  7>     smdsolvent "water"
|  8> end
|  9> * xyz 0 1
| 10> C -1.8504630373 -0.759581111 -0.1228000616
| 11> C -1.3271835759 0.6047318045 0.3116322836
| 12> C 0.0733858238 0.8667373948 -0.245954671
| 13> C 1.0909238035 -0.0510294922 0.339139902
| 14> O 2.002425549 -0.5697091683 -0.2604981766
| 15> H -1.1881887946 -1.5512122756 0.2227234712
| 16> H -2.8421062164 -0.9354848688 0.2856208771
| 17> H -1.9099636237 -0.8176970311 -1.2070951775
| 18> H -1.2979130052 0.6561971734 1.4014075893
| 19> H -2.002241326 1.3830049247 -0.0451504739
| 20> H 0.0900651192 0.7872109274 -1.3338976256
| 21> H 0.3867433646 1.8786869889 0.0272155729
| 22> H 0.9695368581 -0.2323736672 1.4236048789
| 23> *
| 24>
| 25>                          ****END OF INPUT****

CARTESIAN COORDINATES (ANGSTROEM)
---------------------------------
  C     -1.850463   -0.759581   -0.122800
  C     -1.327184    0.604732    0.311632
  C      0.073386    0.866737   -0.245955
  C      1.090924   -0.051029    0.339140
  O      2.002426   -0.569709   -0.260498
  H     -1.188189   -1.551212    0.222723
  H     -2.842106   -0.935485    0.285621
  H     -1.909964   -0.817697   -1.207095
  H     -1.297913    0.656197    1.401408
  H     -2.002241    1.383005   -0.045150
  H      0.090065    0.787211   -1.333898
  H      0.386743    1.878687    0.027216
  H      0.969537   -0.232374    1.423605

 Total Charge           Charge          ....    0
 Multiplicity           Mult            ....    1
 Number of Electrons    NEL             ....   40
 Basis Dimension        Dim             ....  140

ORBITAL ENERGIES
----------------

  NO   OCC          E(Eh)            E(eV)
   0   2.0000     -18.956710      -515.8383
   1   2.0000     -10.122396      -275.4444
   2   2.0000     -10.030878      -272.9541
   3   2.0000     -10.028182      -272.8807
   4   2.0000     -10.011918      -272.4381
   5   2.0000      -1.022375       -27.8202
   6   2.0000      -0.765837       -20.8395
   7   2.0000      -0.674458       -18.3529
   8   2.0000      -0.576278       -15.6813
   9   2.0000      -0.535367       -14.5681
  10   2.0000      -0.438105       -11.9214
  11   2.0000      -0.431177       -11.7329
  12   2.0000      -0.424894       -11.5620
  13   2.0000      -0.385222       -10.4824
  14   2.0000      -0.365727        -9.9519
  15   2.0000      -0.354567        -9.6483
  16   2.0000      -0.314298        -8.5525
  17   2.0000      -0.305570        -8.3150
  18   2.0000      -0.302831        -8.2404
  19   2.0000      -0.228231        -6.2105
  20   0.0000      -0.059184        -1.6105
  21   0.0000       0.106799         2.9061
  22   0.0000       0.115295         3.1373
  23   0.0000       0.127724         3.4755
  24   0.0000       0.134448         3.6585

MULLIKEN ATOMIC CHARGES
-----------------------
   0 C :   -0.503654
   1 C :   -0.262542
   2 C :   -0.229800
   3 C :    0.142262
   4 O :   -0.437282
   5 H :    0.158422
   6 H :    0.159980
   7 H :    0.159647
   8 H :    0.155981
   9 H :    0.161617
  10 H :    0.170886
  11 H :    0.192911
  12 H :    0.131573
Sum of atomic charges:   -0.0000000

LOEWDIN ATOMIC CHARGES
----------------------
   0 C :   -0.425741
   1 C :   -0.306529
   2 C :   -0.295796
   3 C :    0.220785
   4 O :   -0.524372
   5 H :    0.155436
   6 H :    0.155914
   7 H :    0.155659
   8 H :    0.160729
   9 H :    0.161186
  10 H :    0.178507
  11 H :    0.196502
  12 H :    0.167719

  Mayer bond orders larger than 0.100000
B(  0-C ,  1-C ) :   0.8986 B(  0-C ,  5-H ) :   0.9717 B(  0-C ,  6-H ) :   0.9655
B(  0-C ,  7-H ) :   0.9759 B(  1-C ,  2-C ) :   0.8819 B(  1-C ,  8-H ) :   0.9711
B(  1-C ,  9-H ) :   0.9634 B(  2-C ,  3-C ) :   0.9294 B(  2-C , 10-H ) :   0.9714
B(  2-C , 11-H ) :   0.9148 B(  3-C ,  4-O ) :   1.8476 B(  3-C , 12-H ) :   0.9503

Dispersion correction           -0.002722733
FINAL SINGLE POINT ENERGY      -232.397175438726

DIPOLE MOMENT
-------------

Method             : SCF
Type of density    : Electron Density
Multiplicity       :   1
Irrep              :   0
Energy             :  -232.4004084172216835 Eh
Relativity type    :
Basis              : AO
                                X                 Y                 Z
Electronic contribution:      5.968791731      -0.269998185      -0.146868955
Nuclear contribution   :     -7.282407785       1.087626611       0.722674990
                        -----------------------------------------
Total Dipole Moment    :     -1.313616055       0.817628426       0.575806036
                        -----------------------------------------
Magnitude (a.u.)       :      1.650956078
Magnitude (Debye)      :      4.196396858

Rotational constants in cm-1:             0.355685             0.097401             0.085347
Rotational constants in MHz :         10663.182326          2920.019086          2558.633618

                             ****ORCA TERMINATED NORMALLY****
TOTAL RUN TIME: 0 days 0 hours 0 minutes 18 seconds 279 msec
