                         Program Version 6.0.0  -   RELEASE  -
|  1> ! r2scan-3c def2/J RI DEFGRID2 scfconv6 printgap
|  2> %output
|  3>     printlevel normal
|  4> end
|  5> * xyz 0 1
|  6> C 3.0324665991 -0.8646771986 1.0986669153
|  7> C 2.5886085323 0.1828502485 0.122516905
|  8> C 3.4593678378 0.961451455 -0.5019312983
|  9> C 1.1081305177 0.3134336353 -0.1413816628
| 10> H 0.9527082496 1.2087960123 -0.7522655531
| 11> C 0.5641338508 -0.885498217 -0.9301626768
| 12> C -0.8572026337 -0.5895166002 -1.4011719877
| 13> C -1.7041194876 -0.0760298407 -0.2703387623
| 14> C -1.1706512592 0.3928912017 0.8703898318
| 15> C 0.2853787405 0.4656208522 1.1422233838
| 16> C -3.1464439949 -0.0914546396 -0.4381133959
| 17> O -3.9661953263 0.2985285982 0.3753807346
| 18> H 2.5170139669 -1.8055084 0.9220255404
| 19> H 4.1027402171 -1.0315510264 1.0144904266
| 20> H 2.8209134915 -0.5458196607 2.1184118763
| 21> H 3.1497122099 1.7236211014 -1.1971235611
| 22> H 4.520758803 0.8699608374 -0.3440612473
| 23> H 1.2057065653 -1.0891722749 -1.7883611126
| 24> H 0.5537153095 -1.7703727515 -0.2927782722
| 25> H -0.8371816339 0.1605688294 -2.197110178
| 26> H -1.3121663203 -1.4912373245 -1.8163943712
| 27> H -1.8427050546 0.7295940437 1.6492751276
| 28> H 0.519712009 1.41009988 1.6379259053
| 29> H 0.5312881215 -0.3331996109 1.8478481559
| 30> H -3.493025821 -0.4993464705 -1.4063982839
| 31> *
| 32>
| 33>                          ****END OF INPUT****

CARTESIAN COORDINATES (ANGSTROEM)
---------------------------------
  C      3.032467   -0.864677    1.098667
  C      2.588609    0.182850    0.122517
  C      3.459368    0.961451   -0.501931
  C      1.108131    0.313434   -0.141382
  H      0.952708    1.208796   -0.752266
  C      0.564134   -0.885498   -0.930163
  C     -0.857203   -0.589517   -1.401172
  C     -1.704119   -0.076030   -0.270339
  C     -1.170651    0.392891    0.870390
  C      0.285379    0.465621    1.142223
  C     -3.146444   -0.091455   -0.438113
  O     -3.966195    0.298529    0.375381
  H      2.517014   -1.805508    0.922026
  H      4.102740   -1.031551    1.014490
  H      2.820913   -0.545820    2.118412
  H      3.149712    1.723621   -1.197124
  H      4.520759    0.869961   -0.344061
  H      1.205707   -1.089172   -1.788361
  H      0.553715   -1.770373   -0.292778
  H     -0.837182    0.160569   -2.197110
  H     -1.312166   -1.491237   -1.816394
  H     -1.842705    0.729594    1.649275
  H      0.519712    1.410100    1.637926
  H      0.531288   -0.333200    1.847848
  H     -3.493026   -0.499346   -1.406398

 Total Charge           Charge          ....    0
 Multiplicity           Mult            ....    1
 Number of Electrons    NEL             ....   82
 Basis Dimension        Dim             ....  284

ORBITAL ENERGIES
----------------

  NO   OCC          E(Eh)            E(eV)
   0   2.0000     -18.937416      -515.3133
   1   2.0000     -10.109539      -275.0945
   2   2.0000     -10.055003      -273.6105
   3   2.0000     -10.050075      -273.4764
   4   2.0000     -10.048424      -273.4315
   5   2.0000     -10.047577      -273.4085
   6   2.0000     -10.046389      -273.3762
   7   2.0000     -10.045075      -273.3404
   8   2.0000     -10.041142      -273.2334
   9   2.0000     -10.033326      -273.0207
  10   2.0000     -10.018891      -272.6279
  11   2.0000      -0.998032       -27.1578
  12   2.0000      -0.833436       -22.6789
  13   2.0000      -0.783164       -21.3110
  14   2.0000      -0.731768       -19.9124
  15   2.0000      -0.722845       -19.6696
  16   2.0000      -0.664160       -18.0727
  17   2.0000      -0.622059       -16.9271
  18   2.0000      -0.607001       -16.5173
  19   2.0000      -0.558979       -15.2106
  20   2.0000      -0.510607       -13.8943
  21   2.0000      -0.491472       -13.3736
  22   2.0000      -0.468273       -12.7424
  23   2.0000      -0.443067       -12.0565
  24   2.0000      -0.424954       -11.5636
  25   2.0000      -0.416596       -11.3362
  26   2.0000      -0.413081       -11.2405
  27   2.0000      -0.400325       -10.8934
  28   2.0000      -0.396419       -10.7871
  29   2.0000      -0.378361       -10.2957
  30   2.0000      -0.369978       -10.0676
  31   2.0000      -0.364495        -9.9184
  32   2.0000      -0.355369        -9.6701
  33   2.0000      -0.347410        -9.4535
  34   2.0000      -0.341041        -9.2802
  35   2.0000      -0.314203        -8.5499
  36   2.0000      -0.302435        -8.2297
  37   2.0000      -0.292826        -7.9682
  38   2.0000      -0.240692        -6.5496
  39   2.0000      -0.231343        -6.2952
  40   2.0000      -0.217303        -5.9131
  41   0.0000      -0.092331        -2.5124
  42   0.0000      -0.016233        -0.4417
  43   0.0000       0.032021         0.8713
  44   0.0000       0.067487         1.8364
  45   0.0000       0.087523         2.3816

MULLIKEN ATOMIC CHARGES
-----------------------
   0 C :   -0.547324
   1 C :    0.081917
   2 C :   -0.369710
   3 C :   -0.013446
   4 H :    0.176260
   5 C :   -0.351690
   6 C :   -0.355165
   7 C :    0.107945
   8 C :   -0.086615
   9 C :   -0.395277
  10 C :    0.022036
  11 O :   -0.351754
  12 H :    0.163442
  13 H :    0.154695
  14 H :    0.169467
  15 H :    0.142647
  16 H :    0.138873
  17 H :    0.171380
  18 H :    0.167870
  19 H :    0.175606
  20 H :    0.156954
  21 H :    0.187354
  22 H :    0.170727
  23 H :    0.179383
  24 H :    0.104426
Sum of atomic charges:    0.0000000

LOEWDIN ATOMIC CHARGES
----------------------
   0 C :   -0.395121
   1 C :   -0.122679
   2 C :   -0.317324
   3 C :   -0.197229
   4 H :    0.173139
   5 C :   -0.271587
   6 C :   -0.277519
   7 C :   -0.136779
   8 C :   -0.083363
   9 C :   -0.269568
  10 C :    0.206712
  11 O :   -0.472300
  12 H :    0.160527
  13 H :    0.162842
  14 H :    0.164079
  15 H :    0.157971
  16 H :    0.156517
  17 H :    0.166169
  18 H :    0.162558
  19 H :    0.169494
  20 H :    0.167610
  21 H :    0.186172
  22 H :    0.174719
  23 H :    0.179805
  24 H :    0.155157

  Mayer bond orders larger than 0.100000
B(  0-C ,  1-C ) :   0.8603 B(  0-C , 12-H ) :   0.9800 B(  0-C , 13-H ) :   0.9777
B(  0-C , 14-H ) :   0.9697 B(  1-C ,  2-C ) :   1.8699 B(  1-C ,  3-C ) :   0.8813
B(  2-C , 15-H ) :   0.9918 B(  2-C , 16-H ) :   0.9673 B(  3-C ,  4-H ) :   1.0029
B(  3-C ,  5-C ) :   0.8673 B(  3-C ,  9-C ) :   0.8653 B(  5-C ,  6-C ) :   0.8916
B(  5-C , 17-H ) :   0.9722 B(  5-C , 18-H ) :   0.9889 B(  6-C ,  7-C ) :   0.8905
B(  6-C , 19-H ) :   0.9903 B(  6-C , 20-H ) :   0.9696 B(  7-C ,  8-C ) :   1.7433
B(  7-C , 10-C ) :   0.8933 B(  7-C , 11-O ) :  -0.1281 B(  7-C , 24-H ) :  -0.1021
B(  8-C ,  9-C ) :   0.9039 B(  8-C , 11-O ) :   0.1373 B(  8-C , 21-H ) :   0.9514
B(  9-C , 22-H ) :   0.9663 B(  9-C , 23-H ) :   0.9652 B( 10-C , 11-O ) :   1.9426
B( 10-C , 24-H ) :   1.0292

Dispersion correction           -0.008891761
FINAL SINGLE POINT ENERGY      -464.551275622048

DIPOLE MOMENT
-------------

Method             : SCF
Type of density    : Electron Density
Multiplicity       :   1
Irrep              :   0
Energy             :  -464.5519368112423990 Eh
Relativity type    :
Basis              : AO
                                X                 Y                 Z
Electronic contribution:    -11.228199189       1.945592190       0.281824575
Nuclear contribution   :     12.502509086      -2.306813241      -0.561572178
                        -----------------------------------------
Total Dipole Moment    :      1.274309897      -0.361221051      -0.279747603
                        -----------------------------------------
Magnitude (a.u.)       :      1.353737449
Magnitude (Debye)      :      3.440927141

Rotational constants in cm-1:             0.097732             0.018215             0.017091
Rotational constants in MHz :          2929.919436           546.082795           512.377036

                             ****ORCA TERMINATED NORMALLY****
TOTAL RUN TIME: 0 days 0 hours 0 minutes 56 seconds 277 msec
