                         Program Version 6.0.0  -   RELEASE  -
|  1> ! r2scan-3c def2/J RI DEFGRID2 scfconv6 printgap
|  2> %output
|  3>     printlevel normal
|  4> end
|  5> %cpcm
|  6>     smd true
|  7>     smdsolvent "water"
|  8> end
|  9> * xyz 0 1
| 10> C 3.0324665991 -0.8646771986 1.0986669153
| 11> C 2.5886085323 0.1828502485 0.122516905
| 12> C 3.4593678378 0.961451455 -0.5019312983
| 13> C 1.1081305177 0.3134336353 -0.1413816628
| 14> H 0.9527082496 1.2087960123 -0.7522655531
| 15> C 0.5641338508 -0.885498217 -0.9301626768
| 16> C -0.8572026337 -0.5895166002 -1.4011719877
| 17> C -1.7041194876 -0.0760298407 -0.2703387623
| 18> C -1.1706512592 0.3928912017 0.8703898318
| 19> C 0.2853787405 0.4656208522 1.1422233838
| 20> C -3.1464439949 -0.0914546396 -0.4381133959
| 21> O -3.9661953263 0.2985285982 0.3753807346
| 22> H 2.5170139669 -1.8055084 0.9220255404
| 23> H 4.1027402171 -1.0315510264 1.0144904266
| 24> H 2.8209134915 -0.5458196607 2.1184118763
| 25> H 3.1497122099 1.7236211014 -1.1971235611
| 26> H 4.520758803 0.8699608374 -0.3440612473
| 27> H 1.2057065653 -1.0891722749 -1.7883611126
| 28> H 0.5537153095 -1.7703727515 -0.2927782722
| 29> H -0.8371816339 0.1605688294 -2.197110178
| 30> H -1.3121663203 -1.4912373245 -1.8163943712
| 31> H -1.8427050546 0.7295940437 1.6492751276
| 32> H 0.519712009 1.41009988 1.6379259053
| 33> H 0.5312881215 -0.3331996109 1.8478481559
| 34> H -3.493025821 -0.4993464705 -1.4063982839
| 35> *
| 36>
| 37>                          ****END OF INPUT****

CARTESIAN COORDINATES (ANGSTROEM)
---------------------------------
  C      3.032467   -0.864677    1.098667
  C      2.588609    0.182850    0.122517
  C      3.459368    0.961451   -0.501931
  C      1.108131    0.313434   -0.141382
  H      0.952708    1.208796   -0.752266
  C      0.564134   -0.885498   -0.930163
  C     -0.857203   -0.589517   -1.401172
  C     -1.704119   -0.076030   -0.270339
  C     -1.170651    0.392891    0.870390
  C      0.285379    0.465621    1.142223
  C     -3.146444   -0.091455   -0.438113
  O     -3.966195    0.298529    0.375381
  H      2.517014   -1.805508    0.922026
  H      4.102740   -1.031551    1.014490
  H      2.820913   -0.545820    2.118412
  H      3.149712    1.723621   -1.197124
  H      4.520759    0.869961   -0.344061
  H      1.205707   -1.089172   -1.788361
  H      0.553715   -1.770373   -0.292778
  H     -0.837182    0.160569   -2.197110
  H     -1.312166   -1.491237   -1.816394
  H     -1.842705    0.729594    1.649275
  H      0.519712    1.410100    1.637926
  H      0.531288   -0.333200    1.847848
  H     -3.493026   -0.499346   -1.406398

 Total Charge           Charge          ....    0
 Multiplicity           Mult            ....    1
 Number of Electrons    NEL             ....   82
 Basis Dimension        Dim             ....  284

ORBITAL ENERGIES
----------------

  NO   OCC          E(Eh)            E(eV)
   0   2.0000     -18.948869      -515.6249
   1   2.0000     -10.115833      -275.2658
   2   2.0000     -10.050335      -273.4835
   3   2.0000     -10.038759      -273.1685
   4   2.0000     -10.038067      -273.1497
   5   2.0000     -10.034258      -273.0460
   6   2.0000     -10.032810      -273.0066
   7   2.0000     -10.029534      -272.9175
   8   2.0000     -10.023632      -272.7569
   9   2.0000     -10.015743      -272.5422
  10   2.0000     -10.007217      -272.3102
  11   2.0000      -1.012103       -27.5407
  12   2.0000      -0.821037       -22.3416
  13   2.0000      -0.773025       -21.0351
  14   2.0000      -0.717494       -19.5240
  15   2.0000      -0.712294       -19.3825
  16   2.0000      -0.650023       -17.6880
  17   2.0000      -0.614243       -16.7144
  18   2.0000      -0.594457       -16.1760
  19   2.0000      -0.549088       -14.9414
  20   2.0000      -0.497781       -13.5453
  21   2.0000      -0.479073       -13.0362
  22   2.0000      -0.463923       -12.6240
  23   2.0000      -0.432055       -11.7568
  24   2.0000      -0.421958       -11.4821
  25   2.0000      -0.409598       -11.1457
  26   2.0000      -0.402060       -10.9406
  27   2.0000      -0.391872       -10.6634
  28   2.0000      -0.384405       -10.4602
  29   2.0000      -0.373961       -10.1760
  30   2.0000      -0.362428        -9.8622
  31   2.0000      -0.352462        -9.5910
  32   2.0000      -0.345328        -9.3969
  33   2.0000      -0.337706        -9.1894
  34   2.0000      -0.327102        -8.9009
  35   2.0000      -0.297620        -8.0987
  36   2.0000      -0.286972        -7.8089
  37   2.0000      -0.280405        -7.6302
  38   2.0000      -0.235987        -6.4215
  39   2.0000      -0.229979        -6.2580
  40   2.0000      -0.223263        -6.0753
  41   0.0000      -0.093240        -2.5372
  42   0.0000      -0.007824        -0.2129
  43   0.0000       0.037293         1.0148
  44   0.0000       0.081864         2.2276
  45   0.0000       0.102235         2.7820

MULLIKEN ATOMIC CHARGES
-----------------------
   0 C :   -0.568621
   1 C :    0.039410
   2 C :   -0.452041
   3 C :    0.014669
   4 H :    0.192420
   5 C :   -0.370329
   6 C :   -0.357359
   7 C :    0.079483
   8 C :   -0.091331
   9 C :   -0.413609
  10 C :    0.063511
  11 O :   -0.460352
  12 H :    0.182447
  13 H :    0.167877
  14 H :    0.186578
  15 H :    0.165710
  16 H :    0.162760
  17 H :    0.175286
  18 H :    0.188588
  19 H :    0.192752
  20 H :    0.176491
  21 H :    0.195868
  22 H :    0.187558
  23 H :    0.206139
  24 H :    0.136096
Sum of atomic charges:    0.0000000

LOEWDIN ATOMIC CHARGES
----------------------
   0 C :   -0.401531
   1 C :   -0.121149
   2 C :   -0.349148
   3 C :   -0.197465
   4 H :    0.177611
   5 C :   -0.271689
   6 C :   -0.274360
   7 C :   -0.140632
   8 C :   -0.071393
   9 C :   -0.266083
  10 C :    0.223179
  11 O :   -0.557500
  12 H :    0.168216
  13 H :    0.165465
  14 H :    0.171325
  15 H :    0.163328
  16 H :    0.161556
  17 H :    0.167455
  18 H :    0.168712
  19 H :    0.176002
  20 H :    0.175004
  21 H :    0.186985
  22 H :    0.181970
  23 H :    0.191520
  24 H :    0.172624

  Mayer bond orders larger than 0.100000
B(  0-C ,  1-C ) :   0.8724 B(  0-C , 12-H ) :   0.9714 B(  0-C , 13-H ) :   0.9755
B(  0-C , 14-H ) :   0.9609 B(  1-C ,  2-C ) :   1.8547 B(  1-C ,  3-C ) :   0.8610
B(  2-C , 15-H ) :   0.9867 B(  2-C , 16-H ) :   0.9698 B(  3-C ,  4-H ) :   1.0031
B(  3-C ,  5-C ) :   0.8504 B(  3-C ,  9-C ) :   0.8547 B(  5-C ,  6-C ) :   0.8774
B(  5-C , 17-H ) :   0.9681 B(  5-C , 18-H ) :   0.9890 B(  6-C ,  7-C ) :   0.8950
B(  6-C , 19-H ) :   0.9882 B(  6-C , 20-H ) :   0.9682 B(  7-C ,  8-C ) :   1.6793
B(  7-C , 10-C ) :   0.9544 B(  7-C , 11-O ) :  -0.1199 B(  8-C ,  9-C ) :   0.9267
B(  8-C , 11-O ) :   0.1376 B(  8-C , 21-H ) :   0.9489 B(  9-C , 22-H ) :   0.9606
B(  9-C , 23-H ) :   0.9577 B( 10-C , 11-O ) :   1.8633 B( 10-C , 24-H ) :   1.0039

Dispersion correction           -0.008891761
FINAL SINGLE POINT ENERGY      -464.558018817191

DIPOLE MOMENT
-------------

Method             : SCF
Type of density    : Electron Density
Multiplicity       :   1
Irrep              :   0
Energy             :  -464.5586800063856003 Eh
Relativity type    :
Basis              : AO
                                X                 Y                 Z
Electronic contribution:    -10.824633587       1.736071419       0.162083730
Nuclear contribution   :     12.502509086      -2.306813241      -0.561572178
                        -----------------------------------------
Total Dipole Moment    :      1.677875499      -0.570741822      -0.399488448
                        -----------------------------------------
Magnitude (a.u.)       :      1.816756295
Magnitude (Debye)      :      4.617827517

Rotational constants in cm-1:             0.097732             0.018215             0.017091
Rotational constants in MHz :          2929.919436           546.082795           512.377036

                             ****ORCA TERMINATED NORMALLY****
TOTAL RUN TIME: 0 days 0 hours 1 minutes 12 seconds 278 msec
