                         Program Version 6.0.0  -   RELEASE  -
|  1> ! pbe def2-sv(p) def2/J RI DEFGRID1 loosescf d4 GCP(DFT/SV(P)) printgap
|  2> %output
|  3>     printlevel normal
|  4> end
|  5> * xyz 0 1
|  6> C -1.0621111937 -0.134807694 0.7215116416
|  7> C 0.2283463777 0.6134953187 0.3431804067
|  8> C 1.200714171 -0.2983078038 -0.4357204218
|  9> O 1.5832756485 -1.4388110989 0.2951585127
| 10> O -0.0673932273 1.7672650715 -0.4105350638
| 11> O -1.8471369587 -0.4159669725 -0.4172087433
| 12> H -1.6751792555 0.5095312359 1.3557147788
| 13> H -0.8080073535 -1.0464229732 1.2697242571
| 14> H 0.7175017238 0.9613795171 1.2603446439
| 15> H 2.0700140692 0.2977760648 -0.7376093619
| 16> H 0.7155199523 -0.6677514645 -1.3426449311
| 17> H 2.1575007469 -1.1761504185 1.0269923073
| 18> H -0.8059068701 1.5506577122 -1.0029412717
| 19> H -1.4859309566 -1.1893207824 -0.8705600759
| 20> *
| 21>
| 22>                          ****END OF INPUT****

CARTESIAN COORDINATES (ANGSTROEM)
---------------------------------
  C     -1.062111   -0.134808    0.721512
  C      0.228346    0.613495    0.343180
  C      1.200714   -0.298308   -0.435720
  O      1.583276   -1.438811    0.295159
  O     -0.067393    1.767265   -0.410535
  O     -1.847137   -0.415967   -0.417209
  H     -1.675179    0.509531    1.355715
  H     -0.808007   -1.046423    1.269724
  H      0.717502    0.961380    1.260345
  H      2.070014    0.297776   -0.737609
  H      0.715520   -0.667751   -1.342645
  H      2.157501   -1.176150    1.026992
  H     -0.805907    1.550658   -1.002941
  H     -1.485931   -1.189321   -0.870560

 Total Charge           Charge          ....    0
 Multiplicity           Mult            ....    1
 Number of Electrons    NEL             ....   50
 Basis Dimension        Dim             ....  100

ORBITAL ENERGIES
----------------

  NO   OCC          E(Eh)            E(eV)
   0   2.0000     -18.762309      -510.5484
   1   2.0000     -18.756484      -510.3899
   2   2.0000     -18.742120      -509.9990
   3   2.0000      -9.936059      -270.3739
   4   2.0000      -9.932935      -270.2889
   5   2.0000      -9.932650      -270.2811
   6   2.0000      -0.944099       -25.6902
   7   2.0000      -0.929918       -25.3044
   8   2.0000      -0.912163       -24.8212
   9   2.0000      -0.674595       -18.3567
  10   2.0000      -0.615305       -16.7433
  11   2.0000      -0.550160       -14.9706
  12   2.0000      -0.479937       -13.0597
  13   2.0000      -0.457640       -12.4530
  14   2.0000      -0.441384       -12.0107
  15   2.0000      -0.420250       -11.4356
  16   2.0000      -0.405633       -11.0378
  17   2.0000      -0.361436        -9.8352
  18   2.0000      -0.346833        -9.4378
  19   2.0000      -0.301217        -8.1965
  20   2.0000      -0.287119        -7.8129
  21   2.0000      -0.281166        -7.6509
  22   2.0000      -0.246697        -6.7130
  23   2.0000      -0.236469        -6.4347
  24   2.0000      -0.200445        -5.4544
  25   0.0000       0.010390         0.2827
  26   0.0000       0.023619         0.6427
  27   0.0000       0.060164         1.6372
  28   0.0000       0.081180         2.2090
  29   0.0000       0.091078         2.4783

MULLIKEN ATOMIC CHARGES
-----------------------
   0 C :    0.008124
   1 C :   -0.003676
   2 C :    0.006637
   3 O :   -0.433586
   4 O :   -0.432171
   5 O :   -0.444374
   6 H :    0.098555
   7 H :    0.083183
   8 H :    0.057746
   9 H :    0.092065
  10 H :    0.060707
  11 H :    0.300914
  12 H :    0.298209
  13 H :    0.307667
Sum of atomic charges:    0.0000000

LOEWDIN ATOMIC CHARGES
----------------------
   0 C :   -0.139851
   1 C :   -0.102827
   2 C :   -0.145731
   3 O :   -0.337941
   4 O :   -0.325864
   5 O :   -0.333195
   6 H :    0.116201
   7 H :    0.104465
   8 H :    0.106446
   9 H :    0.104032
  10 H :    0.100379
  11 H :    0.286738
  12 H :    0.278043
  13 H :    0.289104

  Mayer bond orders larger than 0.100000
B(  0-C ,  1-C ) :   1.0330 B(  0-C ,  5-O ) :   1.0478 B(  0-C ,  6-H ) :   0.9257
B(  0-C ,  7-H ) :   0.9151 B(  1-C ,  2-C ) :   1.0089 B(  1-C ,  4-O ) :   1.0497
B(  1-C ,  8-H ) :   0.8934 B(  2-C ,  3-O ) :   1.0571 B(  2-C ,  9-H ) :   0.9279
B(  2-C , 10-H ) :   0.9132 B(  3-O , 11-H ) :   0.8518 B(  4-O , 12-H ) :   0.8318
B(  5-O , 13-H ) :   0.8464

Dispersion correction           -0.009338795
FINAL SINGLE POINT ENERGY      -344.010521457002

DIPOLE MOMENT
-------------

Method             : SCF
Type of density    : Electron Density
Multiplicity       :   1
Irrep              :   0
Energy             :  -344.0844662120805992 Eh
Relativity type    :
Basis              : AO
                                X                 Y                 Z
Electronic contribution:     -0.498809520       0.317972953      -0.659707716
Nuclear contribution   :      0.825844264      -0.714593943       0.891817754
                        -----------------------------------------
Total Dipole Moment    :      0.327034744      -0.396620989       0.232110038
                        -----------------------------------------
Magnitude (a.u.)       :      0.564034575
Magnitude (Debye)      :      1.433661955

Rotational constants in cm-1:             0.150438             0.092494             0.068881
Rotational constants in MHz :          4510.030513          2772.904432          2065.000851

                             ****ORCA TERMINATED NORMALLY****
TOTAL RUN TIME: 0 days 0 hours 0 minutes 6 seconds 538 msec
