                         Program Version 6.0.0  -   RELEASE  -
|  1> ! r2scan-3c def2/J RI DEFGRID2 scfconv6 printgap
|  2> %output
|  3>     printlevel normal
|  4> end
|  5> * xyz 0 1
|  6> C 2.444428416 0.6366217467 -0.5272054633
|  7> C 1.0812204705 -0.0480146014 -0.3987029659
|  8> H 0.7619395235 -0.383145189 -1.3978236106
|  9> C 0.0506987324 0.9424601254 0.1563891375
| 10> C -1.416310307 0.4821469988 0.1816616794
| 11> C -1.8839834219 -0.050451944 -1.1716907259
| 12> C -1.6745088334 -0.5480200215 1.2786282914
| 13> O 1.1626994318 -1.1720778919 0.4635119633
| 14> H 3.1807149605 -0.0521886069 -0.9361193586
| 15> H 2.3724649502 1.4953120185 -1.187946679
| 16> H 2.7834355895 0.9706309103 0.4507508307
| 17> H 0.3500243927 1.1981329378 1.1748512814
| 18> H 0.1153558454 1.8456547241 -0.4534437211
| 19> H -2.0107362252 1.3749390931 0.4140010185
| 20> H -2.9638557697 -0.17894956 -1.1671066895
| 21> H -1.4318728474 -1.0167736092 -1.3799960343
| 22> H -1.6231874286 0.6409427576 -1.9698343116
| 23> H -2.7199927621 -0.8482526142 1.27598705
| 24> H -1.0549538088 -1.4265816543 1.1251627965
| 25> H -1.4368577333 -0.1319605026 2.2549591001
| 26> H 1.8860231844 -1.7414830876 0.1698268808
| 27> *
| 28>
| 29>                          ****END OF INPUT****

CARTESIAN COORDINATES (ANGSTROEM)
---------------------------------
  C      2.444428    0.636622   -0.527205
  C      1.081220   -0.048015   -0.398703
  H      0.761940   -0.383145   -1.397824
  C      0.050699    0.942460    0.156389
  C     -1.416310    0.482147    0.181662
  C     -1.883983   -0.050452   -1.171691
  C     -1.674509   -0.548020    1.278628
  O      1.162699   -1.172078    0.463512
  H      3.180715   -0.052189   -0.936119
  H      2.372465    1.495312   -1.187947
  H      2.783436    0.970631    0.450751
  H      0.350024    1.198133    1.174851
  H      0.115356    1.845655   -0.453444
  H     -2.010736    1.374939    0.414001
  H     -2.963856   -0.178950   -1.167107
  H     -1.431873   -1.016774   -1.379996
  H     -1.623187    0.640943   -1.969834
  H     -2.719993   -0.848253    1.275987
  H     -1.054954   -1.426582    1.125163
  H     -1.436858   -0.131961    2.254959
  H      1.886023   -1.741483    0.169827

 Total Charge           Charge          ....    0
 Multiplicity           Mult            ....    1
 Number of Electrons    NEL             ....   58
 Basis Dimension        Dim             ....  208

ORBITAL ENERGIES
----------------

  NO   OCC          E(Eh)            E(eV)
   0   2.0000     -18.946526      -515.5612
   1   2.0000     -10.080714      -274.3102
   2   2.0000     -10.027417      -272.8599
   3   2.0000     -10.020829      -272.6806
   4   2.0000     -10.020723      -272.6777
   5   2.0000     -10.010136      -272.3896
   6   2.0000      -9.998488      -272.0727
   7   2.0000      -0.984783       -26.7973
   8   2.0000      -0.771669       -20.9982
   9   2.0000      -0.720813       -19.6143
  10   2.0000      -0.647506       -17.6195
  11   2.0000      -0.639532       -17.4026
  12   2.0000      -0.571129       -15.5412
  13   2.0000      -0.508986       -13.8502
  14   2.0000      -0.479780       -13.0555
  15   2.0000      -0.433625       -11.7995
  16   2.0000      -0.410027       -11.1574
  17   2.0000      -0.401064       -10.9135
  18   2.0000      -0.382691       -10.4136
  19   2.0000      -0.375132       -10.2079
  20   2.0000      -0.350214        -9.5298
  21   2.0000      -0.342326        -9.3152
  22   2.0000      -0.332922        -9.0593
  23   2.0000      -0.326178        -8.8757
  24   2.0000      -0.310713        -8.4549
  25   2.0000      -0.288308        -7.8453
  26   2.0000      -0.286356        -7.7921
  27   2.0000      -0.263788        -7.1780
  28   2.0000      -0.234844        -6.3904
  29   0.0000       0.057630         1.5682
  30   0.0000       0.096232         2.6186
  31   0.0000       0.113346         3.0843
  32   0.0000       0.123067         3.3488
  33   0.0000       0.140454         3.8219

MULLIKEN ATOMIC CHARGES
-----------------------
   0 C :   -0.494886
   1 C :    0.030595
   2 H :    0.132579
   3 C :   -0.320829
   4 C :    0.016453
   5 C :   -0.536009
   6 C :   -0.515184
   7 O :   -0.407204
   8 H :    0.135643
   9 H :    0.146903
  10 H :    0.161191
  11 H :    0.156014
  12 H :    0.144561
  13 H :    0.146418
  14 H :    0.147392
  15 H :    0.159075
  16 H :    0.149705
  17 H :    0.136101
  18 H :    0.186000
  19 H :    0.139427
  20 H :    0.286054
Sum of atomic charges:   -0.0000000

LOEWDIN ATOMIC CHARGES
----------------------
   0 C :   -0.400215
   1 C :    0.047143
   2 H :    0.162284
   3 C :   -0.272154
   4 C :   -0.241061
   5 C :   -0.419918
   6 C :   -0.416351
   7 O :   -0.620638
   8 H :    0.149854
   9 H :    0.158106
  10 H :    0.162104
  11 H :    0.170385
  12 H :    0.164384
  13 H :    0.154003
  14 H :    0.153568
  15 H :    0.154526
  16 H :    0.152074
  17 H :    0.147920
  18 H :    0.173274
  19 H :    0.152781
  20 H :    0.267930

  Mayer bond orders larger than 0.100000
B(  0-C ,  1-C ) :   0.9146 B(  0-C ,  8-H ) :   0.9714 B(  0-C ,  9-H ) :   0.9731
B(  0-C , 10-H ) :   0.9842 B(  1-C ,  2-H ) :   0.9465 B(  1-C ,  3-C ) :   0.9513
B(  1-C ,  7-O ) :   0.8786 B(  3-C ,  4-C ) :   0.8974 B(  3-C , 11-H ) :   0.9835
B(  3-C , 12-H ) :   0.9717 B(  4-C ,  5-C ) :   0.8824 B(  4-C ,  6-C ) :   0.9205
B(  4-C , 13-H ) :   0.9746 B(  5-C , 14-H ) :   0.9687 B(  5-C , 15-H ) :   0.9769
B(  5-C , 16-H ) :   0.9806 B(  6-C , 17-H ) :   0.9754 B(  6-C , 18-H ) :   0.9766
B(  6-C , 19-H ) :   0.9711 B(  7-O , 20-H ) :   0.9021

Dispersion correction           -0.005634112
FINAL SINGLE POINT ENERGY      -312.201207947137

DIPOLE MOMENT
-------------

Method             : SCF
Type of density    : Electron Density
Multiplicity       :   1
Irrep              :   0
Energy             :  -312.2067722972582828 Eh
Relativity type    :
Basis              : AO
                                X                 Y                 Z
Electronic contribution:      2.068635337      -1.505814107       1.085923824
Nuclear contribution   :     -1.663462880       1.620899461      -1.519261268
                        -----------------------------------------
Total Dipole Moment    :      0.405172457       0.115085353      -0.433337444
                        -----------------------------------------
Magnitude (a.u.)       :      0.604310102
Magnitude (Debye)      :      1.536034209

Rotational constants in cm-1:             0.133483             0.054350             0.048323
Rotational constants in MHz :          4001.715330          1629.382610          1448.677261

                             ****ORCA TERMINATED NORMALLY****
TOTAL RUN TIME: 0 days 0 hours 0 minutes 30 seconds 662 msec
