                         Program Version 6.0.0  -   RELEASE  -
|  1> ! r2scan-3c def2/J RI DEFGRID2 scfconv6 printgap
|  2> %output
|  3>     printlevel normal
|  4> end
|  5> %cpcm
|  6>     smd true
|  7>     smdsolvent "water"
|  8> end
|  9> * xyz 0 1
| 10> C 2.444428416 0.6366217467 -0.5272054633
| 11> C 1.0812204705 -0.0480146014 -0.3987029659
| 12> H 0.7619395235 -0.383145189 -1.3978236106
| 13> C 0.0506987324 0.9424601254 0.1563891375
| 14> C -1.416310307 0.4821469988 0.1816616794
| 15> C -1.8839834219 -0.050451944 -1.1716907259
| 16> C -1.6745088334 -0.5480200215 1.2786282914
| 17> O 1.1626994318 -1.1720778919 0.4635119633
| 18> H 3.1807149605 -0.0521886069 -0.9361193586
| 19> H 2.3724649502 1.4953120185 -1.187946679
| 20> H 2.7834355895 0.9706309103 0.4507508307
| 21> H 0.3500243927 1.1981329378 1.1748512814
| 22> H 0.1153558454 1.8456547241 -0.4534437211
| 23> H -2.0107362252 1.3749390931 0.4140010185
| 24> H -2.9638557697 -0.17894956 -1.1671066895
| 25> H -1.4318728474 -1.0167736092 -1.3799960343
| 26> H -1.6231874286 0.6409427576 -1.9698343116
| 27> H -2.7199927621 -0.8482526142 1.27598705
| 28> H -1.0549538088 -1.4265816543 1.1251627965
| 29> H -1.4368577333 -0.1319605026 2.2549591001
| 30> H 1.8860231844 -1.7414830876 0.1698268808
| 31> *
| 32>
| 33>                          ****END OF INPUT****

CARTESIAN COORDINATES (ANGSTROEM)
---------------------------------
  C      2.444428    0.636622   -0.527205
  C      1.081220   -0.048015   -0.398703
  H      0.761940   -0.383145   -1.397824
  C      0.050699    0.942460    0.156389
  C     -1.416310    0.482147    0.181662
  C     -1.883983   -0.050452   -1.171691
  C     -1.674509   -0.548020    1.278628
  O      1.162699   -1.172078    0.463512
  H      3.180715   -0.052189   -0.936119
  H      2.372465    1.495312   -1.187947
  H      2.783436    0.970631    0.450751
  H      0.350024    1.198133    1.174851
  H      0.115356    1.845655   -0.453444
  H     -2.010736    1.374939    0.414001
  H     -2.963856   -0.178950   -1.167107
  H     -1.431873   -1.016774   -1.379996
  H     -1.623187    0.640943   -1.969834
  H     -2.719993   -0.848253    1.275987
  H     -1.054954   -1.426582    1.125163
  H     -1.436858   -0.131961    2.254959
  H      1.886023   -1.741483    0.169827

 Total Charge           Charge          ....    0
 Multiplicity           Mult            ....    1
 Number of Electrons    NEL             ....   58
 Basis Dimension        Dim             ....  208

ORBITAL ENERGIES
----------------

  NO   OCC          E(Eh)            E(eV)
   0   2.0000     -18.946584      -515.5628
   1   2.0000     -10.074062      -274.1292
   2   2.0000     -10.024473      -272.7798
   3   2.0000     -10.014396      -272.5056
   4   2.0000     -10.009110      -272.3617
   5   2.0000     -10.005542      -272.2646
   6   2.0000     -10.001332      -272.1501
   7   2.0000      -0.983993       -26.7758
   8   2.0000      -0.768098       -20.9010
   9   2.0000      -0.714285       -19.4367
  10   2.0000      -0.641151       -17.4466
  11   2.0000      -0.638730       -17.3807
  12   2.0000      -0.566147       -15.4057
  13   2.0000      -0.505910       -13.7665
  14   2.0000      -0.474237       -12.9047
  15   2.0000      -0.430486       -11.7141
  16   2.0000      -0.405481       -11.0337
  17   2.0000      -0.396305       -10.7840
  18   2.0000      -0.377415       -10.2700
  19   2.0000      -0.370497       -10.0817
  20   2.0000      -0.347070        -9.4443
  21   2.0000      -0.335538        -9.1305
  22   2.0000      -0.330589        -8.9958
  23   2.0000      -0.323161        -8.7937
  24   2.0000      -0.309546        -8.4232
  25   2.0000      -0.286209        -7.7881
  26   2.0000      -0.283385        -7.7113
  27   2.0000      -0.260464        -7.0876
  28   2.0000      -0.235719        -6.4143
  29   0.0000       0.072384         1.9697
  30   0.0000       0.105379         2.8675
  31   0.0000       0.122615         3.3365
  32   0.0000       0.130698         3.5565
  33   0.0000       0.141820         3.8591

MULLIKEN ATOMIC CHARGES
-----------------------
   0 C :   -0.540278
   1 C :    0.045484
   2 H :    0.144308
   3 C :   -0.341454
   4 C :    0.034982
   5 C :   -0.566344
   6 C :   -0.566519
   7 O :   -0.488046
   8 H :    0.160864
   9 H :    0.163838
  10 H :    0.163175
  11 H :    0.162648
  12 H :    0.164119
  13 H :    0.155848
  14 H :    0.158476
  15 H :    0.164233
  16 H :    0.163394
  17 H :    0.151217
  18 H :    0.174283
  19 H :    0.155692
  20 H :    0.340081
Sum of atomic charges:   -0.0000000

LOEWDIN ATOMIC CHARGES
----------------------
   0 C :   -0.404884
   1 C :    0.049757
   2 H :    0.168392
   3 C :   -0.275897
   4 C :   -0.240424
   5 C :   -0.426176
   6 C :   -0.427605
   7 O :   -0.652507
   8 H :    0.158367
   9 H :    0.163567
  10 H :    0.161601
  11 H :    0.169960
  12 H :    0.171565
  13 H :    0.157506
  14 H :    0.155605
  15 H :    0.155517
  16 H :    0.157030
  17 H :    0.151956
  18 H :    0.166086
  19 H :    0.155200
  20 H :    0.285381

  Mayer bond orders larger than 0.100000
B(  0-C ,  1-C ) :   0.9163 B(  0-C ,  8-H ) :   0.9677 B(  0-C ,  9-H ) :   0.9695
B(  0-C , 10-H ) :   0.9804 B(  1-C ,  2-H ) :   0.9437 B(  1-C ,  3-C ) :   0.9460
B(  1-C ,  7-O ) :   0.8672 B(  3-C ,  4-C ) :   0.8897 B(  3-C , 11-H ) :   0.9869
B(  3-C , 12-H ) :   0.9657 B(  4-C ,  5-C ) :   0.8841 B(  4-C ,  6-C ) :   0.9006
B(  4-C , 13-H ) :   0.9729 B(  5-C , 14-H ) :   0.9676 B(  5-C , 15-H ) :   0.9737
B(  5-C , 16-H ) :   0.9757 B(  6-C , 17-H ) :   0.9730 B(  6-C , 18-H ) :   0.9803
B(  6-C , 19-H ) :   0.9720 B(  7-O , 20-H ) :   0.8772

Dispersion correction           -0.005634112
FINAL SINGLE POINT ENERGY      -312.205699748988

DIPOLE MOMENT
-------------

Method             : SCF
Type of density    : Electron Density
Multiplicity       :   1
Irrep              :   0
Energy             :  -312.2112640991092576 Eh
Relativity type    :
Basis              : AO
                                X                 Y                 Z
Electronic contribution:      2.181669349      -1.404129937       0.833684991
Nuclear contribution   :     -1.663462880       1.620899461      -1.519261268
                        -----------------------------------------
Total Dipole Moment    :      0.518206469       0.216769524      -0.685576277
                        -----------------------------------------
Magnitude (a.u.)       :      0.886307962
Magnitude (Debye)      :      2.252815804

Rotational constants in cm-1:             0.133483             0.054350             0.048323
Rotational constants in MHz :          4001.715330          1629.382610          1448.677261

                             ****ORCA TERMINATED NORMALLY****
TOTAL RUN TIME: 0 days 0 hours 0 minutes 35 seconds 439 msec
