                         Program Version 6.0.0  -   RELEASE  -
|  1> ! wb97x-v def2-tzvp def2/J RIJCOSX DEFGRID2 scfconv7 GCP(DFT/TZ) printgap
|  2> %output
|  3>     printlevel normal
|  4> end
|  5> * xyz 0 1
|  6> C 2.5324207385792197 -0.049450131521868196 -0.12880553751516727
|  7> C 1.2642640365384927 0.7776566818401036 0.0069595154819134105
|  8> C -0.010311004044080373 0.010207630866687975 -0.23180152008292457
|  9> O -0.003571251262886034 -1.1245519426503658 -0.6991774961895215
| 10> C -1.2930838725241574 0.7121262063814452 0.1327748721619922
| 11> C -2.5547508149158245 -0.012656236176115531 -0.305343103486557
| 12> H 3.4116047833707817 0.5732085937013381 0.057079240473011675
| 13> H 2.5422925387189674 -0.8743724325714911 0.5898066814482601
| 14> H 2.6239453938503567 -0.47454458061492916 -1.1319724250074656
| 15> H 1.1929479677472283 1.2548389158926876 0.9921571685492216
| 16> H 1.2573745928528393 1.6086710340898236 -0.7132003021249637
| 17> H -1.2447517624943654 1.7297004537711116 -0.27525202059054027
| 18> H -1.2713093710386993 0.8429492257583803 1.2239755963612713
| 19> H -3.4406907570838734 0.5488659096710343 0.0035033733118422423
| 20> H -2.6125890873745226 -1.009538738716175 0.13993588192764359
| 21> H -2.5865191586916483 -0.126436465236106 -1.3930537191011214
| 22> *
| 23>
| 24>                          ****END OF INPUT****

CARTESIAN COORDINATES (ANGSTROEM)
---------------------------------
  C      2.532421   -0.049450   -0.128806
  C      1.264264    0.777657    0.006960
  C     -0.010311    0.010208   -0.231802
  O     -0.003571   -1.124552   -0.699177
  C     -1.293084    0.712126    0.132775
  C     -2.554751   -0.012656   -0.305343
  H      3.411605    0.573209    0.057079
  H      2.542293   -0.874372    0.589807
  H      2.623945   -0.474545   -1.131972
  H      1.192948    1.254839    0.992157
  H      1.257375    1.608671   -0.713200
  H     -1.244752    1.729700   -0.275252
  H     -1.271309    0.842949    1.223976
  H     -3.440691    0.548866    0.003503
  H     -2.612589   -1.009539    0.139936
  H     -2.586519   -0.126436   -1.393054

 Total Charge           Charge          ....    0
 Multiplicity           Mult            ....    1
 Number of Electrons    NEL             ....   48
 Basis Dimension        Dim             ....  246

ORBITAL ENERGIES
----------------

  NO   OCC          E(Eh)            E(eV)
   0   2.0000     -21.657527      -589.3313
   1   2.0000     -12.134117      -330.1861
   2   2.0000     -12.058073      -328.1169
   3   2.0000     -12.057615      -328.1044
   4   2.0000     -12.038172      -327.5753
   5   2.0000     -12.038015      -327.5710
   6   2.0000      -1.700980       -46.2860
   7   2.0000      -1.314246       -35.7624
   8   2.0000      -1.274420       -34.6787
   9   2.0000      -1.175047       -31.9746
  10   2.0000      -1.109867       -30.2010
  11   2.0000      -1.071351       -29.1529
  12   2.0000      -0.969420       -26.3793
  13   2.0000      -0.947096       -25.7718
  14   2.0000      -0.920696       -25.0534
  15   2.0000      -0.869766       -23.6675
  16   2.0000      -0.855826       -23.2882
  17   2.0000      -0.850719       -23.1492
  18   2.0000      -0.838348       -22.8126
  19   2.0000      -0.820323       -22.3221
  20   2.0000      -0.800541       -21.7838
  21   2.0000      -0.782730       -21.2992
  22   2.0000      -0.774205       -21.0672
  23   2.0000      -0.771073       -20.9820
  24   0.0000      -0.301865        -8.2142
  25   0.0000      -0.057928        -1.5763
  26   0.0000      -0.048598        -1.3224
  27   0.0000      -0.026915        -0.7324
  28   0.0000      -0.005016        -0.1365

MULLIKEN ATOMIC CHARGES
-----------------------
   0 C :   -0.317040
   1 C :   -0.179160
   2 C :    0.175066
   3 O :   -0.328294
   4 C :   -0.180964
   5 C :   -0.316593
   6 H :    0.112382
   7 H :    0.113159
   8 H :    0.121900
   9 H :    0.111355
  10 H :    0.114502
  11 H :    0.111751
  12 H :    0.114579
  13 H :    0.112343
  14 H :    0.121212
  15 H :    0.113801
Sum of atomic charges:   -0.0000000

LOEWDIN ATOMIC CHARGES
----------------------
   0 C :   -0.296462
   1 C :   -0.260822
   2 C :   -0.316174
   3 O :    0.112298
   4 C :   -0.261221
   5 C :   -0.296626
   6 H :    0.116576
   7 H :    0.122467
   8 H :    0.124156
   9 H :    0.145320
  10 H :    0.150729
  11 H :    0.146209
  12 H :    0.150125
  13 H :    0.116606
  14 H :    0.124174
  15 H :    0.122643

  Mayer bond orders larger than 0.100000
B(  0-C ,  1-C ) :   1.0038 B(  0-C ,  6-H ) :   0.9804 B(  0-C ,  7-H ) :   0.9781
B(  0-C ,  8-H ) :   0.9745 B(  1-C ,  2-C ) :   0.9755 B(  1-C ,  9-H ) :   0.9647
B(  1-C , 10-H ) :   0.9437 B(  2-C ,  3-O ) :   2.0914 B(  2-C ,  4-C ) :   0.9757
B(  4-C ,  5-C ) :   1.0046 B(  4-C , 11-H ) :   0.9613 B(  4-C , 12-H ) :   0.9465
B(  5-C , 13-H ) :   0.9804 B(  5-C , 14-H ) :   0.9748 B(  5-C , 15-H ) :   0.9777

FINAL SINGLE POINT ENERGY      -271.794688706138

DIPOLE MOMENT
-------------

Method             : SCF
Type of density    : Electron Density
Multiplicity       :   1
Irrep              :   0
Energy             :  -271.8053261514376118 Eh
Relativity type    :
Basis              : AO
                                X                 Y                 Z
Electronic contribution:      0.013847030      -2.382070323      -1.048335044
Nuclear contribution   :     -0.019045328       3.435642986       1.479565281
                        -----------------------------------------
Total Dipole Moment    :     -0.005198298       1.053572663       0.431230238
                        -----------------------------------------
Magnitude (a.u.)       :      1.138420791
Magnitude (Debye)      :      2.893635689

Rotational constants in cm-1:             0.296001             0.065257             0.055801
Rotational constants in MHz :          8873.900118          1956.361049          1672.878337

                             ****ORCA TERMINATED NORMALLY****
TOTAL RUN TIME: 0 days 0 hours 1 minutes 25 seconds 807 msec
