                         Program Version 6.0.0  -   RELEASE  -
|  1> ! wb97x-v def2-tzvp def2/J RIJCOSX DEFGRID2 scfconv7 GCP(DFT/TZ) printgap
|  2> %output
|  3>     printlevel normal
|  4> end
|  5> %cpcm
|  6>     smd true
|  7>     smdsolvent "water"
|  8> end
|  9> * xyz 0 1
| 10> C 2.5324207385792197 -0.049450131521868196 -0.12880553751516727
| 11> C 1.2642640365384927 0.7776566818401036 0.0069595154819134105
| 12> C -0.010311004044080373 0.010207630866687975 -0.23180152008292457
| 13> O -0.003571251262886034 -1.1245519426503658 -0.6991774961895215
| 14> C -1.2930838725241574 0.7121262063814452 0.1327748721619922
| 15> C -2.5547508149158245 -0.012656236176115531 -0.305343103486557
| 16> H 3.4116047833707817 0.5732085937013381 0.057079240473011675
| 17> H 2.5422925387189674 -0.8743724325714911 0.5898066814482601
| 18> H 2.6239453938503567 -0.47454458061492916 -1.1319724250074656
| 19> H 1.1929479677472283 1.2548389158926876 0.9921571685492216
| 20> H 1.2573745928528393 1.6086710340898236 -0.7132003021249637
| 21> H -1.2447517624943654 1.7297004537711116 -0.27525202059054027
| 22> H -1.2713093710386993 0.8429492257583803 1.2239755963612713
| 23> H -3.4406907570838734 0.5488659096710343 0.0035033733118422423
| 24> H -2.6125890873745226 -1.009538738716175 0.13993588192764359
| 25> H -2.5865191586916483 -0.126436465236106 -1.3930537191011214
| 26> *
| 27>
| 28>                          ****END OF INPUT****

CARTESIAN COORDINATES (ANGSTROEM)
---------------------------------
  C      2.532421   -0.049450   -0.128806
  C      1.264264    0.777657    0.006960
  C     -0.010311    0.010208   -0.231802
  O     -0.003571   -1.124552   -0.699177
  C     -1.293084    0.712126    0.132775
  C     -2.554751   -0.012656   -0.305343
  H      3.411605    0.573209    0.057079
  H      2.542293   -0.874372    0.589807
  H      2.623945   -0.474545   -1.131972
  H      1.192948    1.254839    0.992157
  H      1.257375    1.608671   -0.713200
  H     -1.244752    1.729700   -0.275252
  H     -1.271309    0.842949    1.223976
  H     -3.440691    0.548866    0.003503
  H     -2.612589   -1.009539    0.139936
  H     -2.586519   -0.126436   -1.393054

 Total Charge           Charge          ....    0
 Multiplicity           Mult            ....    1
 Number of Electrons    NEL             ....   48
 Basis Dimension        Dim             ....  246

ORBITAL ENERGIES
----------------

  NO   OCC          E(Eh)            E(eV)
   0   2.0000     -21.666516      -589.5759
   1   2.0000     -12.139688      -330.3377
   2   2.0000     -12.045458      -327.7736
   3   2.0000     -12.045020      -327.7617
   4   2.0000     -12.030227      -327.3591
   5   2.0000     -12.030058      -327.3545
   6   2.0000      -1.713364       -46.6230
   7   2.0000      -1.306222       -35.5441
   8   2.0000      -1.265292       -34.4303
   9   2.0000      -1.170168       -31.8419
  10   2.0000      -1.101762       -29.9805
  11   2.0000      -1.081365       -29.4254
  12   2.0000      -0.972746       -26.4698
  13   2.0000      -0.940966       -25.6050
  14   2.0000      -0.926084       -25.2000
  15   2.0000      -0.858481       -23.3605
  16   2.0000      -0.855627       -23.2828
  17   2.0000      -0.841358       -22.8945
  18   2.0000      -0.836732       -22.7686
  19   2.0000      -0.811590       -22.0845
  20   2.0000      -0.792541       -21.5661
  21   2.0000      -0.774561       -21.0769
  22   2.0000      -0.767227       -20.8773
  23   2.0000      -0.763268       -20.7696
  24   0.0000      -0.297792        -8.1033
  25   0.0000      -0.049979        -1.3600
  26   0.0000      -0.042627        -1.1599
  27   0.0000      -0.007426        -0.2021
  28   0.0000       0.006218         0.1692

MULLIKEN ATOMIC CHARGES
-----------------------
   0 C :   -0.384971
   1 C :   -0.190720
   2 C :    0.267026
   3 O :   -0.471472
   4 C :   -0.191498
   5 C :   -0.385057
   6 H :    0.135886
   7 H :    0.127472
   8 H :    0.125070
   9 H :    0.143072
  10 H :    0.146640
  11 H :    0.143468
  12 H :    0.146791
  13 H :    0.135787
  14 H :    0.125234
  15 H :    0.127271
Sum of atomic charges:   -0.0000000

LOEWDIN ATOMIC CHARGES
----------------------
   0 C :   -0.306454
   1 C :   -0.250699
   2 C :   -0.291018
   3 O :    0.032575
   4 C :   -0.250958
   5 C :   -0.306637
   6 H :    0.123057
   7 H :    0.122016
   8 H :    0.120773
   9 H :    0.157478
  10 H :    0.163001
  11 H :    0.158415
  12 H :    0.162490
  13 H :    0.123077
  14 H :    0.120988
  15 H :    0.121896

  Mayer bond orders larger than 0.100000
B(  0-C ,  1-C ) :   0.9817 B(  0-C ,  6-H ) :   0.9782 B(  0-C ,  7-H ) :   0.9776
B(  0-C ,  8-H ) :   0.9740 B(  1-C ,  2-C ) :   0.9992 B(  1-C ,  9-H ) :   0.9549
B(  1-C , 10-H ) :   0.9340 B(  2-C ,  3-O ) :   1.9211 B(  2-C ,  4-C ) :   0.9996
B(  4-C ,  5-C ) :   0.9819 B(  4-C , 11-H ) :   0.9515 B(  4-C , 12-H ) :   0.9366
B(  5-C , 13-H ) :   0.9781 B(  5-C , 14-H ) :   0.9745 B(  5-C , 15-H ) :   0.9773

FINAL SINGLE POINT ENERGY      -271.802094990606

DIPOLE MOMENT
-------------

Method             : SCF
Type of density    : Electron Density
Multiplicity       :   1
Irrep              :   0
Energy             :  -271.8127324359064687 Eh
Relativity type    :
Basis              : AO
                                X                 Y                 Z
Electronic contribution:      0.010194564      -1.774289205      -0.799803043
Nuclear contribution   :     -0.019045328       3.435642986       1.479565281
                        -----------------------------------------
Total Dipole Moment    :     -0.008850764       1.661353781       0.679762238
                        -----------------------------------------
Magnitude (a.u.)       :      1.795063069
Magnitude (Debye)      :      4.562687719

Rotational constants in cm-1:             0.296001             0.065257             0.055801
Rotational constants in MHz :          8873.900118          1956.361049          1672.878337

                             ****ORCA TERMINATED NORMALLY****
TOTAL RUN TIME: 0 days 0 hours 1 minutes 26 seconds 618 msec
