                         Program Version 6.0.0  -   RELEASE  -
|  1> ! r2scan-3c def2/J RI DEFGRID2 scfconv6 printgap
|  2> %output
|  3>     printlevel normal
|  4> end
|  5> * xyz 0 1
|  6> C -2.272560058 -0.2355102088 0.1500091619
|  7> O -0.9733917237 -0.2130683435 -0.3993421435
|  8> C -0.0934381518 0.6456324274 0.2971452003
|  9> C 1.3028886049 0.5141222047 -0.301008156
| 10> O 1.9280727407 -0.6286365858 0.2428532548
| 11> H -2.254007519 -0.5951954618 1.1845456904
| 12> H -2.8512918343 -0.9175353867 -0.4673154828
| 13> H -2.7231086068 0.7631408109 0.1259239674
| 14> H -0.4425581344 1.6849116964 0.211093953
| 15> H -0.0544109486 0.3678266228 1.3595275827
| 16> H 1.8814067531 1.4143432097 -0.0563481739
| 17> H 1.2015323013 0.4255666082 -1.38823368
| 18> H 2.7565781179 -0.7957749758 -0.2266843285
| 19> *
| 20>
| 21>                          ****END OF INPUT****

CARTESIAN COORDINATES (ANGSTROEM)
---------------------------------
  C     -2.272560   -0.235510    0.150009
  O     -0.973392   -0.213068   -0.399342
  C     -0.093438    0.645632    0.297145
  C      1.302889    0.514122   -0.301008
  O      1.928073   -0.628637    0.242853
  H     -2.254008   -0.595195    1.184546
  H     -2.851292   -0.917535   -0.467315
  H     -2.723109    0.763141    0.125924
  H     -0.442558    1.684912    0.211094
  H     -0.054411    0.367827    1.359528
  H      1.881407    1.414343   -0.056348
  H      1.201532    0.425567   -1.388234
  H      2.756578   -0.795775   -0.226684

 Total Charge           Charge          ....    0
 Multiplicity           Mult            ....    1
 Number of Electrons    NEL             ....   42
 Basis Dimension        Dim             ....  145

ORBITAL ENERGIES
----------------

  NO   OCC          E(Eh)            E(eV)
   0   2.0000     -18.948774      -515.6224
   1   2.0000     -18.947338      -515.5833
   2   2.0000     -10.077751      -274.2295
   3   2.0000     -10.075579      -274.1704
   4   2.0000     -10.068112      -273.9673
   5   2.0000      -0.998679       -27.1754
   6   2.0000      -0.980859       -26.6905
   7   2.0000      -0.719863       -19.5885
   8   2.0000      -0.636249       -17.3132
   9   2.0000      -0.568542       -15.4708
  10   2.0000      -0.491926       -13.3860
  11   2.0000      -0.461925       -12.5696
  12   2.0000      -0.426544       -11.6069
  13   2.0000      -0.424559       -11.5528
  14   2.0000      -0.389041       -10.5863
  15   2.0000      -0.359316        -9.7775
  16   2.0000      -0.355326        -9.6689
  17   2.0000      -0.302038        -8.2189
  18   2.0000      -0.281993        -7.6734
  19   2.0000      -0.239039        -6.5046
  20   2.0000      -0.218478        -5.9451
  21   0.0000       0.061933         1.6853
  22   0.0000       0.076720         2.0876
  23   0.0000       0.115498         3.1429
  24   0.0000       0.117515         3.1977
  25   0.0000       0.128841         3.5059

MULLIKEN ATOMIC CHARGES
-----------------------
   0 C :   -0.287966
   1 O :   -0.224426
   2 C :   -0.153156
   3 C :   -0.115325
   4 O :   -0.418336
   5 H :    0.133471
   6 H :    0.147328
   7 H :    0.127444
   8 H :    0.118037
   9 H :    0.134545
  10 H :    0.114771
  11 H :    0.131123
  12 H :    0.292490
Sum of atomic charges:    0.0000000

LOEWDIN ATOMIC CHARGES
----------------------
   0 C :   -0.073010
   1 O :   -0.786858
   2 C :    0.028364
   3 C :    0.026686
   4 O :   -0.613628
   5 H :    0.155566
   6 H :    0.174753
   7 H :    0.153263
   8 H :    0.163874
   9 H :    0.175407
  10 H :    0.157800
  11 H :    0.170267
  12 H :    0.267516

  Mayer bond orders larger than 0.100000
B(  0-C ,  1-O ) :   0.8932 B(  0-C ,  5-H ) :   0.9672 B(  0-C ,  6-H ) :   0.9730
B(  0-C ,  7-H ) :   0.9674 B(  1-O ,  2-C ) :   0.9217 B(  2-C ,  3-C ) :   1.0012
B(  2-C ,  8-H ) :   0.9410 B(  2-C ,  9-H ) :   0.9502 B(  3-C ,  4-O ) :   0.9513
B(  3-C , 10-H ) :   0.9493 B(  3-C , 11-H ) :   0.9685 B(  4-O , 12-H ) :   0.9003

Dispersion correction           -0.002355917
FINAL SINGLE POINT ENERGY      -269.489596887174

DIPOLE MOMENT
-------------

Method             : SCF
Type of density    : Electron Density
Multiplicity       :   1
Irrep              :   0
Energy             :  -269.4976638601364698 Eh
Relativity type    :
Basis              : AO
                                X                 Y                 Z
Electronic contribution:      2.422927058      -1.657749127      -0.770806814
Nuclear contribution   :     -2.317975379       2.189645754       0.694276115
                        -----------------------------------------
Total Dipole Moment    :      0.104951680       0.531896627      -0.076530699
                        -----------------------------------------
Magnitude (a.u.)       :      0.547527008
Magnitude (Debye)      :      1.391703055

Rotational constants in cm-1:             0.481730             0.083354             0.078619
Rotational constants in MHz :         14441.908100          2498.896400          2356.946292

                             ****ORCA TERMINATED NORMALLY****
TOTAL RUN TIME: 0 days 0 hours 0 minutes 15 seconds 114 msec
