                         Program Version 6.0.0  -   RELEASE  -
|  1> ! r2scan-3c def2/J RI DEFGRID2 scfconv6 printgap
|  2> %output
|  3>     printlevel normal
|  4> end
|  5> %cpcm
|  6>     smd true
|  7>     smdsolvent "water"
|  8> end
|  9> * xyz 0 1
| 10> C -2.272560058 -0.2355102088 0.1500091619
| 11> O -0.9733917237 -0.2130683435 -0.3993421435
| 12> C -0.0934381518 0.6456324274 0.2971452003
| 13> C 1.3028886049 0.5141222047 -0.301008156
| 14> O 1.9280727407 -0.6286365858 0.2428532548
| 15> H -2.254007519 -0.5951954618 1.1845456904
| 16> H -2.8512918343 -0.9175353867 -0.4673154828
| 17> H -2.7231086068 0.7631408109 0.1259239674
| 18> H -0.4425581344 1.6849116964 0.211093953
| 19> H -0.0544109486 0.3678266228 1.3595275827
| 20> H 1.8814067531 1.4143432097 -0.0563481739
| 21> H 1.2015323013 0.4255666082 -1.38823368
| 22> H 2.7565781179 -0.7957749758 -0.2266843285
| 23> *
| 24>
| 25>                          ****END OF INPUT****

CARTESIAN COORDINATES (ANGSTROEM)
---------------------------------
  C     -2.272560   -0.235510    0.150009
  O     -0.973392   -0.213068   -0.399342
  C     -0.093438    0.645632    0.297145
  C      1.302889    0.514122   -0.301008
  O      1.928073   -0.628637    0.242853
  H     -2.254008   -0.595195    1.184546
  H     -2.851292   -0.917535   -0.467315
  H     -2.723109    0.763141    0.125924
  H     -0.442558    1.684912    0.211094
  H     -0.054411    0.367827    1.359528
  H      1.881407    1.414343   -0.056348
  H      1.201532    0.425567   -1.388234
  H      2.756578   -0.795775   -0.226684

 Total Charge           Charge          ....    0
 Multiplicity           Mult            ....    1
 Number of Electrons    NEL             ....   42
 Basis Dimension        Dim             ....  145

ORBITAL ENERGIES
----------------

  NO   OCC          E(Eh)            E(eV)
   0   2.0000     -18.957602      -515.8626
   1   2.0000     -18.952459      -515.7226
   2   2.0000     -10.073360      -274.1101
   3   2.0000     -10.072146      -274.0770
   4   2.0000     -10.063020      -273.8287
   5   2.0000      -1.005257       -27.3544
   6   2.0000      -0.985431       -26.8149
   7   2.0000      -0.718515       -19.5518
   8   2.0000      -0.633397       -17.2356
   9   2.0000      -0.566411       -15.4128
  10   2.0000      -0.491161       -13.3652
  11   2.0000      -0.461542       -12.5592
  12   2.0000      -0.426959       -11.6181
  13   2.0000      -0.424993       -11.5646
  14   2.0000      -0.388294       -10.5660
  15   2.0000      -0.359028        -9.7696
  16   2.0000      -0.352630        -9.5956
  17   2.0000      -0.306044        -8.3279
  18   2.0000      -0.287736        -7.8297
  19   2.0000      -0.245908        -6.6915
  20   2.0000      -0.225420        -6.1340
  21   0.0000       0.072057         1.9608
  22   0.0000       0.082793         2.2529
  23   0.0000       0.124373         3.3844
  24   0.0000       0.127408         3.4670
  25   0.0000       0.136812         3.7228

MULLIKEN ATOMIC CHARGES
-----------------------
   0 C :   -0.305318
   1 O :   -0.298180
   2 C :   -0.162835
   3 C :   -0.127386
   4 O :   -0.504524
   5 H :    0.151351
   6 H :    0.162464
   7 H :    0.150387
   8 H :    0.147917
   9 H :    0.149597
  10 H :    0.142026
  11 H :    0.146187
  12 H :    0.348314
Sum of atomic charges:    0.0000000

LOEWDIN ATOMIC CHARGES
----------------------
   0 C :   -0.073625
   1 O :   -0.830503
   2 C :    0.027519
   3 C :    0.028557
   4 O :   -0.650122
   5 H :    0.163854
   6 H :    0.179648
   7 H :    0.163896
   8 H :    0.177027
   9 H :    0.180177
  10 H :    0.170529
  11 H :    0.175906
  12 H :    0.287137

  Mayer bond orders larger than 0.100000
B(  0-C ,  1-O ) :   0.8844 B(  0-C ,  5-H ) :   0.9612 B(  0-C ,  6-H ) :   0.9663
B(  0-C ,  7-H ) :   0.9624 B(  1-O ,  2-C ) :   0.9074 B(  2-C ,  3-C ) :   0.9822
B(  2-C ,  8-H ) :   0.9386 B(  2-C ,  9-H ) :   0.9474 B(  3-C ,  4-O ) :   0.9334
B(  3-C , 10-H ) :   0.9512 B(  3-C , 11-H ) :   0.9660 B(  4-O , 12-H ) :   0.8728

Dispersion correction           -0.002355917
FINAL SINGLE POINT ENERGY      -269.501222462724

DIPOLE MOMENT
-------------

Method             : SCF
Type of density    : Electron Density
Multiplicity       :   1
Irrep              :   0
Energy             :  -269.5092894356864690 Eh
Relativity type    :
Basis              : AO
                                X                 Y                 Z
Electronic contribution:      2.456777171      -1.349397053      -0.758296488
Nuclear contribution   :     -2.317975379       2.189645754       0.694276115
                        -----------------------------------------
Total Dipole Moment    :      0.138801792       0.840248701      -0.064020373
                        -----------------------------------------
Magnitude (a.u.)       :      0.854038890
Magnitude (Debye)      :      2.170794342

Rotational constants in cm-1:             0.481730             0.083354             0.078619
Rotational constants in MHz :         14441.908100          2498.896400          2356.946292

                             ****ORCA TERMINATED NORMALLY****
TOTAL RUN TIME: 0 days 0 hours 0 minutes 18 seconds 6 msec
