                         Program Version 6.0.0  -   RELEASE  -
|  1> ! r2scan-3c def2/J RI DEFGRID2 scfconv6 printgap
|  2> %output
|  3>     printlevel normal
|  4> end
|  5> * xyz 0 1
|  6> C 2.4241620477 -0.1728185391 -0.9025612798
|  7> C 1.2533648928 -0.2611753973 0.072459407
|  8> H 1.0722313878 -1.3213183827 0.310741798
|  9> C -0.0116891966 0.3613109646 -0.5339918537
| 10> C -1.3097241001 0.0338450872 0.2159885206
| 11> C -2.4126383882 1.0028886867 -0.2084668254
| 12> C -1.7552101557 -1.4043406275 -0.0422152163
| 13> O 1.6541627471 0.4112338162 1.2579348301
| 14> H 2.2186837466 -0.7605129632 -1.791568583
| 15> H 2.5902181746 0.8638928359 -1.1830065742
| 16> H 3.3245147935 -0.5480452258 -0.4236812592
| 17> H 0.1357665865 1.4438704858 -0.5492320968
| 18> H -0.1058748408 0.0218187436 -1.5664146345
| 19> H -1.1453259322 0.1582782342 1.2928231377
| 20> H -2.5897031212 0.9253283129 -1.2787565166
| 21> H -2.1341263512 2.0288839039 0.0203318883
| 22> H -3.3405056551 0.7752455842 0.3107655555
| 23> H -2.6644915246 -1.6230873874 0.5126549424
| 24> H -1.9556414802 -1.5507365558 -1.1012422241
| 25> H -0.992112308 -2.115489408 0.2634066236
| 26> H 0.9183800477 0.420818915 1.8838735567
| 27> *
| 28>
| 29>                          ****END OF INPUT****

CARTESIAN COORDINATES (ANGSTROEM)
---------------------------------
  C      2.424162   -0.172819   -0.902561
  C      1.253365   -0.261175    0.072459
  H      1.072231   -1.321318    0.310742
  C     -0.011689    0.361311   -0.533992
  C     -1.309724    0.033845    0.215989
  C     -2.412638    1.002889   -0.208467
  C     -1.755210   -1.404341   -0.042215
  O      1.654163    0.411234    1.257935
  H      2.218684   -0.760513   -1.791569
  H      2.590218    0.863893   -1.183007
  H      3.324515   -0.548045   -0.423681
  H      0.135767    1.443870   -0.549232
  H     -0.105875    0.021819   -1.566415
  H     -1.145326    0.158278    1.292823
  H     -2.589703    0.925328   -1.278757
  H     -2.134126    2.028884    0.020332
  H     -3.340506    0.775246    0.310766
  H     -2.664492   -1.623087    0.512655
  H     -1.955641   -1.550737   -1.101242
  H     -0.992112   -2.115489    0.263407
  H      0.918380    0.420819    1.883874

 Total Charge           Charge          ....    0
 Multiplicity           Mult            ....    1
 Number of Electrons    NEL             ....   58
 Basis Dimension        Dim             ....  208

ORBITAL ENERGIES
----------------

  NO   OCC          E(Eh)            E(eV)
   0   2.0000     -18.943121      -515.4685
   1   2.0000     -10.079026      -274.2642
   2   2.0000     -10.040832      -273.2249
   3   2.0000     -10.023148      -272.7437
   4   2.0000     -10.019931      -272.6562
   5   2.0000     -10.019170      -272.6355
   6   2.0000     -10.014428      -272.5064
   7   2.0000      -0.980839       -26.6900
   8   2.0000      -0.781661       -21.2701
   9   2.0000      -0.723535       -19.6884
  10   2.0000      -0.654563       -17.8116
  11   2.0000      -0.648596       -17.6492
  12   2.0000      -0.559996       -15.2383
  13   2.0000      -0.531716       -14.4687
  14   2.0000      -0.480178       -13.0663
  15   2.0000      -0.447596       -12.1797
  16   2.0000      -0.418127       -11.3778
  17   2.0000      -0.393708       -10.7133
  18   2.0000      -0.385244       -10.4830
  19   2.0000      -0.369669       -10.0592
  20   2.0000      -0.357493        -9.7279
  21   2.0000      -0.351744        -9.5714
  22   2.0000      -0.341287        -9.2869
  23   2.0000      -0.327981        -8.9248
  24   2.0000      -0.310423        -8.4470
  25   2.0000      -0.302736        -8.2379
  26   2.0000      -0.297637        -8.0991
  27   2.0000      -0.277007        -7.5377
  28   2.0000      -0.231602        -6.3022
  29   0.0000       0.056091         1.5263
  30   0.0000       0.094129         2.5614
  31   0.0000       0.100801         2.7429
  32   0.0000       0.117931         3.2091
  33   0.0000       0.120886         3.2895

MULLIKEN ATOMIC CHARGES
-----------------------
   0 C :   -0.503136
   1 C :    0.049493
   2 H :    0.125319
   3 C :   -0.301034
   4 C :   -0.013754
   5 C :   -0.468552
   6 C :   -0.506992
   7 O :   -0.423301
   8 H :    0.144294
   9 H :    0.150603
  10 H :    0.157860
  11 H :    0.162074
  12 H :    0.138437
  13 H :    0.116119
  14 H :    0.145723
  15 H :    0.149294
  16 H :    0.147571
  17 H :    0.147329
  18 H :    0.153437
  19 H :    0.145740
  20 H :    0.283477
Sum of atomic charges:   -0.0000000

LOEWDIN ATOMIC CHARGES
----------------------
   0 C :   -0.382724
   1 C :    0.050400
   2 H :    0.160565
   3 C :   -0.285131
   4 C :   -0.246296
   5 C :   -0.413922
   6 C :   -0.416536
   7 O :   -0.616533
   8 H :    0.155639
   9 H :    0.161366
  10 H :    0.162566
  11 H :    0.171228
  12 H :    0.165249
  13 H :    0.147520
  14 H :    0.155161
  15 H :    0.153781
  16 H :    0.152503
  17 H :    0.153691
  18 H :    0.154543
  19 H :    0.151756
  20 H :    0.265173

  Mayer bond orders larger than 0.100000
B(  0-C ,  1-C ) :   0.9297 B(  0-C ,  8-H ) :   0.9802 B(  0-C ,  9-H ) :   0.9791
B(  0-C , 10-H ) :   0.9719 B(  1-C ,  2-H ) :   0.9674 B(  1-C ,  3-C ) :   0.8999
B(  1-C ,  7-O ) :   0.8712 B(  3-C ,  4-C ) :   0.8862 B(  3-C , 11-H ) :   0.9766
B(  3-C , 12-H ) :   0.9678 B(  4-C ,  5-C ) :   0.9067 B(  4-C ,  6-C ) :   0.9102
B(  4-C , 13-H ) :   0.9576 B(  5-C , 14-H ) :   0.9807 B(  5-C , 15-H ) :   0.9805
B(  5-C , 16-H ) :   0.9776 B(  6-C , 17-H ) :   0.9717 B(  6-C , 18-H ) :   0.9897
B(  6-C , 19-H ) :   0.9715 B(  7-O , 20-H ) :   0.8969

Dispersion correction           -0.005487344
FINAL SINGLE POINT ENERGY      -312.203393421412

DIPOLE MOMENT
-------------

Method             : SCF
Type of density    : Electron Density
Multiplicity       :   1
Irrep              :   0
Energy             :  -312.2089983399212656 Eh
Relativity type    :
Basis              : AO
                                X                 Y                 Z
Electronic contribution:      3.771488958       0.985044816       2.946258745
Nuclear contribution   :     -4.354785696      -1.195734112      -3.076618379
                        -----------------------------------------
Total Dipole Moment    :     -0.583296738      -0.210689296      -0.130359634
                        -----------------------------------------
Magnitude (a.u.)       :      0.633733933
Magnitude (Debye)      :      1.610823644

Rotational constants in cm-1:             0.142935             0.045045             0.043538
Rotational constants in MHz :          4285.074123          1350.421274          1305.228424

                             ****ORCA TERMINATED NORMALLY****
TOTAL RUN TIME: 0 days 0 hours 0 minutes 29 seconds 585 msec
