                         Program Version 6.0.0  -   RELEASE  -
|  1> ! r2scan-3c def2/J RI DEFGRID2 scfconv6 printgap
|  2> %output
|  3>     printlevel normal
|  4> end
|  5> * xyz 0 1
|  6> C -2.3153794126 -0.1205041858 -1.0262544084
|  7> C -1.7697234122 0.6650398396 0.1606212627
|  8> C -0.5923983087 0.0126960459 0.8909227587
|  9> C 0.7650018287 -0.0929874119 0.1584693787
| 10> C 1.0983843629 1.1845096376 -0.6176724606
| 11> C 0.8386575653 -1.3130706664 -0.7613241415
| 12> O 1.7792906466 -0.3277446883 1.1421411746
| 13> H -3.2673153006 0.3014438138 -1.3412149562
| 14> H -2.4747619828 -1.1613810049 -0.7554831876
| 15> H -1.6382973961 -0.0818322876 -1.8748394441
| 16> H -1.4960805569 1.6696944545 -0.1632848965
| 17> H -2.5720715134 0.7706993149 0.8953645882
| 18> H -0.4169854822 0.5973561882 1.7993127403
| 19> H -0.8797120266 -0.9915884751 1.210526844
| 20> H 2.1286044763 1.1340590426 -0.9634264905
| 21> H 0.9862577385 2.0603673343 0.0182731403
| 22> H 0.4495968624 1.289820243 -1.4809206944
| 23> H 0.1274719463 -1.2397697559 -1.5743004882
| 24> H 0.6383658997 -2.2140383345 -0.1874163017
| 25> H 1.843390026 -1.3885174586 -1.1700246533
| 26> H 1.8683284379 0.4560152739 1.7005654896
| 27> *
| 28>
| 29>                          ****END OF INPUT****

CARTESIAN COORDINATES (ANGSTROEM)
---------------------------------
  C     -2.315379   -0.120504   -1.026254
  C     -1.769723    0.665040    0.160621
  C     -0.592398    0.012696    0.890923
  C      0.765002   -0.092987    0.158469
  C      1.098384    1.184510   -0.617672
  C      0.838658   -1.313071   -0.761324
  O      1.779291   -0.327745    1.142141
  H     -3.267315    0.301444   -1.341215
  H     -2.474762   -1.161381   -0.755483
  H     -1.638297   -0.081832   -1.874839
  H     -1.496081    1.669694   -0.163285
  H     -2.572072    0.770699    0.895365
  H     -0.416985    0.597356    1.799313
  H     -0.879712   -0.991588    1.210527
  H      2.128604    1.134059   -0.963426
  H      0.986258    2.060367    0.018273
  H      0.449597    1.289820   -1.480921
  H      0.127472   -1.239770   -1.574300
  H      0.638366   -2.214038   -0.187416
  H      1.843390   -1.388517   -1.170025
  H      1.868328    0.456015    1.700565

 Total Charge           Charge          ....    0
 Multiplicity           Mult            ....    1
 Number of Electrons    NEL             ....   58
 Basis Dimension        Dim             ....  208

ORBITAL ENERGIES
----------------

  NO   OCC          E(Eh)            E(eV)
   0   2.0000     -18.939108      -515.3593
   1   2.0000     -10.087025      -274.4819
   2   2.0000     -10.028330      -272.8847
   3   2.0000     -10.023137      -272.7434
   4   2.0000     -10.018694      -272.6225
   5   2.0000     -10.018640      -272.6210
   6   2.0000     -10.011784      -272.4345
   7   2.0000      -0.978373       -26.6229
   8   2.0000      -0.769939       -20.9511
   9   2.0000      -0.722595       -19.6628
  10   2.0000      -0.658070       -17.9070
  11   2.0000      -0.653781       -17.7903
  12   2.0000      -0.567982       -15.4556
  13   2.0000      -0.524356       -14.2684
  14   2.0000      -0.463206       -12.6045
  15   2.0000      -0.428925       -11.6716
  16   2.0000      -0.421995       -11.4831
  17   2.0000      -0.402769       -10.9599
  18   2.0000      -0.391915       -10.6646
  19   2.0000      -0.370626       -10.0852
  20   2.0000      -0.356205        -9.6928
  21   2.0000      -0.344718        -9.3802
  22   2.0000      -0.337755        -9.1908
  23   2.0000      -0.323748        -8.8096
  24   2.0000      -0.314280        -8.5520
  25   2.0000      -0.301685        -8.2093
  26   2.0000      -0.294344        -8.0095
  27   2.0000      -0.277348        -7.5470
  28   2.0000      -0.229692        -6.2502
  29   0.0000       0.063283         1.7220
  30   0.0000       0.086945         2.3659
  31   0.0000       0.104692         2.8488
  32   0.0000       0.122857         3.3431
  33   0.0000       0.126731         3.4485

MULLIKEN ATOMIC CHARGES
-----------------------
   0 C :   -0.480927
   1 C :   -0.253285
   2 C :   -0.249687
   3 C :    0.180965
   4 C :   -0.512455
   5 C :   -0.498789
   6 O :   -0.412919
   7 H :    0.145980
   8 H :    0.152139
   9 H :    0.140983
  10 H :    0.148681
  11 H :    0.139767
  12 H :    0.136136
  13 H :    0.151613
  14 H :    0.167697
  15 H :    0.148466
  16 H :    0.156512
  17 H :    0.147116
  18 H :    0.159665
  19 H :    0.153311
  20 H :    0.279031
Sum of atomic charges:    0.0000000

LOEWDIN ATOMIC CHARGES
----------------------
   0 C :   -0.426380
   1 C :   -0.312436
   2 C :   -0.276730
   3 C :    0.062349
   4 C :   -0.391156
   5 C :   -0.369860
   6 O :   -0.611290
   7 H :    0.151121
   8 H :    0.151964
   9 H :    0.145119
  10 H :    0.153532
  11 H :    0.153961
  12 H :    0.164174
  13 H :    0.165250
  14 H :    0.166950
  15 H :    0.156656
  16 H :    0.159920
  17 H :    0.157771
  18 H :    0.165657
  19 H :    0.165645
  20 H :    0.267783

  Mayer bond orders larger than 0.100000
B(  0-C ,  1-C ) :   0.8842 B(  0-C ,  7-H ) :   0.9684 B(  0-C ,  8-H ) :   0.9826
B(  0-C ,  9-H ) :   0.9810 B(  1-C ,  2-C ) :   0.8890 B(  1-C , 10-H ) :   0.9755
B(  1-C , 11-H ) :   0.9574 B(  2-C ,  3-C ) :   0.8949 B(  2-C , 12-H ) :   0.9678
B(  2-C , 13-H ) :   0.9850 B(  3-C ,  4-C ) :   0.9225 B(  3-C ,  5-C ) :   0.9532
B(  3-C ,  6-O ) :   0.8409 B(  4-C , 14-H ) :   0.9746 B(  4-C , 15-H ) :   0.9701
B(  4-C , 16-H ) :   0.9679 B(  5-C , 17-H ) :   0.9649 B(  5-C , 18-H ) :   0.9774
B(  5-C , 19-H ) :   0.9692 B(  6-O , 20-H ) :   0.9018

Dispersion correction           -0.005874916
FINAL SINGLE POINT ENERGY      -312.203538819478

DIPOLE MOMENT
-------------

Method             : SCF
Type of density    : Electron Density
Multiplicity       :   1
Irrep              :   0
Energy             :  -312.2088818078681243 Eh
Relativity type    :
Basis              : AO
                                X                 Y                 Z
Electronic contribution:      4.000178443      -0.617530427       3.554556056
Nuclear contribution   :     -4.385973067       1.123116643      -3.629567902
                        -----------------------------------------
Total Dipole Moment    :     -0.385794625       0.505586216      -0.075011846
                        -----------------------------------------
Magnitude (a.u.)       :      0.640376211
Magnitude (Debye)      :      1.627706973

Rotational constants in cm-1:             0.127829             0.056176             0.053625
Rotational constants in MHz :          3832.222339          1684.111116          1607.643257

                             ****ORCA TERMINATED NORMALLY****
TOTAL RUN TIME: 0 days 0 hours 0 minutes 25 seconds 414 msec
