                         Program Version 6.0.0  -   RELEASE  -
|  1> ! r2scan-3c def2/J RI DEFGRID2 scfconv6 printgap
|  2> %output
|  3>     printlevel normal
|  4> end
|  5> %cpcm
|  6>     smd true
|  7>     smdsolvent "water"
|  8> end
|  9> * xyz 0 1
| 10> C -2.3153794126 -0.1205041858 -1.0262544084
| 11> C -1.7697234122 0.6650398396 0.1606212627
| 12> C -0.5923983087 0.0126960459 0.8909227587
| 13> C 0.7650018287 -0.0929874119 0.1584693787
| 14> C 1.0983843629 1.1845096376 -0.6176724606
| 15> C 0.8386575653 -1.3130706664 -0.7613241415
| 16> O 1.7792906466 -0.3277446883 1.1421411746
| 17> H -3.2673153006 0.3014438138 -1.3412149562
| 18> H -2.4747619828 -1.1613810049 -0.7554831876
| 19> H -1.6382973961 -0.0818322876 -1.8748394441
| 20> H -1.4960805569 1.6696944545 -0.1632848965
| 21> H -2.5720715134 0.7706993149 0.8953645882
| 22> H -0.4169854822 0.5973561882 1.7993127403
| 23> H -0.8797120266 -0.9915884751 1.210526844
| 24> H 2.1286044763 1.1340590426 -0.9634264905
| 25> H 0.9862577385 2.0603673343 0.0182731403
| 26> H 0.4495968624 1.289820243 -1.4809206944
| 27> H 0.1274719463 -1.2397697559 -1.5743004882
| 28> H 0.6383658997 -2.2140383345 -0.1874163017
| 29> H 1.843390026 -1.3885174586 -1.1700246533
| 30> H 1.8683284379 0.4560152739 1.7005654896
| 31> *
| 32>
| 33>                          ****END OF INPUT****

CARTESIAN COORDINATES (ANGSTROEM)
---------------------------------
  C     -2.315379   -0.120504   -1.026254
  C     -1.769723    0.665040    0.160621
  C     -0.592398    0.012696    0.890923
  C      0.765002   -0.092987    0.158469
  C      1.098384    1.184510   -0.617672
  C      0.838658   -1.313071   -0.761324
  O      1.779291   -0.327745    1.142141
  H     -3.267315    0.301444   -1.341215
  H     -2.474762   -1.161381   -0.755483
  H     -1.638297   -0.081832   -1.874839
  H     -1.496081    1.669694   -0.163285
  H     -2.572072    0.770699    0.895365
  H     -0.416985    0.597356    1.799313
  H     -0.879712   -0.991588    1.210527
  H      2.128604    1.134059   -0.963426
  H      0.986258    2.060367    0.018273
  H      0.449597    1.289820   -1.480921
  H      0.127472   -1.239770   -1.574300
  H      0.638366   -2.214038   -0.187416
  H      1.843390   -1.388517   -1.170025
  H      1.868328    0.456015    1.700565

 Total Charge           Charge          ....    0
 Multiplicity           Mult            ....    1
 Number of Electrons    NEL             ....   58
 Basis Dimension        Dim             ....  208

ORBITAL ENERGIES
----------------

  NO   OCC          E(Eh)            E(eV)
   0   2.0000     -18.944496      -515.5060
   1   2.0000     -10.083203      -274.3779
   2   2.0000     -10.017577      -272.5921
   3   2.0000     -10.014359      -272.5046
   4   2.0000     -10.008038      -272.3325
   5   2.0000     -10.007364      -272.3142
   6   2.0000     -10.006903      -272.3017
   7   2.0000      -0.982316       -26.7302
   8   2.0000      -0.762121       -20.7384
   9   2.0000      -0.714856       -19.4522
  10   2.0000      -0.651403       -17.7256
  11   2.0000      -0.644535       -17.5387
  12   2.0000      -0.560374       -15.2486
  13   2.0000      -0.520240       -14.1564
  14   2.0000      -0.457205       -12.4412
  15   2.0000      -0.420975       -11.4553
  16   2.0000      -0.416254       -11.3269
  17   2.0000      -0.394753       -10.7418
  18   2.0000      -0.382669       -10.4130
  19   2.0000      -0.362218        -9.8565
  20   2.0000      -0.351582        -9.5670
  21   2.0000      -0.338900        -9.2219
  22   2.0000      -0.331310        -9.0154
  23   2.0000      -0.317261        -8.6331
  24   2.0000      -0.307076        -8.3559
  25   2.0000      -0.293908        -7.9976
  26   2.0000      -0.287049        -7.8110
  27   2.0000      -0.274186        -7.4610
  28   2.0000      -0.234370        -6.3775
  29   0.0000       0.078971         2.1489
  30   0.0000       0.096707         2.6315
  31   0.0000       0.117910         3.2085
  32   0.0000       0.131624         3.5817
  33   0.0000       0.136471         3.7136

MULLIKEN ATOMIC CHARGES
-----------------------
   0 C :   -0.522938
   1 C :   -0.261898
   2 C :   -0.284104
   3 C :    0.233102
   4 C :   -0.550249
   5 C :   -0.549138
   6 O :   -0.508696
   7 H :    0.154370
   8 H :    0.159324
   9 H :    0.160170
  10 H :    0.158056
  11 H :    0.148564
  12 H :    0.157453
  13 H :    0.156236
  14 H :    0.167215
  15 H :    0.170564
  16 H :    0.175627
  17 H :    0.170513
  18 H :    0.168067
  19 H :    0.160833
  20 H :    0.336929
Sum of atomic charges:    0.0000000

LOEWDIN ATOMIC CHARGES
----------------------
   0 C :   -0.434448
   1 C :   -0.311596
   2 C :   -0.279390
   3 C :    0.064401
   4 C :   -0.393592
   5 C :   -0.380336
   6 O :   -0.650416
   7 H :    0.152708
   8 H :    0.153202
   9 H :    0.150565
  10 H :    0.156800
  11 H :    0.156286
  12 H :    0.170788
  13 H :    0.165186
  14 H :    0.165846
  15 H :    0.164646
  16 H :    0.166494
  17 H :    0.166391
  18 H :    0.165315
  19 H :    0.164979
  20 H :    0.286171

  Mayer bond orders larger than 0.100000
B(  0-C ,  1-C ) :   0.8712 B(  0-C ,  7-H ) :   0.9665 B(  0-C ,  8-H ) :   0.9798
B(  0-C ,  9-H ) :   0.9783 B(  1-C ,  2-C ) :   0.8915 B(  1-C , 10-H ) :   0.9771
B(  1-C , 11-H ) :   0.9582 B(  2-C ,  3-C ) :   0.8878 B(  2-C , 12-H ) :   0.9696
B(  2-C , 13-H ) :   0.9801 B(  3-C ,  4-C ) :   0.9170 B(  3-C ,  5-C ) :   0.9464
B(  3-C ,  6-O ) :   0.8193 B(  4-C , 14-H ) :   0.9708 B(  4-C , 15-H ) :   0.9671
B(  4-C , 16-H ) :   0.9637 B(  5-C , 17-H ) :   0.9602 B(  5-C , 18-H ) :   0.9748
B(  5-C , 19-H ) :   0.9693 B(  6-O , 20-H ) :   0.8761

Dispersion correction           -0.005874916
FINAL SINGLE POINT ENERGY      -312.210048570066

DIPOLE MOMENT
-------------

Method             : SCF
Type of density    : Electron Density
Multiplicity       :   1
Irrep              :   0
Energy             :  -312.2153915584562469 Eh
Relativity type    :
Basis              : AO
                                X                 Y                 Z
Electronic contribution:      3.825787488      -0.337735421       3.510906334
Nuclear contribution   :     -4.385973067       1.123116643      -3.629567902
                        -----------------------------------------
Total Dipole Moment    :     -0.560185579       0.785381223      -0.118661568
                        -----------------------------------------
Magnitude (a.u.)       :      0.971963022
Magnitude (Debye)      :      2.470533665

Rotational constants in cm-1:             0.127829             0.056176             0.053625
Rotational constants in MHz :          3832.222339          1684.111116          1607.643257

                             ****ORCA TERMINATED NORMALLY****
TOTAL RUN TIME: 0 days 0 hours 0 minutes 30 seconds 271 msec
