                         Program Version 6.0.0  -   RELEASE  -
|  1> ! pbe def2-sv(p) def2/J RI DEFGRID1 loosescf d4 GCP(DFT/SV(P)) printgap
|  2> %output
|  3>     printlevel normal
|  4> end
|  5> * xyz 0 1
|  6> C 0.2195431366 -0.0635448979 -0.5495403603
|  7> H 0.1486231366 0.213472227 -1.6097844357
|  8> C 1.5577232563 0.4260456215 0.0228847192
|  9> F 2.5906848376 -0.056293883 -0.6699458584
| 10> F 1.7305141984 0.0758019351 1.2939822176
| 11> F 1.6395955852 1.7586111903 -0.0370697673
| 12> O -0.77124872 0.50982982 0.2326185845
| 13> C -2.0666046368 0.3658100184 -0.1815524633
| 14> F -2.7424966782 1.4568993943 0.2055670591
| 15> F -2.6555102309 -0.6774400984 0.4471787433
| 16> Cl 0.202596863 -1.8598217294 -0.4475858211
| 17> H -2.1924297654 0.224761658 -1.2673510632
| 18> *
| 19>
| 20>                          ****END OF INPUT****

CARTESIAN COORDINATES (ANGSTROEM)
---------------------------------
  C      0.219543   -0.063545   -0.549540
  H      0.148623    0.213472   -1.609784
  C      1.557723    0.426046    0.022885
  F      2.590685   -0.056294   -0.669946
  F      1.730514    0.075802    1.293982
  F      1.639596    1.758611   -0.037070
  O     -0.771249    0.509830    0.232619
  C     -2.066605    0.365810   -0.181552
  F     -2.742497    1.456899    0.205567
  F     -2.655510   -0.677440    0.447179
  Cl     0.202597   -1.859822   -0.447586
  H     -2.192430    0.224762   -1.267351

 Total Charge           Charge          ....    0
 Multiplicity           Mult            ....    1
 Number of Electrons    NEL             ....   90
 Basis Dimension        Dim             ....  148

ORBITAL ENERGIES
----------------

  NO   OCC          E(Eh)            E(eV)
   0   2.0000    -100.657968     -2739.0426
   1   2.0000     -24.310118      -661.5119
   2   2.0000     -24.309009      -661.4818
   3   2.0000     -24.308771      -661.4753
   4   2.0000     -24.291675      -661.0101
   5   2.0000     -24.283871      -660.7977
   6   2.0000     -18.839754      -512.6558
   7   2.0000     -10.147869      -276.1376
   8   2.0000     -10.116591      -275.2864
   9   2.0000     -10.047051      -273.3942
  10   2.0000      -9.194139      -250.1852
  11   2.0000      -7.025934      -191.1854
  12   2.0000      -7.013818      -190.8557
  13   2.0000      -7.013406      -190.8445
  14   2.0000      -1.216431       -33.1008
  15   2.0000      -1.171343       -31.8739
  16   2.0000      -1.121469       -30.5167
  17   2.0000      -1.120843       -30.4997
  18   2.0000      -1.095616       -29.8132
  19   2.0000      -1.028143       -27.9772
  20   2.0000      -0.811432       -22.0802
  21   2.0000      -0.714730       -19.4488
  22   2.0000      -0.641803       -17.4643
  23   2.0000      -0.606549       -16.5051
  24   2.0000      -0.566312       -15.4101
  25   2.0000      -0.555618       -15.1191
  26   2.0000      -0.546841       -14.8803
  27   2.0000      -0.526904       -14.3378
  28   2.0000      -0.518989       -14.1224
  29   2.0000      -0.504462       -13.7271
  30   2.0000      -0.452405       -12.3106
  31   2.0000      -0.419050       -11.4029
  32   2.0000      -0.416544       -11.3347
  33   2.0000      -0.396530       -10.7901
  34   2.0000      -0.394550       -10.7363
  35   2.0000      -0.377807       -10.2806
  36   2.0000      -0.376851       -10.2546
  37   2.0000      -0.372097       -10.1253
  38   2.0000      -0.357896        -9.7388
  39   2.0000      -0.356078        -9.6894
  40   2.0000      -0.352774        -9.5995
  41   2.0000      -0.329497        -8.9661
  42   2.0000      -0.309895        -8.4327
  43   2.0000      -0.289035        -7.8650
  44   2.0000      -0.285112        -7.7583
  45   0.0000      -0.033917        -0.9229
  46   0.0000       0.011006         0.2995
  47   0.0000       0.044407         1.2084
  48   0.0000       0.061691         1.6787
  49   0.0000       0.083400         2.2694

MULLIKEN ATOMIC CHARGES
-----------------------
   0 C :   -0.048857
   1 H :    0.150945
   2 C :    0.441120
   3 F :   -0.123972
   4 F :   -0.114151
   5 F :   -0.126786
   6 O :   -0.225468
   7 C :    0.360458
   8 F :   -0.146942
   9 F :   -0.159207
  10 Cl:   -0.076865
  11 H :    0.069724
Sum of atomic charges:   -0.0000000

LOEWDIN ATOMIC CHARGES
----------------------
   0 C :   -0.155878
   1 H :    0.130474
   2 C :    0.072092
   3 F :   -0.030494
   4 F :   -0.020470
   5 F :   -0.031319
   6 O :   -0.086794
   7 C :    0.080305
   8 F :   -0.054346
   9 F :   -0.072011
  10 Cl:    0.079770
  11 H :    0.088670

  Mayer bond orders larger than 0.100000
B(  0-C ,  1-H ) :   0.8819 B(  0-C ,  2-C ) :   0.9104 B(  0-C ,  6-O ) :   1.0360
B(  0-C , 10-Cl) :   1.0627 B(  2-C ,  3-F ) :   1.1794 B(  2-C ,  4-F ) :   1.2006
B(  2-C ,  5-F ) :   1.1794 B(  6-O ,  7-C ) :   1.0548 B(  7-C ,  8-F ) :   1.1540
B(  7-C ,  9-F ) :   1.1532 B(  7-C , 11-H ) :   0.9138

Dispersion correction           -0.011268624
FINAL SINGLE POINT ENERGY     -1148.544575002914

DIPOLE MOMENT
-------------

Method             : SCF
Type of density    : Electron Density
Multiplicity       :   1
Irrep              :   0
Energy             : -1148.6219797357416610 Eh
Relativity type    :
Basis              : AO
                                X                 Y                 Z
Electronic contribution:      2.599593901      -0.481047026       2.269663720
Nuclear contribution   :     -2.722228451       0.545239261      -3.243724472
                        -----------------------------------------
Total Dipole Moment    :     -0.122634549       0.064192235      -0.974060752
                        -----------------------------------------
Magnitude (a.u.)       :      0.983846647
Magnitude (Debye)      :      2.500739439

Rotational constants in cm-1:             0.056478             0.025338             0.019731
Rotational constants in MHz :          1693.174086           759.621681           591.528490

                             ****ORCA TERMINATED NORMALLY****
TOTAL RUN TIME: 0 days 0 hours 0 minutes 7 seconds 92 msec
