                         Program Version 6.0.0  -   RELEASE  -
|  1> ! r2scan-3c def2/J RI DEFGRID2 scfconv6 printgap
|  2> %output
|  3>     printlevel normal
|  4> end
|  5> * xyz 0 1
|  6> C -3.0138481571 0.2724557241 -0.2057313396
|  7> C -1.5657683928 0.1982466187 -0.6787959731
|  8> C -0.6149670615 0.0171406488 0.5019576042
|  9> C 0.8808592284 -0.0912570674 0.146446913
| 10> C 1.38316387 1.1584328964 -0.57830332
| 11> C 1.1690911867 -1.3417584231 -0.6916349627
| 12> O 1.6297883686 -0.1489787873 1.3630697825
| 13> H -3.1496693345 1.1088307911 0.4762092678
| 14> H -3.2942922982 -0.6411133646 0.3138166607
| 15> H -3.6840540207 0.4060956607 -1.0512102882
| 16> H -1.4598365609 -0.6381290085 -1.3708932854
| 17> H -1.319534089 1.1153145751 -1.214720385
| 18> H -0.7296953737 0.8617663642 1.1865594898
| 19> H -0.9032392045 -0.8871123736 1.0464326409
| 20> H 1.1293832088 2.0458775046 -0.0048889433
| 21> H 0.9502381982 1.2299997229 -1.5700451997
| 22> H 2.4653177343 1.106185615 -0.6651225233
| 23> H 0.7429857092 -1.243141735 -1.6847292785
| 24> H 0.7513476268 -2.2270683183 -0.2166655032
| 25> H 2.244718299 -1.4711868563 -0.7871039578
| 26> H 1.3762547529 -0.9428236107 1.8525120473
| 27> *
| 28>
| 29>                          ****END OF INPUT****

CARTESIAN COORDINATES (ANGSTROEM)
---------------------------------
  C     -3.013848    0.272456   -0.205731
  C     -1.565768    0.198247   -0.678796
  C     -0.614967    0.017141    0.501958
  C      0.880859   -0.091257    0.146447
  C      1.383164    1.158433   -0.578303
  C      1.169091   -1.341758   -0.691635
  O      1.629788   -0.148979    1.363070
  H     -3.149669    1.108831    0.476209
  H     -3.294292   -0.641113    0.313817
  H     -3.684054    0.406096   -1.051210
  H     -1.459837   -0.638129   -1.370893
  H     -1.319534    1.115315   -1.214720
  H     -0.729695    0.861766    1.186559
  H     -0.903239   -0.887112    1.046433
  H      1.129383    2.045878   -0.004889
  H      0.950238    1.230000   -1.570045
  H      2.465318    1.106186   -0.665123
  H      0.742986   -1.243142   -1.684729
  H      0.751348   -2.227068   -0.216666
  H      2.244718   -1.471187   -0.787104
  H      1.376255   -0.942824    1.852512

 Total Charge           Charge          ....    0
 Multiplicity           Mult            ....    1
 Number of Electrons    NEL             ....   58
 Basis Dimension        Dim             ....  208

ORBITAL ENERGIES
----------------

  NO   OCC          E(Eh)            E(eV)
   0   2.0000     -18.939854      -515.3796
   1   2.0000     -10.086483      -274.4672
   2   2.0000     -10.027682      -272.8671
   3   2.0000     -10.022911      -272.7373
   4   2.0000     -10.018394      -272.6143
   5   2.0000     -10.017074      -272.5784
   6   2.0000     -10.013457      -272.4800
   7   2.0000      -0.979185       -26.6450
   8   2.0000      -0.771485       -20.9932
   9   2.0000      -0.725441       -19.7402
  10   2.0000      -0.657079       -17.8800
  11   2.0000      -0.647666       -17.6239
  12   2.0000      -0.569104       -15.4861
  13   2.0000      -0.526256       -14.3202
  14   2.0000      -0.461424       -12.5560
  15   2.0000      -0.439694       -11.9647
  16   2.0000      -0.419460       -11.4141
  17   2.0000      -0.406586       -11.0638
  18   2.0000      -0.379865       -10.3367
  19   2.0000      -0.367553       -10.0016
  20   2.0000      -0.353028        -9.6064
  21   2.0000      -0.343501        -9.3471
  22   2.0000      -0.335772        -9.1368
  23   2.0000      -0.332692        -9.0530
  24   2.0000      -0.314942        -8.5700
  25   2.0000      -0.301014        -8.1910
  26   2.0000      -0.298588        -8.1250
  27   2.0000      -0.278355        -7.5744
  28   2.0000      -0.229562        -6.2467
  29   0.0000       0.063858         1.7377
  30   0.0000       0.088115         2.3977
  31   0.0000       0.110133         2.9969
  32   0.0000       0.116218         3.1625
  33   0.0000       0.126889         3.4528

MULLIKEN ATOMIC CHARGES
-----------------------
   0 C :   -0.479043
   1 C :   -0.263247
   2 C :   -0.270267
   3 C :    0.209614
   4 C :   -0.517016
   5 C :   -0.504367
   6 O :   -0.407057
   7 H :    0.145486
   8 H :    0.143003
   9 H :    0.146093
  10 H :    0.145207
  11 H :    0.148498
  12 H :    0.160219
  13 H :    0.127442
  14 H :    0.156223
  15 H :    0.154787
  16 H :    0.159565
  17 H :    0.156436
  18 H :    0.142141
  19 H :    0.165551
  20 H :    0.280730
Sum of atomic charges:    0.0000000

LOEWDIN ATOMIC CHARGES
----------------------
   0 C :   -0.422032
   1 C :   -0.311326
   2 C :   -0.278926
   3 C :    0.057734
   4 C :   -0.372831
   5 C :   -0.391668
   6 O :   -0.607195
   7 H :    0.150823
   8 H :    0.149626
   9 H :    0.149972
  10 H :    0.153002
  11 H :    0.154645
  12 H :    0.169064
  13 H :    0.157907
  14 H :    0.164817
  15 H :    0.157755
  16 H :    0.168118
  17 H :    0.159026
  18 H :    0.155854
  19 H :    0.166490
  20 H :    0.269145

  Mayer bond orders larger than 0.100000
B(  0-C ,  1-C ) :   0.8965 B(  0-C ,  7-H ) :   0.9849 B(  0-C ,  8-H ) :   0.9854
B(  0-C ,  9-H ) :   0.9723 B(  1-C ,  2-C ) :   0.9042 B(  1-C , 10-H ) :   0.9672
B(  1-C , 11-H ) :   0.9664 B(  2-C ,  3-C ) :   0.9061 B(  2-C , 12-H ) :   0.9833
B(  2-C , 13-H ) :   0.9733 B(  3-C ,  4-C ) :   0.9227 B(  3-C ,  5-C ) :   0.9533
B(  3-C ,  6-O ) :   0.8877 B(  4-C , 14-H ) :   0.9713 B(  4-C , 15-H ) :   0.9770
B(  4-C , 16-H ) :   0.9668 B(  5-C , 17-H ) :   0.9740 B(  5-C , 18-H ) :   0.9651
B(  5-C , 19-H ) :   0.9718 B(  6-O , 20-H ) :   0.9023

Dispersion correction           -0.005608904
FINAL SINGLE POINT ENERGY      -312.207553851603

DIPOLE MOMENT
-------------

Method             : SCF
Type of density    : Electron Density
Multiplicity       :   1
Irrep              :   0
Energy             :  -312.2129073064680256 Eh
Relativity type    :
Basis              : AO
                                X                 Y                 Z
Electronic contribution:      4.124873310      -0.189342511       3.206411778
Nuclear contribution   :     -4.554121482      -0.167801549      -3.441453058
                        -----------------------------------------
Total Dipole Moment    :     -0.429248172      -0.357144060      -0.235041279
                        -----------------------------------------
Magnitude (a.u.)       :      0.605846743
Magnitude (Debye)      :      1.539940039

Rotational constants in cm-1:             0.140279             0.047262             0.046963
Rotational constants in MHz :          4205.461416          1416.885083          1407.926877

                             ****ORCA TERMINATED NORMALLY****
TOTAL RUN TIME: 0 days 0 hours 0 minutes 26 seconds 961 msec
