                         Program Version 6.0.0  -   RELEASE  -
|  1> ! r2scan-3c def2/J RI DEFGRID2 scfconv6 printgap
|  2> %output
|  3>     printlevel normal
|  4> end
|  5> %cpcm
|  6>     smd true
|  7>     smdsolvent "water"
|  8> end
|  9> * xyz 0 1
| 10> C -3.0138481571 0.2724557241 -0.2057313396
| 11> C -1.5657683928 0.1982466187 -0.6787959731
| 12> C -0.6149670615 0.0171406488 0.5019576042
| 13> C 0.8808592284 -0.0912570674 0.146446913
| 14> C 1.38316387 1.1584328964 -0.57830332
| 15> C 1.1690911867 -1.3417584231 -0.6916349627
| 16> O 1.6297883686 -0.1489787873 1.3630697825
| 17> H -3.1496693345 1.1088307911 0.4762092678
| 18> H -3.2942922982 -0.6411133646 0.3138166607
| 19> H -3.6840540207 0.4060956607 -1.0512102882
| 20> H -1.4598365609 -0.6381290085 -1.3708932854
| 21> H -1.319534089 1.1153145751 -1.214720385
| 22> H -0.7296953737 0.8617663642 1.1865594898
| 23> H -0.9032392045 -0.8871123736 1.0464326409
| 24> H 1.1293832088 2.0458775046 -0.0048889433
| 25> H 0.9502381982 1.2299997229 -1.5700451997
| 26> H 2.4653177343 1.106185615 -0.6651225233
| 27> H 0.7429857092 -1.243141735 -1.6847292785
| 28> H 0.7513476268 -2.2270683183 -0.2166655032
| 29> H 2.244718299 -1.4711868563 -0.7871039578
| 30> H 1.3762547529 -0.9428236107 1.8525120473
| 31> *
| 32>
| 33>                          ****END OF INPUT****

CARTESIAN COORDINATES (ANGSTROEM)
---------------------------------
  C     -3.013848    0.272456   -0.205731
  C     -1.565768    0.198247   -0.678796
  C     -0.614967    0.017141    0.501958
  C      0.880859   -0.091257    0.146447
  C      1.383164    1.158433   -0.578303
  C      1.169091   -1.341758   -0.691635
  O      1.629788   -0.148979    1.363070
  H     -3.149669    1.108831    0.476209
  H     -3.294292   -0.641113    0.313817
  H     -3.684054    0.406096   -1.051210
  H     -1.459837   -0.638129   -1.370893
  H     -1.319534    1.115315   -1.214720
  H     -0.729695    0.861766    1.186559
  H     -0.903239   -0.887112    1.046433
  H      1.129383    2.045878   -0.004889
  H      0.950238    1.230000   -1.570045
  H      2.465318    1.106186   -0.665123
  H      0.742986   -1.243142   -1.684729
  H      0.751348   -2.227068   -0.216666
  H      2.244718   -1.471187   -0.787104
  H      1.376255   -0.942824    1.852512

 Total Charge           Charge          ....    0
 Multiplicity           Mult            ....    1
 Number of Electrons    NEL             ....   58
 Basis Dimension        Dim             ....  208

ORBITAL ENERGIES
----------------

  NO   OCC          E(Eh)            E(eV)
   0   2.0000     -18.945094      -515.5222
   1   2.0000     -10.082677      -274.3636
   2   2.0000     -10.016919      -272.5742
   3   2.0000     -10.013796      -272.4893
   4   2.0000     -10.008413      -272.3428
   5   2.0000     -10.008173      -272.3362
   6   2.0000     -10.007430      -272.3160
   7   2.0000      -0.983020       -26.7493
   8   2.0000      -0.763799       -20.7840
   9   2.0000      -0.718019       -19.5383
  10   2.0000      -0.650490       -17.7007
  11   2.0000      -0.639390       -17.3987
  12   2.0000      -0.561279       -15.2732
  13   2.0000      -0.521744       -14.1974
  14   2.0000      -0.456873       -12.4321
  15   2.0000      -0.430464       -11.7135
  16   2.0000      -0.413074       -11.2403
  17   2.0000      -0.401493       -10.9252
  18   2.0000      -0.370856       -10.0915
  19   2.0000      -0.360432        -9.8078
  20   2.0000      -0.348411        -9.4807
  21   2.0000      -0.337671        -9.1885
  22   2.0000      -0.327997        -8.9253
  23   2.0000      -0.326870        -8.8946
  24   2.0000      -0.309473        -8.4212
  25   2.0000      -0.292648        -7.9634
  26   2.0000      -0.290285        -7.8991
  27   2.0000      -0.275910        -7.5079
  28   2.0000      -0.234166        -6.3720
  29   0.0000       0.078766         2.1433
  30   0.0000       0.098903         2.6913
  31   0.0000       0.119389         3.2488
  32   0.0000       0.128274         3.4905
  33   0.0000       0.135779         3.6947

MULLIKEN ATOMIC CHARGES
-----------------------
   0 C :   -0.521101
   1 C :   -0.266827
   2 C :   -0.292147
   3 C :    0.247066
   4 C :   -0.560012
   5 C :   -0.547342
   6 O :   -0.501809
   7 H :    0.155463
   8 H :    0.155608
   9 H :    0.155810
  10 H :    0.156701
  11 H :    0.156527
  12 H :    0.157046
  13 H :    0.153005
  14 H :    0.166113
  15 H :    0.177160
  16 H :    0.165356
  17 H :    0.174688
  18 H :    0.165219
  19 H :    0.165896
  20 H :    0.337581
Sum of atomic charges:    0.0000000

LOEWDIN ATOMIC CHARGES
----------------------
   0 C :   -0.430717
   1 C :   -0.310534
   2 C :   -0.279512
   3 C :    0.059297
   4 C :   -0.382649
   5 C :   -0.395216
   6 O :   -0.645811
   7 H :    0.152562
   8 H :    0.152472
   9 H :    0.152192
  10 H :    0.156907
  11 H :    0.156983
  12 H :    0.167495
  13 H :    0.166020
  14 H :    0.165430
  15 H :    0.166664
  16 H :    0.166923
  17 H :    0.165389
  18 H :    0.163676
  19 H :    0.165317
  20 H :    0.287112

  Mayer bond orders larger than 0.100000
B(  0-C ,  1-C ) :   0.8840 B(  0-C ,  7-H ) :   0.9832 B(  0-C ,  8-H ) :   0.9829
B(  0-C ,  9-H ) :   0.9698 B(  1-C ,  2-C ) :   0.9090 B(  1-C , 10-H ) :   0.9666
B(  1-C , 11-H ) :   0.9649 B(  2-C ,  3-C ) :   0.9094 B(  2-C , 12-H ) :   0.9777
B(  2-C , 13-H ) :   0.9727 B(  3-C ,  4-C ) :   0.9267 B(  3-C ,  5-C ) :   0.9447
B(  3-C ,  6-O ) :   0.8640 B(  4-C , 14-H ) :   0.9684 B(  4-C , 15-H ) :   0.9693
B(  4-C , 16-H ) :   0.9668 B(  5-C , 17-H ) :   0.9685 B(  5-C , 18-H ) :   0.9642
B(  5-C , 19-H ) :   0.9680 B(  6-O , 20-H ) :   0.8767

Dispersion correction           -0.005608904
FINAL SINGLE POINT ENERGY      -312.213511097162

DIPOLE MOMENT
-------------

Method             : SCF
Type of density    : Electron Density
Multiplicity       :   1
Irrep              :   0
Energy             :  -312.2188645520274690 Eh
Relativity type    :
Basis              : AO
                                X                 Y                 Z
Electronic contribution:      3.913511071      -0.399824122       3.087961928
Nuclear contribution   :     -4.554121482      -0.167801549      -3.441453058
                        -----------------------------------------
Total Dipole Moment    :     -0.640610411      -0.567625671      -0.353491129
                        -----------------------------------------
Magnitude (a.u.)       :      0.926032710
Magnitude (Debye)      :      2.353788090

Rotational constants in cm-1:             0.140279             0.047262             0.046963
Rotational constants in MHz :          4205.461416          1416.885083          1407.926877

                             ****ORCA TERMINATED NORMALLY****
TOTAL RUN TIME: 0 days 0 hours 0 minutes 31 seconds 880 msec
