                         Program Version 6.0.0  -   RELEASE  -
|  1> ! r2scan-3c def2/J RI DEFGRID2 scfconv6 printgap
|  2> %output
|  3>     printlevel normal
|  4> end
|  5> * xyz 0 1
|  6> C 2.2120434403 0.7730877464 -0.5499978823
|  7> C 1.690453785 -0.434940146 0.2200018195
|  8> C 0.3046240552 -0.1952510651 0.8216472484
|  9> C -0.8202155296 -0.1334714944 -0.2315587793
| 10> C -1.5488229086 1.2086372185 -0.1870102272
| 11> C -1.8153619119 -1.276669447 -0.0364956688
| 12> H 3.1992806173 0.5675757859 -0.9571938628
| 13> H 1.5491804332 1.025600226 -1.3738802331
| 14> H 2.2847062893 1.6369533423 0.1073275556
| 15> H 1.6520588404 -1.3031274223 -0.4420447856
| 16> H 2.3899654815 -0.666778462 1.026666338
| 17> H 0.090460582 -0.9980331057 1.5297794106
| 18> H 0.3298601919 0.7365487099 1.3898239161
| 19> H -0.3771118004 -0.2451055903 -1.2267472218
| 20> H -0.8536258986 2.0279209175 -0.3547307992
| 21> H -2.0226983765 1.3498948996 0.7822933858
| 22> H -2.3195624381 1.250585956 -0.9538447078
| 23> H -2.583046136 -1.2507763326 -0.8070711682
| 24> H -1.3087432007 -2.2377835072 -0.0901329126
| 25> H -2.3014866598 -1.1950619543 0.9337588797
| 26> *
| 27>
| 28>                          ****END OF INPUT****

CARTESIAN COORDINATES (ANGSTROEM)
---------------------------------
  C      2.212043    0.773088   -0.549998
  C      1.690454   -0.434940    0.220002
  C      0.304624   -0.195251    0.821647
  C     -0.820216   -0.133471   -0.231559
  C     -1.548823    1.208637   -0.187010
  C     -1.815362   -1.276669   -0.036496
  H      3.199281    0.567576   -0.957194
  H      1.549180    1.025600   -1.373880
  H      2.284706    1.636953    0.107328
  H      1.652059   -1.303127   -0.442045
  H      2.389965   -0.666778    1.026666
  H      0.090461   -0.998033    1.529779
  H      0.329860    0.736549    1.389824
  H     -0.377112   -0.245106   -1.226747
  H     -0.853626    2.027921   -0.354731
  H     -2.022698    1.349895    0.782293
  H     -2.319562    1.250586   -0.953845
  H     -2.583046   -1.250776   -0.807071
  H     -1.308743   -2.237784   -0.090133
  H     -2.301487   -1.195062    0.933759

 Total Charge           Charge          ....    0
 Multiplicity           Mult            ....    1
 Number of Electrons    NEL             ....   50
 Basis Dimension        Dim             ....  184

ORBITAL ENERGIES
----------------

  NO   OCC          E(Eh)            E(eV)
   0   2.0000     -10.029049      -272.9043
   1   2.0000     -10.022302      -272.7207
   2   2.0000     -10.017110      -272.5794
   3   2.0000     -10.013803      -272.4894
   4   2.0000     -10.012415      -272.4517
   5   2.0000     -10.012020      -272.4409
   6   2.0000      -0.778460       -21.1830
   7   2.0000      -0.726413       -19.7667
   8   2.0000      -0.647281       -17.6134
   9   2.0000      -0.640794       -17.4369
  10   2.0000      -0.558280       -15.1916
  11   2.0000      -0.521303       -14.1854
  12   2.0000      -0.427152       -11.6234
  13   2.0000      -0.422640       -11.5006
  14   2.0000      -0.405818       -11.0429
  15   2.0000      -0.387866       -10.5544
  16   2.0000      -0.373327       -10.1587
  17   2.0000      -0.354492        -9.6462
  18   2.0000      -0.341986        -9.3059
  19   2.0000      -0.328826        -8.9478
  20   2.0000      -0.310623        -8.4525
  21   2.0000      -0.306506        -8.3405
  22   2.0000      -0.284552        -7.7430
  23   2.0000      -0.280999        -7.6464
  24   2.0000      -0.274049        -7.4572
  25   0.0000       0.083214         2.2644
  26   0.0000       0.105534         2.8717
  27   0.0000       0.112036         3.0487
  28   0.0000       0.118138         3.2147
  29   0.0000       0.132391         3.6025

MULLIKEN ATOMIC CHARGES
-----------------------
   0 C :   -0.480802
   1 C :   -0.256302
   2 C :   -0.297188
   3 C :    0.005550
   4 C :   -0.507056
   5 C :   -0.513634
   6 H :    0.145738
   7 H :    0.145832
   8 H :    0.145967
   9 H :    0.139043
  10 H :    0.138848
  11 H :    0.150743
  12 H :    0.151433
  13 H :    0.150319
  14 H :    0.149412
  15 H :    0.149885
  16 H :    0.141742
  17 H :    0.142572
  18 H :    0.146758
  19 H :    0.151141
Sum of atomic charges:   -0.0000000

LOEWDIN ATOMIC CHARGES
----------------------
   0 C :   -0.427751
   1 C :   -0.313070
   2 C :   -0.304195
   3 C :   -0.250894
   4 C :   -0.418924
   5 C :   -0.418194
   6 H :    0.150104
   7 H :    0.148922
   8 H :    0.149557
   9 H :    0.150692
  10 H :    0.150504
  11 H :    0.158936
  12 H :    0.157808
  13 H :    0.153944
  14 H :    0.152459
  15 H :    0.152647
  16 H :    0.151139
  17 H :    0.151167
  18 H :    0.152372
  19 H :    0.152778

  Mayer bond orders larger than 0.100000
B(  0-C ,  1-C ) :   0.9035 B(  0-C ,  6-H ) :   0.9714 B(  0-C ,  7-H ) :   0.9764
B(  0-C ,  8-H ) :   0.9842 B(  1-C ,  2-C ) :   0.8808 B(  1-C ,  9-H ) :   0.9804
B(  1-C , 10-H ) :   0.9715 B(  2-C ,  3-C ) :   0.8073 B(  2-C , 11-H ) :   0.9734
B(  2-C , 12-H ) :   0.9931 B(  3-C ,  4-C ) :   0.8969 B(  3-C ,  5-C ) :   0.8975
B(  3-C , 13-H ) :   0.9689 B(  4-C , 14-H ) :   0.9743 B(  4-C , 15-H ) :   0.9862
B(  4-C , 16-H ) :   0.9763 B(  5-C , 17-H ) :   0.9769 B(  5-C , 18-H ) :   0.9760
B(  5-C , 19-H ) :   0.9886

Dispersion correction           -0.005037799
FINAL SINGLE POINT ENERGY      -236.983972605131

DIPOLE MOMENT
-------------

Method             : SCF
Type of density    : Electron Density
Multiplicity       :   1
Irrep              :   0
Energy             :  -236.9884010068554403 Eh
Relativity type    :
Basis              : AO
                                X                 Y                 Z
Electronic contribution:      0.294898681      -0.681695526       0.402282633
Nuclear contribution   :     -0.254018466       0.655224395      -0.409034712
                        -----------------------------------------
Total Dipole Moment    :      0.040880215      -0.026471131      -0.006752079
                        -----------------------------------------
Magnitude (a.u.)       :      0.049168113
Magnitude (Debye)      :      0.124975410

Rotational constants in cm-1:             0.179744             0.067984             0.056989
Rotational constants in MHz :          5388.587381          2038.099445          1708.484932

                             ****ORCA TERMINATED NORMALLY****
TOTAL RUN TIME: 0 days 0 hours 0 minutes 17 seconds 479 msec
