                         Program Version 6.0.0  -   RELEASE  -
|  1> ! pbe def2-sv(p) def2/J RI DEFGRID1 loosescf d4 GCP(DFT/SV(P)) printgap
|  2> %output
|  3>     printlevel normal
|  4> end
|  5> * xyz 0 1
|  6> C -0.2831883897 -2.5584653278 0.3742708164
|  7> C -0.04616384 -1.1203577151 -0.0463703321
|  8> O 1.2398485102 -0.7370483303 0.423264187
|  9> C 1.7956016483 0.3797093321 -0.0741052644
| 10> O 1.2649384689 1.0409661346 -0.9385859082
| 11> C 3.1095693378 0.6680152173 0.5677757421
| 12> O -0.9947602182 -0.2768207843 0.590282726
| 13> C -1.788269761 0.6139001697 -0.0326886295
| 14> O -2.4544207103 1.3316368279 0.6780342145
| 15> C -1.8335971111 0.6594347854 -1.5274013211
| 16> H 0.4927874848 -3.1874349987 -0.0487049912
| 17> H -1.2568329725 -2.8827278222 0.0224393356
| 18> H -0.2516461057 -2.6182679164 1.4576457752
| 19> H -0.0739424006 -0.9908603635 -1.134572551
| 20> H 3.6025197669 -0.2614439643 0.8328381259
| 21> H 3.7194786979 1.2698028072 -0.0982365163
| 22> H 2.924279962 1.2321064867 1.4802292188
| 23> H -0.8638895575 0.9811285837 -1.9071311531
| 24> H -2.0814066127 -0.31494827 -1.9406301827
| 25> H -2.5881510481 1.3843842542 -1.8160946804
| 26> *
| 27>
| 28>                          ****END OF INPUT****

CARTESIAN COORDINATES (ANGSTROEM)
---------------------------------
  C     -0.283188   -2.558465    0.374271
  C     -0.046164   -1.120358   -0.046370
  O      1.239849   -0.737048    0.423264
  C      1.795602    0.379709   -0.074105
  O      1.264938    1.040966   -0.938586
  C      3.109569    0.668015    0.567776
  O     -0.994760   -0.276821    0.590283
  C     -1.788270    0.613900   -0.032689
  O     -2.454421    1.331637    0.678034
  C     -1.833597    0.659435   -1.527401
  H      0.492787   -3.187435   -0.048705
  H     -1.256833   -2.882728    0.022439
  H     -0.251646   -2.618268    1.457646
  H     -0.073942   -0.990860   -1.134573
  H      3.602520   -0.261444    0.832838
  H      3.719479    1.269803   -0.098237
  H      2.924280    1.232106    1.480229
  H     -0.863890    0.981129   -1.907131
  H     -2.081407   -0.314948   -1.940630
  H     -2.588151    1.384384   -1.816095

 Total Charge           Charge          ....    0
 Multiplicity           Mult            ....    1
 Number of Electrons    NEL             ....   78
 Basis Dimension        Dim             ....  160

ORBITAL ENERGIES
----------------

  NO   OCC          E(Eh)            E(eV)
   0   2.0000     -18.816024      -512.0100
   1   2.0000     -18.801886      -511.6253
   2   2.0000     -18.753979      -510.3217
   3   2.0000     -18.724928      -509.5312
   4   2.0000     -10.029507      -272.9167
   5   2.0000     -10.022204      -272.7180
   6   2.0000     -10.011663      -272.4312
   7   2.0000      -9.906791      -269.5775
   8   2.0000      -9.903019      -269.4748
   9   2.0000      -9.893549      -269.2171
  10   2.0000      -1.038021       -28.2460
  11   2.0000      -0.995305       -27.0836
  12   2.0000      -0.934320       -25.4241
  13   2.0000      -0.907114       -24.6838
  14   2.0000      -0.732563       -19.9341
  15   2.0000      -0.684579       -18.6283
  16   2.0000      -0.673040       -18.3143
  17   2.0000      -0.608823       -16.5669
  18   2.0000      -0.566903       -15.4262
  19   2.0000      -0.523570       -14.2471
  20   2.0000      -0.457446       -12.4477
  21   2.0000      -0.449583       -12.2338
  22   2.0000      -0.439571       -11.9613
  23   2.0000      -0.426875       -11.6158
  24   2.0000      -0.420225       -11.4349
  25   2.0000      -0.397307       -10.8113
  26   2.0000      -0.384887       -10.4733
  27   2.0000      -0.380282       -10.3480
  28   2.0000      -0.371243       -10.1020
  29   2.0000      -0.365117        -9.9353
  30   2.0000      -0.358988        -9.7686
  31   2.0000      -0.347726        -9.4621
  32   2.0000      -0.336412        -9.1542
  33   2.0000      -0.326855        -8.8942
  34   2.0000      -0.300744        -8.1837
  35   2.0000      -0.286534        -7.7970
  36   2.0000      -0.260080        -7.0771
  37   2.0000      -0.237965        -6.4754
  38   2.0000      -0.211993        -5.7686
  39   0.0000      -0.041918        -1.1406
  40   0.0000      -0.020915        -0.5691
  41   0.0000       0.030533         0.8308
  42   0.0000       0.049069         1.3352
  43   0.0000       0.069014         1.8780

MULLIKEN ATOMIC CHARGES
-----------------------
   0 C :   -0.217944
   1 C :    0.117283
   2 O :   -0.227157
   3 C :    0.105329
   4 O :   -0.202164
   5 C :   -0.242059
   6 O :   -0.212986
   7 C :    0.098608
   8 O :   -0.170736
   9 C :   -0.334878
  10 H :    0.116853
  11 H :    0.116067
  12 H :    0.127367
  13 H :    0.095732
  14 H :    0.127220
  15 H :    0.131811
  16 H :    0.148817
  17 H :    0.166133
  18 H :    0.125401
  19 H :    0.131304
Sum of atomic charges:    0.0000000

LOEWDIN ATOMIC CHARGES
----------------------
   0 C :   -0.343523
   1 C :    0.037147
   2 O :   -0.066331
   3 C :    0.048486
   4 O :   -0.157997
   5 C :   -0.356038
   6 O :   -0.066704
   7 C :    0.041526
   8 O :   -0.146069
   9 C :   -0.385912
  10 H :    0.133670
  11 H :    0.133901
  12 H :    0.138342
  13 H :    0.109780
  14 H :    0.142427
  15 H :    0.145228
  16 H :    0.158065
  17 H :    0.152706
  18 H :    0.135938
  19 H :    0.145357

  Mayer bond orders larger than 0.100000
B(  0-C ,  1-C ) :   1.1158 B(  0-C , 10-H ) :   0.9388 B(  0-C , 11-H ) :   0.9389
B(  0-C , 12-H ) :   0.9332 B(  1-C ,  2-O ) :   0.9609 B(  1-C ,  6-O ) :   1.0020
B(  1-C , 13-H ) :   0.8962 B(  2-O ,  3-C ) :   1.1548 B(  3-C ,  4-O ) :   2.0296
B(  3-C ,  5-C ) :   1.1007 B(  5-C , 14-H ) :   0.9308 B(  5-C , 15-H ) :   0.9350
B(  5-C , 16-H ) :   0.9179 B(  6-O ,  7-C ) :   1.1032 B(  7-C ,  8-O ) :   2.1670
B(  7-C ,  9-C ) :   1.0884 B(  9-C , 17-H ) :   0.8915 B(  9-C , 18-H ) :   0.9172
B(  9-C , 19-H ) :   0.9307

Dispersion correction           -0.017214634
FINAL SINGLE POINT ENERGY      -534.465546229849

DIPOLE MOMENT
-------------

Method             : SCF
Type of density    : Electron Density
Multiplicity       :   1
Irrep              :   0
Energy             :  -534.5449305747915787 Eh
Relativity type    :
Basis              : AO
                                X                 Y                 Z
Electronic contribution:     -2.328539233       3.834476313       2.373806364
Nuclear contribution   :      3.385183445      -5.034974947      -2.946160138
                        -----------------------------------------
Total Dipole Moment    :      1.056644212      -1.200498634      -0.572353774
                        -----------------------------------------
Magnitude (a.u.)       :      1.698612023
Magnitude (Debye)      :      4.317528643

Rotational constants in cm-1:             0.061044             0.032332             0.025750
Rotational constants in MHz :          1830.038508           969.303675           771.972839

                             ****ORCA TERMINATED NORMALLY****
TOTAL RUN TIME: 0 days 0 hours 0 minutes 13 seconds 119 msec
