                         Program Version 6.0.0  -   RELEASE  -
|  1> ! pbe def2-sv(p) def2/J RI DEFGRID1 loosescf d4 GCP(DFT/SV(P)) printgap
|  2> %output
|  3>     printlevel normal
|  4> end
|  5> * xyz 0 1
|  6> C -2.9909560387 0.070439476 0.0234558471
|  7> C -1.646406978 0.735249206 0.2834115068
|  8> C -0.489244625 -0.1570159235 -0.0841424253
|  9> O -0.5771477606 -1.2653271268 -0.5692162677
| 10> O 0.6742440443 0.4240736928 0.1887717816
| 11> C 1.8739100264 -0.3086784554 -0.1135473591
| 12> C 3.0619650768 0.5438963142 0.2872409443
| 13> H -3.0812559919 -0.8408469324 0.6089242277
| 14> H -3.7992779806 0.7443388846 0.2895045333
| 15> H -3.0822580135 -0.1972868366 -1.0260009598
| 16> H -1.5361451377 1.0019018175 1.335725962
| 17> H -1.5469093312 1.654472771 -0.2966784429
| 18> H 1.8482290542 -1.2557710065 0.4355321213
| 19> H 1.8790525021 -0.5366937587 -1.1845805368
| 20> H 3.050087179 1.4798653803 -0.2631928558
| 21> H 3.020909323 0.7624136602 1.3501199113
| 22> H 3.9791947853 0.0084612511 0.065757402
| 23> *
| 24>
| 25>                          ****END OF INPUT****

CARTESIAN COORDINATES (ANGSTROEM)
---------------------------------
  C     -2.990956    0.070439    0.023456
  C     -1.646407    0.735249    0.283412
  C     -0.489245   -0.157016   -0.084142
  O     -0.577148   -1.265327   -0.569216
  O      0.674244    0.424074    0.188772
  C      1.873910   -0.308678   -0.113547
  C      3.061965    0.543896    0.287241
  H     -3.081256   -0.840847    0.608924
  H     -3.799278    0.744339    0.289505
  H     -3.082258   -0.197287   -1.026001
  H     -1.536145    1.001902    1.335726
  H     -1.546909    1.654473   -0.296678
  H      1.848229   -1.255771    0.435532
  H      1.879053   -0.536694   -1.184581
  H      3.050087    1.479865   -0.263193
  H      3.020909    0.762414    1.350120
  H      3.979195    0.008461    0.065757

 Total Charge           Charge          ....    0
 Multiplicity           Mult            ....    1
 Number of Electrons    NEL             ....   56
 Basis Dimension        Dim             ....  118

ORBITAL ENERGIES
----------------

  NO   OCC          E(Eh)            E(eV)
   0   2.0000     -18.795036      -511.4389
   1   2.0000     -18.731863      -509.7199
   2   2.0000     -10.004092      -272.2252
   3   2.0000      -9.946474      -270.6573
   4   2.0000      -9.899986      -269.3923
   5   2.0000      -9.889060      -269.0950
   6   2.0000      -9.877694      -268.7857
   7   2.0000      -1.002826       -27.2883
   8   2.0000      -0.907860       -24.7041
   9   2.0000      -0.719286       -19.5728
  10   2.0000      -0.689006       -18.7488
  11   2.0000      -0.604051       -16.4371
  12   2.0000      -0.551462       -15.0061
  13   2.0000      -0.503259       -13.6944
  14   2.0000      -0.449094       -12.2205
  15   2.0000      -0.442978       -12.0541
  16   2.0000      -0.414466       -11.2782
  17   2.0000      -0.402861       -10.9624
  18   2.0000      -0.365527        -9.9465
  19   2.0000      -0.361868        -9.8469
  20   2.0000      -0.358626        -9.7587
  21   2.0000      -0.330284        -8.9875
  22   2.0000      -0.323457        -8.8017
  23   2.0000      -0.321114        -8.7380
  24   2.0000      -0.302578        -8.2336
  25   2.0000      -0.295359        -8.0371
  26   2.0000      -0.255258        -6.9459
  27   2.0000      -0.217337        -5.9140
  28   0.0000      -0.017158        -0.4669
  29   0.0000       0.038525         1.0483
  30   0.0000       0.052901         1.4395
  31   0.0000       0.084483         2.2989
  32   0.0000       0.086535         2.3547

MULLIKEN ATOMIC CHARGES
-----------------------
   0 C :   -0.264625
   1 C :   -0.190366
   2 C :    0.111575
   3 O :   -0.210812
   4 O :   -0.245832
   5 C :   -0.027763
   6 C :   -0.271074
   7 H :    0.111746
   8 H :    0.100649
   9 H :    0.112963
  10 H :    0.113173
  11 H :    0.114312
  12 H :    0.104103
  13 H :    0.103730
  14 H :    0.113897
  15 H :    0.113846
  16 H :    0.110479
Sum of atomic charges:   -0.0000000

LOEWDIN ATOMIC CHARGES
----------------------
   0 C :   -0.336683
   1 C :   -0.259788
   2 C :    0.035664
   3 O :   -0.165999
   4 O :   -0.077499
   5 C :   -0.107601
   6 C :   -0.350745
   7 H :    0.125314
   8 H :    0.120136
   9 H :    0.125805
  10 H :    0.138842
  11 H :    0.139932
  12 H :    0.115275
  13 H :    0.115110
  14 H :    0.126162
  15 H :    0.126129
  16 H :    0.129945

  Mayer bond orders larger than 0.100000
B(  0-C ,  1-C ) :   1.1562 B(  0-C ,  7-H ) :   0.9554 B(  0-C ,  8-H ) :   0.9482
B(  0-C ,  9-H ) :   0.9540 B(  1-C ,  2-C ) :   1.0248 B(  1-C , 10-H ) :   0.9040
B(  1-C , 11-H ) :   0.9021 B(  2-C ,  3-O ) :   2.0552 B(  2-C ,  4-O ) :   1.2057
B(  4-O ,  5-C ) :   0.9151 B(  5-C ,  6-C ) :   1.1503 B(  5-C , 12-H ) :   0.9322
B(  5-C , 13-H ) :   0.9326 B(  6-C , 14-H ) :   0.9499 B(  6-C , 15-H ) :   0.9500
B(  6-C , 16-H ) :   0.9446

Dispersion correction           -0.011519351
FINAL SINGLE POINT ENERGY      -346.245949529111

DIPOLE MOMENT
-------------

Method             : SCF
Type of density    : Electron Density
Multiplicity       :   1
Irrep              :   0
Energy             :  -346.3107654443184060 Eh
Relativity type    :
Basis              : AO
                                X                 Y                 Z
Electronic contribution:     -0.282110408      -2.052214742      -0.972082934
Nuclear contribution   :      0.687827447       2.633961302       1.228153817
                        -----------------------------------------
Total Dipole Moment    :      0.405717038       0.581746560       0.256070883
                        -----------------------------------------
Magnitude (a.u.)       :      0.754060788
Magnitude (Debye)      :      1.916670203

Rotational constants in cm-1:             0.263933             0.042421             0.037571
Rotational constants in MHz :          7912.516803          1271.749354          1126.363944

                             ****ORCA TERMINATED NORMALLY****
TOTAL RUN TIME: 0 days 0 hours 0 minutes 8 seconds 690 msec
