                         Program Version 6.0.0  -   RELEASE  -
|  1> ! r2scan-3c def2/J RI DEFGRID2 scfconv6 printgap
|  2> %output
|  3>     printlevel normal
|  4> end
|  5> * xyz 0 1
|  6> C 2.1316423396 -1.0142464809 -0.3711460613
|  7> C 1.746700144 0.3918112845 0.0746831062
|  8> C 0.3588939407 0.4742474878 0.7091744864
|  9> C -0.8003929388 0.1858597782 -0.25815462
| 10> H -0.4437871346 0.3118040133 -1.2938374976
| 11> C -1.3685435684 -1.2220752478 -0.0856283223
| 12> O -1.799915973 1.167046134 -0.0054761454
| 13> H 2.0544621416 -1.7109003051 0.4604485133
| 14> H 3.1573205381 -1.024339937 -0.732303177
| 15> H 1.4863318703 -1.3577871712 -1.1752810608
| 16> H 2.475040219 0.7406691583 0.8097189973
| 17> H 1.791579058 1.0693985325 -0.7807593997
| 18> H 0.301539656 -0.2073384266 1.5591549229
| 19> H 0.2048681029 1.4873248585 1.0870279718
| 20> H -2.141591127 -1.4186665632 -0.8259332432
| 21> H -0.583033594 -1.9615480332 -0.2001061225
| 22> H -1.8022634468 -1.3188969589 0.9073231451
| 23> H -2.5762423372 0.9789589331 -0.5499368694
| 24> *
| 25>
| 26>                          ****END OF INPUT****

CARTESIAN COORDINATES (ANGSTROEM)
---------------------------------
  C      2.131642   -1.014246   -0.371146
  C      1.746700    0.391811    0.074683
  C      0.358894    0.474247    0.709174
  C     -0.800393    0.185860   -0.258155
  H     -0.443787    0.311804   -1.293837
  C     -1.368544   -1.222075   -0.085628
  O     -1.799916    1.167046   -0.005476
  H      2.054462   -1.710900    0.460449
  H      3.157321   -1.024340   -0.732303
  H      1.486332   -1.357787   -1.175281
  H      2.475040    0.740669    0.809719
  H      1.791579    1.069399   -0.780759
  H      0.301540   -0.207338    1.559155
  H      0.204868    1.487325    1.087028
  H     -2.141591   -1.418667   -0.825933
  H     -0.583034   -1.961548   -0.200106
  H     -1.802263   -1.318897    0.907323
  H     -2.576242    0.978959   -0.549937

 Total Charge           Charge          ....    0
 Multiplicity           Mult            ....    1
 Number of Electrons    NEL             ....   50
 Basis Dimension        Dim             ....  179

ORBITAL ENERGIES
----------------

  NO   OCC          E(Eh)            E(eV)
   0   2.0000     -18.942517      -515.4521
   1   2.0000     -10.079631      -274.2807
   2   2.0000     -10.025788      -272.8156
   3   2.0000     -10.019595      -272.6470
   4   2.0000     -10.019239      -272.6374
   5   2.0000     -10.017520      -272.5906
   6   2.0000      -0.979926       -26.6651
   7   2.0000      -0.764195       -20.7948
   8   2.0000      -0.708761       -19.2864
   9   2.0000      -0.653070       -17.7709
  10   2.0000      -0.579668       -15.7736
  11   2.0000      -0.532759       -14.4971
  12   2.0000      -0.475232       -12.9317
  13   2.0000      -0.428976       -11.6730
  14   2.0000      -0.416069       -11.3218
  15   2.0000      -0.398652       -10.8479
  16   2.0000      -0.384830       -10.4718
  17   2.0000      -0.357209        -9.7201
  18   2.0000      -0.349683        -9.5154
  19   2.0000      -0.338414        -9.2087
  20   2.0000      -0.309110        -8.4113
  21   2.0000      -0.301241        -8.1972
  22   2.0000      -0.297904        -8.1064
  23   2.0000      -0.277437        -7.5495
  24   2.0000      -0.232339        -6.3223
  25   0.0000       0.064784         1.7629
  26   0.0000       0.090809         2.4710
  27   0.0000       0.113477         3.0879
  28   0.0000       0.115651         3.1470
  29   0.0000       0.129104         3.5131

MULLIKEN ATOMIC CHARGES
-----------------------
   0 C :   -0.496598
   1 C :   -0.268501
   2 C :   -0.244372
   3 C :    0.049789
   4 H :    0.128513
   5 C :   -0.519252
   6 O :   -0.430196
   7 H :    0.149473
   8 H :    0.146728
   9 H :    0.149332
  10 H :    0.140215
  11 H :    0.144681
  12 H :    0.141523
  13 H :    0.168330
  14 H :    0.136716
  15 H :    0.154556
  16 H :    0.167274
  17 H :    0.281790
Sum of atomic charges:    0.0000000

LOEWDIN ATOMIC CHARGES
----------------------
   0 C :   -0.429352
   1 C :   -0.311558
   2 C :   -0.272135
   3 C :    0.050280
   4 H :    0.158377
   5 C :   -0.403455
   6 O :   -0.623762
   7 H :    0.149954
   8 H :    0.150937
   9 H :    0.148122
  10 H :    0.152462
  11 H :    0.152584
  12 H :    0.158385
  13 H :    0.180448
  14 H :    0.149933
  15 H :    0.159989
  16 H :    0.161873
  17 H :    0.266916

  Mayer bond orders larger than 0.100000
B(  0-C ,  1-C ) :   0.8781 B(  0-C ,  7-H ) :   0.9808 B(  0-C ,  8-H ) :   0.9677
B(  0-C ,  9-H ) :   0.9792 B(  1-C ,  2-C ) :   0.8845 B(  1-C , 10-H ) :   0.9708
B(  1-C , 11-H ) :   0.9902 B(  2-C ,  3-C ) :   0.8714 B(  2-C , 12-H ) :   0.9762
B(  2-C , 13-H ) :   0.9645 B(  3-C ,  4-H ) :   0.9583 B(  3-C ,  5-C ) :   0.9116
B(  3-C ,  6-O ) :   0.8805 B(  5-C , 14-H ) :   0.9709 B(  5-C , 15-H ) :   0.9626
B(  5-C , 16-H ) :   0.9872 B(  6-O , 17-H ) :   0.9031

Dispersion correction           -0.004338303
FINAL SINGLE POINT ENERGY      -272.899017093672

DIPOLE MOMENT
-------------

Method             : SCF
Type of density    : Electron Density
Multiplicity       :   1
Irrep              :   0
Energy             :  -272.9043144983344291 Eh
Relativity type    :
Basis              : AO
                                X                 Y                 Z
Electronic contribution:     -3.652269039       3.690220645       0.354392115
Nuclear contribution   :      3.654852609      -4.121222266      -0.689147274
                        -----------------------------------------
Total Dipole Moment    :      0.002583570      -0.431001621      -0.334755159
                        -----------------------------------------
Magnitude (a.u.)       :      0.545738114
Magnitude (Debye)      :      1.387156046

Rotational constants in cm-1:             0.191710             0.070314             0.057326
Rotational constants in MHz :          5747.322085          2107.966036          1718.596028

                             ****ORCA TERMINATED NORMALLY****
TOTAL RUN TIME: 0 days 0 hours 0 minutes 22 seconds 31 msec
