                         Program Version 6.0.0  -   RELEASE  -
|  1> ! r2scan-3c def2/J RI DEFGRID2 scfconv6 printgap
|  2> %output
|  3>     printlevel normal
|  4> end
|  5> %cpcm
|  6>     smd true
|  7>     smdsolvent "water"
|  8> end
|  9> * xyz 0 1
| 10> C 2.1316423396 -1.0142464809 -0.3711460613
| 11> C 1.746700144 0.3918112845 0.0746831062
| 12> C 0.3588939407 0.4742474878 0.7091744864
| 13> C -0.8003929388 0.1858597782 -0.25815462
| 14> H -0.4437871346 0.3118040133 -1.2938374976
| 15> C -1.3685435684 -1.2220752478 -0.0856283223
| 16> O -1.799915973 1.167046134 -0.0054761454
| 17> H 2.0544621416 -1.7109003051 0.4604485133
| 18> H 3.1573205381 -1.024339937 -0.732303177
| 19> H 1.4863318703 -1.3577871712 -1.1752810608
| 20> H 2.475040219 0.7406691583 0.8097189973
| 21> H 1.791579058 1.0693985325 -0.7807593997
| 22> H 0.301539656 -0.2073384266 1.5591549229
| 23> H 0.2048681029 1.4873248585 1.0870279718
| 24> H -2.141591127 -1.4186665632 -0.8259332432
| 25> H -0.583033594 -1.9615480332 -0.2001061225
| 26> H -1.8022634468 -1.3188969589 0.9073231451
| 27> H -2.5762423372 0.9789589331 -0.5499368694
| 28> *
| 29>
| 30>                          ****END OF INPUT****

CARTESIAN COORDINATES (ANGSTROEM)
---------------------------------
  C      2.131642   -1.014246   -0.371146
  C      1.746700    0.391811    0.074683
  C      0.358894    0.474247    0.709174
  C     -0.800393    0.185860   -0.258155
  H     -0.443787    0.311804   -1.293837
  C     -1.368544   -1.222075   -0.085628
  O     -1.799916    1.167046   -0.005476
  H      2.054462   -1.710900    0.460449
  H      3.157321   -1.024340   -0.732303
  H      1.486332   -1.357787   -1.175281
  H      2.475040    0.740669    0.809719
  H      1.791579    1.069399   -0.780759
  H      0.301540   -0.207338    1.559155
  H      0.204868    1.487325    1.087028
  H     -2.141591   -1.418667   -0.825933
  H     -0.583034   -1.961548   -0.200106
  H     -1.802263   -1.318897    0.907323
  H     -2.576242    0.978959   -0.549937

 Total Charge           Charge          ....    0
 Multiplicity           Mult            ....    1
 Number of Electrons    NEL             ....   50
 Basis Dimension        Dim             ....  179

ORBITAL ENERGIES
----------------

  NO   OCC          E(Eh)            E(eV)
   0   2.0000     -18.946916      -515.5718
   1   2.0000     -10.074718      -274.1470
   2   2.0000     -10.018230      -272.6099
   3   2.0000     -10.014783      -272.5161
   4   2.0000     -10.009179      -272.3636
   5   2.0000     -10.007538      -272.3190
   6   2.0000      -0.983130       -26.7523
   7   2.0000      -0.757867       -20.6226
   8   2.0000      -0.701014       -19.0756
   9   2.0000      -0.645744       -17.5716
  10   2.0000      -0.573418       -15.6035
  11   2.0000      -0.527293       -14.3484
  12   2.0000      -0.472055       -12.8453
  13   2.0000      -0.423375       -11.5206
  14   2.0000      -0.409492       -11.1429
  15   2.0000      -0.392445       -10.6790
  16   2.0000      -0.377481       -10.2718
  17   2.0000      -0.349014        -9.4971
  18   2.0000      -0.341480        -9.2921
  19   2.0000      -0.334815        -9.1108
  20   2.0000      -0.306614        -8.3434
  21   2.0000      -0.295425        -8.0389
  22   2.0000      -0.291541        -7.9332
  23   2.0000      -0.272944        -7.4272
  24   2.0000      -0.237117        -6.4523
  25   0.0000       0.080296         2.1850
  26   0.0000       0.098986         2.6936
  27   0.0000       0.121715         3.3120
  28   0.0000       0.125340         3.4107
  29   0.0000       0.137016         3.7284

MULLIKEN ATOMIC CHARGES
-----------------------
   0 C :   -0.526330
   1 C :   -0.275900
   2 C :   -0.262404
   3 C :    0.064132
   4 H :    0.143252
   5 C :   -0.549483
   6 O :   -0.521138
   7 H :    0.159093
   8 H :    0.155442
   9 H :    0.162630
  10 H :    0.148339
  11 H :    0.150747
  12 H :    0.156917
  13 H :    0.160276
  14 H :    0.160265
  15 H :    0.167690
  16 H :    0.168212
  17 H :    0.338257
Sum of atomic charges:   -0.0000000

LOEWDIN ATOMIC CHARGES
----------------------
   0 C :   -0.435137
   1 C :   -0.312296
   2 C :   -0.278588
   3 C :    0.051658
   4 H :    0.165950
   5 C :   -0.405740
   6 O :   -0.661563
   7 H :    0.153023
   8 H :    0.152605
   9 H :    0.152696
  10 H :    0.154538
  11 H :    0.154459
  12 H :    0.162792
  13 H :    0.175504
  14 H :    0.158146
  15 H :    0.165068
  16 H :    0.161557
  17 H :    0.285328

  Mayer bond orders larger than 0.100000
B(  0-C ,  1-C ) :   0.8783 B(  0-C ,  7-H ) :   0.9775 B(  0-C ,  8-H ) :   0.9662
B(  0-C ,  9-H ) :   0.9756 B(  1-C ,  2-C ) :   0.8890 B(  1-C , 10-H ) :   0.9700
B(  1-C , 11-H ) :   0.9885 B(  2-C ,  3-C ) :   0.8633 B(  2-C , 12-H ) :   0.9711
B(  2-C , 13-H ) :   0.9657 B(  3-C ,  4-H ) :   0.9559 B(  3-C ,  5-C ) :   0.9206
B(  3-C ,  6-O ) :   0.8629 B(  5-C , 14-H ) :   0.9669 B(  5-C , 15-H ) :   0.9591
B(  5-C , 16-H ) :   0.9825 B(  6-O , 17-H ) :   0.8776

Dispersion correction           -0.004338303
FINAL SINGLE POINT ENERGY      -272.905233177822

DIPOLE MOMENT
-------------

Method             : SCF
Type of density    : Electron Density
Multiplicity       :   1
Irrep              :   0
Energy             :  -272.9105305824837728 Eh
Relativity type    :
Basis              : AO
                                X                 Y                 Z
Electronic contribution:     -3.664033615       3.463794661       0.163121876
Nuclear contribution   :      3.654852609      -4.121222266      -0.689147274
                        -----------------------------------------
Total Dipole Moment    :     -0.009181006      -0.657427605      -0.526025398
                        -----------------------------------------
Magnitude (a.u.)       :      0.842020229
Magnitude (Debye)      :      2.140245334

Rotational constants in cm-1:             0.191710             0.070314             0.057326
Rotational constants in MHz :          5747.322085          2107.966036          1718.596028

                             ****ORCA TERMINATED NORMALLY****
TOTAL RUN TIME: 0 days 0 hours 0 minutes 27 seconds 98 msec
