                         Program Version 6.0.0  -   RELEASE  -
|  1> ! pbe def2-sv(p) def2/J RI DEFGRID1 loosescf d4 GCP(DFT/SV(P)) printgap
|  2> %output
|  3>     printlevel normal
|  4> end
|  5> * xyz 0 1
|  6> C 2.3104773396 0.4703816298 0.5125210348
|  7> C 1.5757834332 -0.2255273022 -0.6306626931
|  8> C 0.2723429908 -0.8950328243 -0.1747131334
|  9> C -0.9738641064 -0.0107856999 -0.3378338847
| 10> H -1.095231199 0.2304207042 -1.40686452
| 11> C -2.2223346774 -0.7432208652 0.146214178
| 12> O -0.8902187355 1.1997051682 0.3992285472
| 13> H 3.1648701233 1.0271095052 0.1342760307
| 14> H 2.6725640645 -0.2667158946 1.2260444532
| 15> H 1.6553326113 1.1553548808 1.0440279213
| 16> H 1.3583289604 0.4910187966 -1.4269753827
| 17> H 2.2374561502 -0.9830046751 -1.0551356232
| 18> H 0.0982380466 -1.7989964897 -0.7596367839
| 19> H 0.3609271268 -1.1843213205 0.8737032067
| 20> H -2.3643295214 -1.6595886842 -0.4177359325
| 21> H -2.1192024999 -0.9800574263 1.2017373087
| 22> H -3.0924640071 -0.1046525403 0.0209811449
| 23> H -0.2140040697 1.7627911242 0.0016392763
| 24> *
| 25>
| 26>                          ****END OF INPUT****

CARTESIAN COORDINATES (ANGSTROEM)
---------------------------------
  C      2.310477    0.470382    0.512521
  C      1.575783   -0.225527   -0.630663
  C      0.272343   -0.895033   -0.174713
  C     -0.973864   -0.010786   -0.337834
  H     -1.095231    0.230421   -1.406865
  C     -2.222335   -0.743221    0.146214
  O     -0.890219    1.199705    0.399229
  H      3.164870    1.027110    0.134276
  H      2.672564   -0.266716    1.226044
  H      1.655333    1.155355    1.044028
  H      1.358329    0.491019   -1.426975
  H      2.237456   -0.983005   -1.055136
  H      0.098238   -1.798996   -0.759637
  H      0.360927   -1.184321    0.873703
  H     -2.364330   -1.659589   -0.417736
  H     -2.119202   -0.980057    1.201737
  H     -3.092464   -0.104653    0.020981
  H     -0.214004    1.762791    0.001639

 Total Charge           Charge          ....    0
 Multiplicity           Mult            ....    1
 Number of Electrons    NEL             ....   50
 Basis Dimension        Dim             ....  108

ORBITAL ENERGIES
----------------

  NO   OCC          E(Eh)            E(eV)
   0   2.0000     -18.739762      -509.9349
   1   2.0000      -9.935465      -270.3577
   2   2.0000      -9.888150      -269.0702
   3   2.0000      -9.879502      -268.8349
   4   2.0000      -9.874965      -268.7114
   5   2.0000      -9.868920      -268.5470
   6   2.0000      -0.916705       -24.9448
   7   2.0000      -0.715976       -19.4827
   8   2.0000      -0.673356       -18.3230
   9   2.0000      -0.606782       -16.5114
  10   2.0000      -0.535768       -14.5790
  11   2.0000      -0.512873       -13.9560
  12   2.0000      -0.466855       -12.7038
  13   2.0000      -0.416800       -11.3417
  14   2.0000      -0.396951       -10.8016
  15   2.0000      -0.374084       -10.1794
  16   2.0000      -0.354646        -9.6504
  17   2.0000      -0.343695        -9.3524
  18   2.0000      -0.337610        -9.1868
  19   2.0000      -0.317277        -8.6336
  20   2.0000      -0.302426        -8.2294
  21   2.0000      -0.297109        -8.0847
  22   2.0000      -0.287882        -7.8337
  23   2.0000      -0.264500        -7.1974
  24   2.0000      -0.211051        -5.7430
  25   0.0000       0.020045         0.5454
  26   0.0000       0.056512         1.5378
  27   0.0000       0.059920         1.6305
  28   0.0000       0.074632         2.0308
  29   0.0000       0.090476         2.4620

MULLIKEN ATOMIC CHARGES
-----------------------
   0 C :   -0.289018
   1 C :   -0.191436
   2 C :   -0.130090
   3 C :   -0.026039
   4 H :    0.058703
   5 C :   -0.228758
   6 O :   -0.422143
   7 H :    0.102115
   8 H :    0.104589
   9 H :    0.093159
  10 H :    0.077395
  11 H :    0.088669
  12 H :    0.075746
  13 H :    0.081047
  14 H :    0.095339
  15 H :    0.101525
  16 H :    0.105861
  17 H :    0.303336
Sum of atomic charges:    0.0000000

LOEWDIN ATOMIC CHARGES
----------------------
   0 C :   -0.346605
   1 C :   -0.241145
   2 C :   -0.240362
   3 C :   -0.056293
   4 H :    0.093971
   5 C :   -0.339966
   6 O :   -0.332343
   7 H :    0.117436
   8 H :    0.119965
   9 H :    0.111318
  10 H :    0.107844
  11 H :    0.119226
  12 H :    0.119068
  13 H :    0.118952
  14 H :    0.121363
  15 H :    0.122904
  16 H :    0.123170
  17 H :    0.281496

  Mayer bond orders larger than 0.100000
B(  0-C ,  1-C ) :   1.1556 B(  0-C ,  7-H ) :   0.9514 B(  0-C ,  8-H ) :   0.9521
B(  0-C ,  9-H ) :   0.9426 B(  1-C ,  2-C ) :   1.0871 B(  1-C , 10-H ) :   0.9289
B(  1-C , 11-H ) :   0.9280 B(  2-C ,  3-C ) :   1.0686 B(  2-C , 12-H ) :   0.9107
B(  2-C , 13-H ) :   0.9141 B(  3-C ,  4-H ) :   0.9082 B(  3-C ,  5-C ) :   1.1218
B(  3-C ,  6-O ) :   1.0738 B(  5-C , 14-H ) :   0.9473 B(  5-C , 15-H ) :   0.9440
B(  5-C , 16-H ) :   0.9448 B(  6-O , 17-H ) :   0.8388

Dispersion correction           -0.012686679
FINAL SINGLE POINT ENERGY      -272.303363434359

DIPOLE MOMENT
-------------

Method             : SCF
Type of density    : Electron Density
Multiplicity       :   1
Irrep              :   0
Energy             :  -272.3735658289111257 Eh
Relativity type    :
Basis              : AO
                                X                 Y                 Z
Electronic contribution:     -2.125310079       2.041204781       0.067338076
Nuclear contribution   :      2.484636077      -2.149956134      -0.523142233
                        -----------------------------------------
Total Dipole Moment    :      0.359325998      -0.108751353      -0.455804158
                        -----------------------------------------
Magnitude (a.u.)       :      0.590507798
Magnitude (Debye)      :      1.500951540

Rotational constants in cm-1:             0.212146             0.068474             0.058254
Rotational constants in MHz :          6359.976989          2052.805493          1746.419908

                             ****ORCA TERMINATED NORMALLY****
TOTAL RUN TIME: 0 days 0 hours 0 minutes 7 seconds 490 msec
