                         Program Version 6.0.0  -   RELEASE  -
|  1> ! wb97x-v def2-tzvp def2/J RIJCOSX DEFGRID2 scfconv7 GCP(DFT/TZ) printgap
|  2> %output
|  3>     printlevel normal
|  4> end
|  5> * xyz 0 1
|  6> C -2.785455369443305 0.0020354129327275565 -0.33271110632922296
|  7> C -2.1050242812456066 -1.2020346485936815 -0.1624648035669661
|  8> C -0.7598587306326969 -1.2003012201533692 0.19816304065666943
|  9> C -0.07356325996857384 0.0020698934102910517 0.3968511139354653
| 10> C -0.7651946880560019 1.2043933567192997 0.21787269243609667
| 11> C -2.1103992340390754 1.2061499207182527 -0.14250732215450326
| 12> C 1.3932730443534775 0.003225348028060598 0.7328613823408646
| 13> C 2.2396056457634654 -0.0030913572818308203 -0.5417576964198229
| 14> O 3.647711013870555 0.022464057027853875 -0.25962296646966093
| 15> H -3.835175986294473 0.0019539689247061757 -0.6091620173071315
| 16> H -2.624107882352941 -2.1449574938472353 -0.3058724554047814
| 17> H -0.23466601860779338 -2.1423526037262306 0.33327288173232417
| 18> H -0.24362125033725368 2.1461931618053605 0.3678530273121596
| 19> H -2.633721318377904 2.149005597481648 -0.27003443630523477
| 20> H 1.6477889706976696 0.8915307505294833 1.3210091200106233
| 21> H 1.6446343816203313 -0.8843836212681423 1.3255696899523137
| 22> H 1.9859047956561307 -0.8813907413347236 -1.1528703472430182
| 23> H 2.0318587586275485 0.8943797588819902 -1.1337430375942708
| 24> H 3.8602523868174483 -0.7912470263085212 0.21629300698503334
| 25> *
| 26>
| 27>                          ****END OF INPUT****

CARTESIAN COORDINATES (ANGSTROEM)
---------------------------------
  C     -2.785455    0.002035   -0.332711
  C     -2.105024   -1.202035   -0.162465
  C     -0.759859   -1.200301    0.198163
  C     -0.073563    0.002070    0.396851
  C     -0.765195    1.204393    0.217873
  C     -2.110399    1.206150   -0.142507
  C      1.393273    0.003225    0.732861
  C      2.239606   -0.003091   -0.541758
  O      3.647711    0.022464   -0.259623
  H     -3.835176    0.001954   -0.609162
  H     -2.624108   -2.144957   -0.305872
  H     -0.234666   -2.142353    0.333273
  H     -0.243621    2.146193    0.367853
  H     -2.633721    2.149006   -0.270034
  H      1.647789    0.891531    1.321009
  H      1.644634   -0.884384    1.325570
  H      1.985905   -0.881391   -1.152870
  H      2.031859    0.894380   -1.133743
  H      3.860252   -0.791247    0.216293

 Total Charge           Charge          ....    0
 Multiplicity           Mult            ....    1
 Number of Electrons    NEL             ....   66
 Basis Dimension        Dim             ....  339

ORBITAL ENERGIES
----------------

  NO   OCC          E(Eh)            E(eV)
   0   2.0000     -21.671806      -589.7198
   1   2.0000     -12.095257      -329.1287
   2   2.0000     -12.063440      -328.2629
   3   2.0000     -12.055514      -328.0472
   4   2.0000     -12.055236      -328.0396
   5   2.0000     -12.053054      -327.9803
   6   2.0000     -12.052555      -327.9667
   7   2.0000     -12.052336      -327.9607
   8   2.0000     -12.051392      -327.9350
   9   2.0000      -1.670897       -45.4674
  10   2.0000      -1.388473       -37.7823
  11   2.0000      -1.310816       -35.6691
  12   2.0000      -1.274973       -34.6938
  13   2.0000      -1.246499       -33.9190
  14   2.0000      -1.153987       -31.4016
  15   2.0000      -1.109534       -30.1919
  16   2.0000      -1.085378       -29.5346
  17   2.0000      -1.020105       -27.7585
  18   2.0000      -0.966846       -26.3092
  19   2.0000      -0.959579       -26.1115
  20   2.0000      -0.953522       -25.9466
  21   2.0000      -0.931150       -25.3379
  22   2.0000      -0.910884       -24.7864
  23   2.0000      -0.876755       -23.8577
  24   2.0000      -0.872626       -23.7454
  25   2.0000      -0.862209       -23.4619
  26   2.0000      -0.817007       -22.2319
  27   2.0000      -0.816602       -22.2209
  28   2.0000      -0.808143       -21.9907
  29   2.0000      -0.775805       -21.1107
  30   2.0000      -0.765602       -20.8331
  31   2.0000      -0.640830       -17.4379
  32   2.0000      -0.638972       -17.3873
  33   0.0000      -0.248191        -6.7536
  34   0.0000      -0.239148        -6.5075
  35   0.0000      -0.142573        -3.8796
  36   0.0000      -0.075324        -2.0497
  37   0.0000      -0.049866        -1.3569

MULLIKEN ATOMIC CHARGES
-----------------------
   0 C :   -0.140476
   1 C :   -0.096503
   2 C :   -0.242091
   3 C :    0.218872
   4 C :   -0.237392
   5 C :   -0.096428
   6 C :   -0.227951
   7 C :   -0.040353
   8 O :   -0.440926
   9 H :    0.118182
  10 H :    0.117510
  11 H :    0.113133
  12 H :    0.120420
  13 H :    0.118253
  14 H :    0.113949
  15 H :    0.101873
  16 H :    0.098018
  17 H :    0.106448
  18 H :    0.295462
Sum of atomic charges:    0.0000000

LOEWDIN ATOMIC CHARGES
----------------------
   0 C :   -0.143717
   1 C :   -0.137950
   2 C :   -0.114894
   3 C :   -0.145052
   4 C :   -0.111953
   5 C :   -0.137134
   6 C :   -0.229072
   7 C :   -0.322900
   8 O :   -0.058875
   9 H :    0.140997
  10 H :    0.141636
  11 H :    0.143345
  12 H :    0.145263
  13 H :    0.141920
  14 H :    0.142924
  15 H :    0.136664
  16 H :    0.115201
  17 H :    0.127423
  18 H :    0.166175

  Mayer bond orders larger than 0.100000
B(  0-C ,  1-C ) :   1.4222 B(  0-C ,  5-C ) :   1.4212 B(  0-C ,  9-H ) :   0.9720
B(  1-C ,  2-C ) :   1.4491 B(  1-C , 10-H ) :   0.9737 B(  2-C ,  3-C ) :   1.3754
B(  2-C , 11-H ) :   0.9728 B(  3-C ,  4-C ) :   1.3872 B(  3-C ,  6-C ) :   0.8615
B(  4-C ,  5-C ) :   1.4458 B(  4-C , 12-H ) :   0.9700 B(  5-C , 13-H ) :   0.9735
B(  6-C ,  7-C ) :   0.9707 B(  6-C , 14-H ) :   0.9808 B(  6-C , 15-H ) :   0.9800
B(  7-C ,  8-O ) :   1.0167 B(  7-C , 16-H ) :   0.9797 B(  7-C , 17-H ) :   0.9643
B(  8-O , 18-H ) :   0.9062

FINAL SINGLE POINT ENERGY      -386.109169966657

DIPOLE MOMENT
-------------

Method             : SCF
Type of density    : Electron Density
Multiplicity       :   1
Irrep              :   0
Energy             :  -386.1199990173566903 Eh
Relativity type    :
Basis              : AO
                                X                 Y                 Z
Electronic contribution:     -1.922648611       0.240461239       0.139291840
Nuclear contribution   :      1.529797967      -0.693992183       0.056689263
                        -----------------------------------------
Total Dipole Moment    :     -0.392850643      -0.453530945       0.195981103
                        -----------------------------------------
Magnitude (a.u.)       :      0.631213544
Magnitude (Debye)      :      1.604417325

Rotational constants in cm-1:             0.146841             0.028535             0.025549
Rotational constants in MHz :          4402.180891           855.471594           765.936615

                             ****ORCA TERMINATED NORMALLY****
TOTAL RUN TIME: 0 days 0 hours 2 minutes 48 seconds 166 msec
