                         Program Version 6.0.0  -   RELEASE  -
|  1> ! wb97x-v def2-tzvp def2/J RIJCOSX DEFGRID2 scfconv7 GCP(DFT/TZ) printgap
|  2> %output
|  3>     printlevel normal
|  4> end
|  5> %cpcm
|  6>     smd true
|  7>     smdsolvent "water"
|  8> end
|  9> * xyz 0 1
| 10> C -2.785455369443305 0.0020354129327275565 -0.33271110632922296
| 11> C -2.1050242812456066 -1.2020346485936815 -0.1624648035669661
| 12> C -0.7598587306326969 -1.2003012201533692 0.19816304065666943
| 13> C -0.07356325996857384 0.0020698934102910517 0.3968511139354653
| 14> C -0.7651946880560019 1.2043933567192997 0.21787269243609667
| 15> C -2.1103992340390754 1.2061499207182527 -0.14250732215450326
| 16> C 1.3932730443534775 0.003225348028060598 0.7328613823408646
| 17> C 2.2396056457634654 -0.0030913572818308203 -0.5417576964198229
| 18> O 3.647711013870555 0.022464057027853875 -0.25962296646966093
| 19> H -3.835175986294473 0.0019539689247061757 -0.6091620173071315
| 20> H -2.624107882352941 -2.1449574938472353 -0.3058724554047814
| 21> H -0.23466601860779338 -2.1423526037262306 0.33327288173232417
| 22> H -0.24362125033725368 2.1461931618053605 0.3678530273121596
| 23> H -2.633721318377904 2.149005597481648 -0.27003443630523477
| 24> H 1.6477889706976696 0.8915307505294833 1.3210091200106233
| 25> H 1.6446343816203313 -0.8843836212681423 1.3255696899523137
| 26> H 1.9859047956561307 -0.8813907413347236 -1.1528703472430182
| 27> H 2.0318587586275485 0.8943797588819902 -1.1337430375942708
| 28> H 3.8602523868174483 -0.7912470263085212 0.21629300698503334
| 29> *
| 30>
| 31>                          ****END OF INPUT****

CARTESIAN COORDINATES (ANGSTROEM)
---------------------------------
  C     -2.785455    0.002035   -0.332711
  C     -2.105024   -1.202035   -0.162465
  C     -0.759859   -1.200301    0.198163
  C     -0.073563    0.002070    0.396851
  C     -0.765195    1.204393    0.217873
  C     -2.110399    1.206150   -0.142507
  C      1.393273    0.003225    0.732861
  C      2.239606   -0.003091   -0.541758
  O      3.647711    0.022464   -0.259623
  H     -3.835176    0.001954   -0.609162
  H     -2.624108   -2.144957   -0.305872
  H     -0.234666   -2.142353    0.333273
  H     -0.243621    2.146193    0.367853
  H     -2.633721    2.149006   -0.270034
  H      1.647789    0.891531    1.321009
  H      1.644634   -0.884384    1.325570
  H      1.985905   -0.881391   -1.152870
  H      2.031859    0.894380   -1.133743
  H      3.860252   -0.791247    0.216293

 Total Charge           Charge          ....    0
 Multiplicity           Mult            ....    1
 Number of Electrons    NEL             ....   66
 Basis Dimension        Dim             ....  339

ORBITAL ENERGIES
----------------

  NO   OCC          E(Eh)            E(eV)
   0   2.0000     -21.673801      -589.7741
   1   2.0000     -12.088052      -328.9326
   2   2.0000     -12.058051      -328.1162
   3   2.0000     -12.049384      -327.8804
   4   2.0000     -12.049208      -327.8756
   5   2.0000     -12.046588      -327.8043
   6   2.0000     -12.046121      -327.7916
   7   2.0000     -12.045396      -327.7719
   8   2.0000     -12.040766      -327.6459
   9   2.0000      -1.672946       -45.5232
  10   2.0000      -1.383967       -37.6597
  11   2.0000      -1.304013       -35.4840
  12   2.0000      -1.269968       -34.5576
  13   2.0000      -1.240722       -33.7618
  14   2.0000      -1.149351       -31.2754
  15   2.0000      -1.103340       -30.0234
  16   2.0000      -1.079847       -29.3841
  17   2.0000      -1.019449       -27.7406
  18   2.0000      -0.962127       -26.1808
  19   2.0000      -0.955420       -25.9983
  20   2.0000      -0.951175       -25.8828
  21   2.0000      -0.930144       -25.3105
  22   2.0000      -0.904183       -24.6041
  23   2.0000      -0.869415       -23.6580
  24   2.0000      -0.865719       -23.5574
  25   2.0000      -0.853850       -23.2344
  26   2.0000      -0.810745       -22.0615
  27   2.0000      -0.809141       -22.0178
  28   2.0000      -0.800856       -21.7924
  29   2.0000      -0.766163       -20.8484
  30   2.0000      -0.762082       -20.7373
  31   2.0000      -0.637516       -17.3477
  32   2.0000      -0.635426       -17.2908
  33   0.0000      -0.244382        -6.6500
  34   0.0000      -0.235251        -6.4015
  35   0.0000      -0.137544        -3.7428
  36   0.0000      -0.069608        -1.8941
  37   0.0000      -0.031194        -0.8488

MULLIKEN ATOMIC CHARGES
-----------------------
   0 C :   -0.190440
   1 C :   -0.137947
   2 C :   -0.276849
   3 C :    0.167386
   4 C :   -0.272681
   5 C :   -0.139299
   6 C :   -0.196749
   7 C :   -0.055379
   8 O :   -0.554991
   9 H :    0.160287
  10 H :    0.160002
  11 H :    0.157640
  12 H :    0.158287
  13 H :    0.160006
  14 H :    0.123453
  15 H :    0.131240
  16 H :    0.118524
  17 H :    0.127115
  18 H :    0.360396
Sum of atomic charges:    0.0000000

LOEWDIN ATOMIC CHARGES
----------------------
   0 C :   -0.156702
   1 C :   -0.149569
   2 C :   -0.119515
   3 C :   -0.151465
   4 C :   -0.118971
   5 C :   -0.149511
   6 C :   -0.224320
   7 C :   -0.321683
   8 O :   -0.100397
   9 H :    0.149589
  10 H :    0.150585
  11 H :    0.154373
  12 H :    0.154463
  13 H :    0.150597
  14 H :    0.145012
  15 H :    0.146839
  16 H :    0.121819
  17 H :    0.129344
  18 H :    0.189510

  Mayer bond orders larger than 0.100000
B(  0-C ,  1-C ) :   1.3982 B(  0-C ,  5-C ) :   1.3983 B(  0-C ,  9-H ) :   0.9755
B(  1-C ,  2-C ) :   1.4238 B(  1-C , 10-H ) :   0.9770 B(  2-C ,  3-C ) :   1.3642
B(  2-C , 11-H ) :   0.9778 B(  3-C ,  4-C ) :   1.3652 B(  3-C ,  6-C ) :   0.8882
B(  4-C ,  5-C ) :   1.4228 B(  4-C , 12-H ) :   0.9780 B(  5-C , 13-H ) :   0.9770
B(  6-C ,  7-C ) :   0.9697 B(  6-C , 14-H ) :   0.9663 B(  6-C , 15-H ) :   0.9722
B(  7-C ,  8-O ) :   0.9754 B(  7-C , 16-H ) :   0.9823 B(  7-C , 17-H ) :   0.9662
B(  8-O , 18-H ) :   0.8677

FINAL SINGLE POINT ENERGY      -386.120401403058

DIPOLE MOMENT
-------------

Method             : SCF
Type of density    : Electron Density
Multiplicity       :   1
Irrep              :   0
Energy             :  -386.1312304537578370 Eh
Relativity type    :
Basis              : AO
                                X                 Y                 Z
Electronic contribution:     -1.961850262       0.032601591       0.219335393
Nuclear contribution   :      1.529797967      -0.693992183       0.056689263
                        -----------------------------------------
Total Dipole Moment    :     -0.432052294      -0.661390592       0.276024655
                        -----------------------------------------
Magnitude (a.u.)       :      0.836837087
Magnitude (Debye)      :      2.127070835

Rotational constants in cm-1:             0.146841             0.028535             0.025549
Rotational constants in MHz :          4402.180891           855.471594           765.936615

                             ****ORCA TERMINATED NORMALLY****
TOTAL RUN TIME: 0 days 0 hours 2 minutes 54 seconds 137 msec
