                         Program Version 6.0.0  -   RELEASE  -
|  1> ! r2scan-3c def2/J RI DEFGRID2 scfconv6 printgap
|  2> %output
|  3>     printlevel normal
|  4> end
|  5> * xyz 0 1
|  6> C -2.7760358679 -0.0017950842 -0.3003994311
|  7> C -2.101683937 -1.2004672899 -0.1404353159
|  8> C -0.7594724271 -1.2021264968 0.1969271443
|  9> C -0.0736397236 -0.0082321418 0.3818464863
| 10> C -0.7590375784 1.1890015835 0.2172686385
| 11> C -2.1010992828 1.1937512688 -0.1202892849
| 12> C 1.3905961854 -0.0105968583 0.71224797
| 13> C 2.2300934032 0.0153194206 -0.5686803035
| 14> O 3.597523085 0.0174624047 -0.2117084733
| 15> H -3.8233873437 0.0006835941 -0.5622299665
| 16> H -2.6227775372 -2.1362865309 -0.2776707436
| 17> H -0.2377009514 -2.1397065888 0.3233442283
| 18> H -0.2367342003 2.1239804543 0.3597782127
| 19> H -2.6217339251 2.1319986319 -0.2417868725
| 20> H 1.6540384974 0.8635178573 1.309533044
| 21> H 1.6586720712 -0.9042379074 1.2776243138
| 22> H 1.9925562483 -0.8673839804 -1.178173562
| 23> H 1.9821398061 0.9147853225 -1.1487903714
| 24> H 4.1396311378 0.0351075063 -1.0113312712
| 25> *
| 26>
| 27>                          ****END OF INPUT****

CARTESIAN COORDINATES (ANGSTROEM)
---------------------------------
  C     -2.776036   -0.001795   -0.300399
  C     -2.101684   -1.200467   -0.140435
  C     -0.759472   -1.202126    0.196927
  C     -0.073640   -0.008232    0.381846
  C     -0.759038    1.189002    0.217269
  C     -2.101099    1.193751   -0.120289
  C      1.390596   -0.010597    0.712248
  C      2.230093    0.015319   -0.568680
  O      3.597523    0.017462   -0.211708
  H     -3.823387    0.000684   -0.562230
  H     -2.622778   -2.136287   -0.277671
  H     -0.237701   -2.139707    0.323344
  H     -0.236734    2.123980    0.359778
  H     -2.621734    2.131999   -0.241787
  H      1.654038    0.863518    1.309533
  H      1.658672   -0.904238    1.277624
  H      1.992556   -0.867384   -1.178174
  H      1.982140    0.914785   -1.148790
  H      4.139631    0.035108   -1.011331

 Total Charge           Charge          ....    0
 Multiplicity           Mult            ....    1
 Number of Electrons    NEL             ....   66
 Basis Dimension        Dim             ....  226

ORBITAL ENERGIES
----------------

  NO   OCC          E(Eh)            E(eV)
   0   2.0000     -18.950271      -515.6631
   1   2.0000     -10.079948      -274.2893
   2   2.0000     -10.043724      -273.3036
   3   2.0000     -10.034840      -273.0619
   4   2.0000     -10.034783      -273.0603
   5   2.0000     -10.033158      -273.0161
   6   2.0000     -10.033101      -273.0146
   7   2.0000     -10.033043      -273.0130
   8   2.0000     -10.033001      -273.0118
   9   2.0000      -0.986806       -26.8524
  10   2.0000      -0.830584       -22.6013
  11   2.0000      -0.755565       -20.5600
  12   2.0000      -0.716527       -19.4977
  13   2.0000      -0.685815       -18.6620
  14   2.0000      -0.596024       -16.2186
  15   2.0000      -0.577242       -15.7076
  16   2.0000      -0.547875       -14.9084
  17   2.0000      -0.494747       -13.4628
  18   2.0000      -0.472330       -12.8528
  19   2.0000      -0.448376       -12.2009
  20   2.0000      -0.421483       -11.4691
  21   2.0000      -0.410963       -11.1829
  22   2.0000      -0.389907       -10.6099
  23   2.0000      -0.389029       -10.5860
  24   2.0000      -0.373625       -10.1668
  25   2.0000      -0.339162        -9.2291
  26   2.0000      -0.336222        -9.1491
  27   2.0000      -0.311127        -8.4662
  28   2.0000      -0.307011        -8.3542
  29   2.0000      -0.300508        -8.1772
  30   2.0000      -0.242116        -6.5883
  31   2.0000      -0.234768        -6.3884
  32   2.0000      -0.229089        -6.2338
  33   0.0000      -0.032170        -0.8754
  34   0.0000      -0.030862        -0.8398
  35   0.0000       0.058705         1.5975
  36   0.0000       0.075707         2.0601
  37   0.0000       0.106097         2.8870

MULLIKEN ATOMIC CHARGES
-----------------------
   0 C :   -0.145944
   1 C :   -0.159150
   2 C :   -0.221636
   3 C :    0.181415
   4 C :   -0.221708
   5 C :   -0.159091
   6 C :   -0.296087
   7 C :   -0.154200
   8 O :   -0.423702
   9 H :    0.146555
  10 H :    0.145406
  11 H :    0.149170
  12 H :    0.149200
  13 H :    0.145406
  14 H :    0.156089
  15 H :    0.155469
  16 H :    0.130079
  17 H :    0.130152
  18 H :    0.292577
Sum of atomic charges:   -0.0000000

LOEWDIN ATOMIC CHARGES
----------------------
   0 C :   -0.171447
   1 C :   -0.161381
   2 C :   -0.161807
   3 C :   -0.093241
   4 C :   -0.161885
   5 C :   -0.161363
   6 C :   -0.250010
   7 C :    0.021390
   8 O :   -0.625233
   9 H :    0.166637
  10 H :    0.166820
  11 H :    0.169567
  12 H :    0.169595
  13 H :    0.166819
  14 H :    0.171445
  15 H :    0.171200
  16 H :    0.157878
  17 H :    0.157887
  18 H :    0.267127

  Mayer bond orders larger than 0.100000
B(  0-C ,  1-C ) :   1.4288 B(  0-C ,  5-C ) :   1.4283 B(  0-C ,  9-H ) :   0.9477
B(  1-C ,  2-C ) :   1.4406 B(  1-C , 10-H ) :   0.9479 B(  2-C ,  3-C ) :   1.4042
B(  2-C , 11-H ) :   0.9464 B(  3-C ,  4-C ) :   1.4030 B(  3-C ,  6-C ) :   0.7824
B(  4-C ,  5-C ) :   1.4409 B(  4-C , 12-H ) :   0.9465 B(  5-C , 13-H ) :   0.9479
B(  6-C ,  7-C ) :   0.9524 B(  6-C , 14-H ) :   0.9872 B(  6-C , 15-H ) :   0.9869
B(  7-C ,  8-O ) :   0.9303 B(  7-C , 16-H ) :   0.9698 B(  7-C , 17-H ) :   0.9702
B(  8-O , 18-H ) :   0.9003

Dispersion correction           -0.006024860
FINAL SINGLE POINT ENERGY      -385.989697111343

DIPOLE MOMENT
-------------

Method             : SCF
Type of density    : Electron Density
Multiplicity       :   1
Irrep              :   0
Energy             :  -385.9906942231596076 Eh
Relativity type    :
Basis              : AO
                                X                 Y                 Z
Electronic contribution:     -1.905108144      -0.012211265       0.538827155
Nuclear contribution   :      1.821485686       0.021328524      -1.081752920
                        -----------------------------------------
Total Dipole Moment    :     -0.083622458       0.009117259      -0.542925765
                        -----------------------------------------
Magnitude (a.u.)       :      0.549403518
Magnitude (Debye)      :      1.396472764

Rotational constants in cm-1:             0.149110             0.028824             0.025840
Rotational constants in MHz :          4470.207229           864.108919           774.666106

                             ****ORCA TERMINATED NORMALLY****
TOTAL RUN TIME: 0 days 0 hours 0 minutes 24 seconds 701 msec
