                         Program Version 6.0.0  -   RELEASE  -
|  1> ! r2scan-3c def2/J RI DEFGRID2 scfconv6 printgap
|  2> %output
|  3>     printlevel normal
|  4> end
|  5> %cpcm
|  6>     smd true
|  7>     smdsolvent "water"
|  8> end
|  9> * xyz 0 1
| 10> C -2.7760358679 -0.0017950842 -0.3003994311
| 11> C -2.101683937 -1.2004672899 -0.1404353159
| 12> C -0.7594724271 -1.2021264968 0.1969271443
| 13> C -0.0736397236 -0.0082321418 0.3818464863
| 14> C -0.7590375784 1.1890015835 0.2172686385
| 15> C -2.1010992828 1.1937512688 -0.1202892849
| 16> C 1.3905961854 -0.0105968583 0.71224797
| 17> C 2.2300934032 0.0153194206 -0.5686803035
| 18> O 3.597523085 0.0174624047 -0.2117084733
| 19> H -3.8233873437 0.0006835941 -0.5622299665
| 20> H -2.6227775372 -2.1362865309 -0.2776707436
| 21> H -0.2377009514 -2.1397065888 0.3233442283
| 22> H -0.2367342003 2.1239804543 0.3597782127
| 23> H -2.6217339251 2.1319986319 -0.2417868725
| 24> H 1.6540384974 0.8635178573 1.309533044
| 25> H 1.6586720712 -0.9042379074 1.2776243138
| 26> H 1.9925562483 -0.8673839804 -1.178173562
| 27> H 1.9821398061 0.9147853225 -1.1487903714
| 28> H 4.1396311378 0.0351075063 -1.0113312712
| 29> *
| 30>
| 31>                          ****END OF INPUT****

CARTESIAN COORDINATES (ANGSTROEM)
---------------------------------
  C     -2.776036   -0.001795   -0.300399
  C     -2.101684   -1.200467   -0.140435
  C     -0.759472   -1.202126    0.196927
  C     -0.073640   -0.008232    0.381846
  C     -0.759038    1.189002    0.217269
  C     -2.101099    1.193751   -0.120289
  C      1.390596   -0.010597    0.712248
  C      2.230093    0.015319   -0.568680
  O      3.597523    0.017462   -0.211708
  H     -3.823387    0.000684   -0.562230
  H     -2.622778   -2.136287   -0.277671
  H     -0.237701   -2.139707    0.323344
  H     -0.236734    2.123980    0.359778
  H     -2.621734    2.131999   -0.241787
  H      1.654038    0.863518    1.309533
  H      1.658672   -0.904238    1.277624
  H      1.992556   -0.867384   -1.178174
  H      1.982140    0.914785   -1.148790
  H      4.139631    0.035108   -1.011331

 Total Charge           Charge          ....    0
 Multiplicity           Mult            ....    1
 Number of Electrons    NEL             ....   66
 Basis Dimension        Dim             ....  226

ORBITAL ENERGIES
----------------

  NO   OCC          E(Eh)            E(eV)
   0   2.0000     -18.952141      -515.7140
   1   2.0000     -10.073869      -274.1239
   2   2.0000     -10.042488      -273.2700
   3   2.0000     -10.032169      -272.9892
   4   2.0000     -10.032110      -272.9876
   5   2.0000     -10.030493      -272.9436
   6   2.0000     -10.030222      -272.9362
   7   2.0000     -10.030204      -272.9357
   8   2.0000     -10.027819      -272.8708
   9   2.0000      -0.987455       -26.8700
  10   2.0000      -0.829839       -22.5811
  11   2.0000      -0.752603       -20.4794
  12   2.0000      -0.714594       -19.4451
  13   2.0000      -0.682935       -18.5836
  14   2.0000      -0.592045       -16.1104
  15   2.0000      -0.573677       -15.6105
  16   2.0000      -0.544071       -14.8049
  17   2.0000      -0.490982       -13.3603
  18   2.0000      -0.468232       -12.7412
  19   2.0000      -0.444027       -12.0826
  20   2.0000      -0.415479       -11.3058
  21   2.0000      -0.407938       -11.1006
  22   2.0000      -0.388687       -10.5767
  23   2.0000      -0.385000       -10.4764
  24   2.0000      -0.369901       -10.0655
  25   2.0000      -0.341953        -9.3050
  26   2.0000      -0.331150        -9.0110
  27   2.0000      -0.308618        -8.3979
  28   2.0000      -0.301949        -8.2164
  29   2.0000      -0.300309        -8.1718
  30   2.0000      -0.244586        -6.6555
  31   2.0000      -0.236600        -6.4382
  32   2.0000      -0.229978        -6.2580
  33   0.0000      -0.032419        -0.8822
  34   0.0000      -0.031311        -0.8520
  35   0.0000       0.074175         2.0184
  36   0.0000       0.086376         2.3504
  37   0.0000       0.107767         2.9325

MULLIKEN ATOMIC CHARGES
-----------------------
   0 C :   -0.178901
   1 C :   -0.200203
   2 C :   -0.237131
   3 C :    0.126301
   4 C :   -0.236897
   5 C :   -0.200277
   6 C :   -0.264788
   7 C :   -0.170276
   8 O :   -0.506221
   9 H :    0.179160
  10 H :    0.177512
  11 H :    0.180208
  12 H :    0.180207
  13 H :    0.177526
  14 H :    0.165912
  15 H :    0.165656
  16 H :    0.147676
  17 H :    0.147909
  18 H :    0.346629
Sum of atomic charges:   -0.0000000

LOEWDIN ATOMIC CHARGES
----------------------
   0 C :   -0.184035
   1 C :   -0.173410
   2 C :   -0.168936
   3 C :   -0.100240
   4 C :   -0.168889
   5 C :   -0.173372
   6 C :   -0.255445
   7 C :    0.023393
   8 O :   -0.657529
   9 H :    0.176838
  10 H :    0.177344
  11 H :    0.180552
  12 H :    0.180585
  13 H :    0.177352
  14 H :    0.174497
  15 H :    0.174334
  16 H :    0.165266
  17 H :    0.165345
  18 H :    0.286352

  Mayer bond orders larger than 0.100000
B(  0-C ,  1-C ) :   1.3893 B(  0-C ,  5-C ) :   1.3887 B(  0-C ,  9-H ) :   0.9541
B(  1-C ,  2-C ) :   1.4069 B(  1-C , 10-H ) :   0.9575 B(  2-C ,  3-C ) :   1.3815
B(  2-C , 11-H ) :   0.9523 B(  3-C ,  4-C ) :   1.3806 B(  3-C ,  6-C ) :   0.8018
B(  4-C ,  5-C ) :   1.4072 B(  4-C , 12-H ) :   0.9524 B(  5-C , 13-H ) :   0.9576
B(  6-C ,  7-C ) :   0.9250 B(  6-C , 14-H ) :   0.9752 B(  6-C , 15-H ) :   0.9749
B(  7-C ,  8-O ) :   0.9180 B(  7-C , 16-H ) :   0.9707 B(  7-C , 17-H ) :   0.9711
B(  8-O , 18-H ) :   0.8732

Dispersion correction           -0.006024860
FINAL SINGLE POINT ENERGY      -385.999737253899

DIPOLE MOMENT
-------------

Method             : SCF
Type of density    : Electron Density
Multiplicity       :   1
Irrep              :   0
Energy             :  -386.0007343657154593 Eh
Relativity type    :
Basis              : AO
                                X                 Y                 Z
Electronic contribution:     -1.923185853      -0.007970409       0.312368596
Nuclear contribution   :      1.821485686       0.021328524      -1.081752920
                        -----------------------------------------
Total Dipole Moment    :     -0.101700166       0.013358115      -0.769384324
                        -----------------------------------------
Magnitude (a.u.)       :      0.776191729
Magnitude (Debye)      :      1.972922585

Rotational constants in cm-1:             0.149110             0.028824             0.025840
Rotational constants in MHz :          4470.207229           864.108919           774.666106

                             ****ORCA TERMINATED NORMALLY****
TOTAL RUN TIME: 0 days 0 hours 0 minutes 29 seconds 20 msec
