                         Program Version 6.0.0  -   RELEASE  -
|  1> ! r2scan-3c def2/J RI DEFGRID2 scfconv6 printgap
|  2> %output
|  3>     printlevel normal
|  4> end
|  5> * xyz 0 1
|  6> C -3.1034493599 0.7125647928 0.0093047186
|  7> C -1.6707433831 0.4791111648 -0.452290659
|  8> C -0.8603806662 -0.2729753336 0.614536346
|  9> C 0.5350568915 -0.5053465628 0.1034121166
| 10> O 0.8976366759 -1.4950964079 -0.49887127
| 11> O 1.3220021577 0.5311488195 0.3625165164
| 12> C 2.676693693 0.5119263813 -0.0984443994
| 13> H -3.6601911985 1.2470090228 -0.7554821372
| 14> H -3.601408071 -0.2344684994 0.200377102
| 15> H -3.1175332579 1.3011609701 0.9228184284
| 16> H -1.1875984861 1.4366578687 -0.6550373314
| 17> H -1.6690866778 -0.1039426326 -1.3756496748
| 18> H -1.3240292746 -1.2380870949 0.8163959541
| 19> H -0.8132700283 0.321962565 1.5256131373
| 20> H 2.9234702549 -0.4792122274 -0.4804975926
| 21> H 3.3080629492 0.7681187703 0.7492490683
| 22> H 2.779479806 1.2560663145 -0.8868334156
| 23> *
| 24>
| 25>                          ****END OF INPUT****

CARTESIAN COORDINATES (ANGSTROEM)
---------------------------------
  C     -3.103449    0.712565    0.009305
  C     -1.670743    0.479111   -0.452291
  C     -0.860381   -0.272975    0.614536
  C      0.535057   -0.505347    0.103412
  O      0.897637   -1.495096   -0.498871
  O      1.322002    0.531149    0.362517
  C      2.676694    0.511926   -0.098444
  H     -3.660191    1.247009   -0.755482
  H     -3.601408   -0.234468    0.200377
  H     -3.117533    1.301161    0.922818
  H     -1.187598    1.436658   -0.655037
  H     -1.669087   -0.103943   -1.375650
  H     -1.324029   -1.238087    0.816396
  H     -0.813270    0.321963    1.525613
  H      2.923470   -0.479212   -0.480498
  H      3.308063    0.768119    0.749249
  H      2.779480    1.256066   -0.886833

 Total Charge           Charge          ....    0
 Multiplicity           Mult            ....    1
 Number of Electrons    NEL             ....   56
 Basis Dimension        Dim             ....  193

ORBITAL ENERGIES
----------------

  NO   OCC          E(Eh)            E(eV)
   0   2.0000     -18.998916      -516.9868
   1   2.0000     -18.927300      -515.0380
   2   2.0000     -10.152180      -276.2549
   3   2.0000     -10.084942      -274.4252
   4   2.0000     -10.041492      -273.2429
   5   2.0000     -10.039745      -273.1954
   6   2.0000     -10.024196      -272.7723
   7   2.0000      -1.072152       -29.1747
   8   2.0000      -0.975228       -26.5373
   9   2.0000      -0.774531       -21.0761
  10   2.0000      -0.713128       -19.4052
  11   2.0000      -0.661632       -18.0039
  12   2.0000      -0.572338       -15.5741
  13   2.0000      -0.533939       -14.5292
  14   2.0000      -0.470242       -12.7959
  15   2.0000      -0.453390       -12.3374
  16   2.0000      -0.450989       -12.2720
  17   2.0000      -0.425132       -11.5684
  18   2.0000      -0.400134       -10.8882
  19   2.0000      -0.390941       -10.6380
  20   2.0000      -0.364463        -9.9175
  21   2.0000      -0.358793        -9.7633
  22   2.0000      -0.334020        -9.0892
  23   2.0000      -0.316852        -8.6220
  24   2.0000      -0.311508        -8.4766
  25   2.0000      -0.310164        -8.4400
  26   2.0000      -0.270992        -7.3741
  27   2.0000      -0.235055        -6.3962
  28   0.0000      -0.014198        -0.3864
  29   0.0000       0.066909         1.8207
  30   0.0000       0.096138         2.6161
  31   0.0000       0.103092         2.8053
  32   0.0000       0.129998         3.5374

MULLIKEN ATOMIC CHARGES
-----------------------
   0 C :   -0.471936
   1 C :   -0.233570
   2 C :   -0.329725
   3 C :    0.429272
   4 O :   -0.436361
   5 O :   -0.200462
   6 C :   -0.302247
   7 H :    0.150913
   8 H :    0.146448
   9 H :    0.144502
  10 H :    0.147402
  11 H :    0.154550
  12 H :    0.161607
  13 H :    0.154449
  14 H :    0.189269
  15 H :    0.147625
  16 H :    0.148265
Sum of atomic charges:    0.0000000

LOEWDIN ATOMIC CHARGES
----------------------
   0 C :   -0.419133
   1 C :   -0.287347
   2 C :   -0.228810
   3 C :    0.355102
   4 O :   -0.437850
   5 O :   -0.603366
   6 C :   -0.046164
   7 H :    0.153242
   8 H :    0.151567
   9 H :    0.150712
  10 H :    0.158245
  11 H :    0.160814
  12 H :    0.177222
  13 H :    0.176435
  14 H :    0.193183
  15 H :    0.173845
  16 H :    0.172300

  Mayer bond orders larger than 0.100000
B(  0-C ,  1-C ) :   0.8955 B(  0-C ,  7-H ) :   0.9719 B(  0-C ,  8-H ) :   0.9834
B(  0-C ,  9-H ) :   0.9846 B(  1-C ,  2-C ) :   0.9298 B(  1-C , 10-H ) :   0.9631
B(  1-C , 11-H ) :   0.9593 B(  2-C ,  3-C ) :   0.9785 B(  2-C , 12-H ) :   0.9737
B(  2-C , 13-H ) :   0.9726 B(  3-C ,  4-O ) :   1.8540 B(  3-C ,  5-O ) :   1.0375
B(  5-O ,  6-C ) :   0.8412 B(  6-C , 14-H ) :   0.9679 B(  6-C , 15-H ) :   0.9673
B(  6-C , 16-H ) :   0.9618

Dispersion correction           -0.003949968
FINAL SINGLE POINT ENERGY      -346.929756808281

DIPOLE MOMENT
-------------

Method             : SCF
Type of density    : Electron Density
Multiplicity       :   1
Irrep              :   0
Energy             :  -346.9365414389504281 Eh
Relativity type    :
Basis              : AO
                                X                 Y                 Z
Electronic contribution:      5.892472319      -3.206496369       0.201721482
Nuclear contribution   :     -5.935808577       3.996621816       0.055162994
                        -----------------------------------------
Total Dipole Moment    :     -0.043336258       0.790125447       0.256884476
                        -----------------------------------------
Magnitude (a.u.)       :      0.831965076
Magnitude (Debye)      :      2.114687166

Rotational constants in cm-1:             0.201553             0.044005             0.039566
Rotational constants in MHz :          6042.399804          1319.231552          1186.156871

                             ****ORCA TERMINATED NORMALLY****
TOTAL RUN TIME: 0 days 0 hours 0 minutes 22 seconds 771 msec
