                         Program Version 6.0.0  -   RELEASE  -
|  1> ! r2scan-3c def2/J RI DEFGRID2 scfconv6 printgap
|  2> %output
|  3>     printlevel normal
|  4> end
|  5> * xyz 0 1
|  6> C -2.231130166 0.8372032249 0.746078992
|  7> C -1.803447152 0.4029939057 -0.6505349951
|  8> C -0.9053137216 -0.8410144356 -0.6106463227
|  9> C 0.4072001608 -0.5358090908 0.0614574486
| 10> O 0.7793594377 -1.0016725779 1.1185271003
| 11> O 1.1325620003 0.3241767773 -0.6454943416
| 12> C 2.3992837202 0.7159608139 -0.1131764199
| 13> H -1.3628853503 1.057435782 1.3644688369
| 14> H -2.8518498551 1.7276195199 0.6934642939
| 15> H -2.7985125172 0.0479155046 1.2335278165
| 16> H -1.2627318691 1.2128451335 -1.1424829896
| 17> H -2.6877385188 0.1719610992 -1.2451786595
| 18> H -0.6935724654 -1.1662276918 -1.6294259309
| 19> H -1.3922620405 -1.6457903555 -0.060397409
| 20> H 3.0156986945 -0.1649667173 0.0703024179
| 21> H 2.2601521589 1.2520521597 0.8264742089
| 22> H 2.8473772542 1.3578754947 -0.8649441909
| 23> *
| 24>
| 25>                          ****END OF INPUT****

CARTESIAN COORDINATES (ANGSTROEM)
---------------------------------
  C     -2.231130    0.837203    0.746079
  C     -1.803447    0.402994   -0.650535
  C     -0.905314   -0.841014   -0.610646
  C      0.407200   -0.535809    0.061457
  O      0.779359   -1.001673    1.118527
  O      1.132562    0.324177   -0.645494
  C      2.399284    0.715961   -0.113176
  H     -1.362885    1.057436    1.364469
  H     -2.851850    1.727620    0.693464
  H     -2.798513    0.047916    1.233528
  H     -1.262732    1.212845   -1.142483
  H     -2.687739    0.171961   -1.245179
  H     -0.693572   -1.166228   -1.629426
  H     -1.392262   -1.645790   -0.060397
  H      3.015699   -0.164967    0.070302
  H      2.260152    1.252052    0.826474
  H      2.847377    1.357875   -0.864944

 Total Charge           Charge          ....    0
 Multiplicity           Mult            ....    1
 Number of Electrons    NEL             ....   56
 Basis Dimension        Dim             ....  193

ORBITAL ENERGIES
----------------

  NO   OCC          E(Eh)            E(eV)
   0   2.0000     -18.999822      -517.0114
   1   2.0000     -18.929055      -515.0858
   2   2.0000     -10.151987      -276.2496
   3   2.0000     -10.087750      -274.5016
   4   2.0000     -10.042274      -273.2642
   5   2.0000     -10.038167      -273.1524
   6   2.0000     -10.020295      -272.6661
   7   2.0000      -1.074047       -29.2263
   8   2.0000      -0.975708       -26.5504
   9   2.0000      -0.774739       -21.0817
  10   2.0000      -0.709567       -19.3083
  11   2.0000      -0.661147       -17.9907
  12   2.0000      -0.575329       -15.6555
  13   2.0000      -0.533897       -14.5281
  14   2.0000      -0.471463       -12.8291
  15   2.0000      -0.456784       -12.4297
  16   2.0000      -0.440491       -11.9864
  17   2.0000      -0.417744       -11.3674
  18   2.0000      -0.416110       -11.3229
  19   2.0000      -0.384374       -10.4594
  20   2.0000      -0.364473        -9.9178
  21   2.0000      -0.357639        -9.7318
  22   2.0000      -0.331658        -9.0249
  23   2.0000      -0.315844        -8.5946
  24   2.0000      -0.313590        -8.5332
  25   2.0000      -0.311108        -8.4657
  26   2.0000      -0.274290        -7.4638
  27   2.0000      -0.233447        -6.3524
  28   0.0000      -0.016913        -0.4602
  29   0.0000       0.062190         1.6923
  30   0.0000       0.094126         2.5613
  31   0.0000       0.112401         3.0586
  32   0.0000       0.122867         3.3434

MULLIKEN ATOMIC CHARGES
-----------------------
   0 C :   -0.480206
   1 C :   -0.233186
   2 C :   -0.297140
   3 C :    0.348656
   4 O :   -0.414138
   5 O :   -0.184282
   6 C :   -0.289383
   7 H :    0.156667
   8 H :    0.147597
   9 H :    0.148481
  10 H :    0.152333
  11 H :    0.146663
  12 H :    0.157435
  13 H :    0.167335
  14 H :    0.164085
  15 H :    0.158898
  16 H :    0.150183
Sum of atomic charges:    0.0000000

LOEWDIN ATOMIC CHARGES
----------------------
   0 C :   -0.415073
   1 C :   -0.292326
   2 C :   -0.230967
   3 C :    0.346523
   4 O :   -0.421008
   5 O :   -0.607590
   6 C :   -0.044283
   7 H :    0.156777
   8 H :    0.151699
   9 H :    0.153351
  10 H :    0.163252
  11 H :    0.153448
  12 H :    0.179307
  13 H :    0.177387
  14 H :    0.178193
  15 H :    0.175315
  16 H :    0.175996

  Mayer bond orders larger than 0.100000
B(  0-C ,  1-C ) :   0.9155 B(  0-C ,  7-H ) :   0.9711 B(  0-C ,  8-H ) :   0.9705
B(  0-C ,  9-H ) :   0.9776 B(  1-C ,  2-C ) :   0.8836 B(  1-C , 10-H ) :   0.9741
B(  1-C , 11-H ) :   0.9642 B(  2-C ,  3-C ) :   0.9588 B(  2-C , 12-H ) :   0.9471
B(  2-C , 13-H ) :   0.9985 B(  3-C ,  4-O ) :   1.8359 B(  3-C ,  5-O ) :   1.0399
B(  5-O ,  6-C ) :   0.8529 B(  6-C , 14-H ) :   0.9639 B(  6-C , 15-H ) :   0.9613
B(  6-C , 16-H ) :   0.9693

Dispersion correction           -0.004162260
FINAL SINGLE POINT ENERGY      -346.931510257894

DIPOLE MOMENT
-------------

Method             : SCF
Type of density    : Electron Density
Multiplicity       :   1
Irrep              :   0
Energy             :  -346.9379851271480675 Eh
Relativity type    :
Basis              : AO
                                X                 Y                 Z
Electronic contribution:      4.546880715      -3.090811039       0.037768981
Nuclear contribution   :     -4.593369631       3.602574481      -0.700544570
                        -----------------------------------------
Total Dipole Moment    :     -0.046488916       0.511763441      -0.662775589
                        -----------------------------------------
Magnitude (a.u.)       :      0.838650416
Magnitude (Debye)      :      2.131679951

Rotational constants in cm-1:             0.149222             0.054506             0.051339
Rotational constants in MHz :          4473.549997          1634.047961          1539.098884

                             ****ORCA TERMINATED NORMALLY****
TOTAL RUN TIME: 0 days 0 hours 0 minutes 25 seconds 804 msec
