                         Program Version 6.0.0  -   RELEASE  -
|  1> ! r2scan-3c def2/J RI DEFGRID2 scfconv6 printgap
|  2> %output
|  3>     printlevel normal
|  4> end
|  5> %cpcm
|  6>     smd true
|  7>     smdsolvent "water"
|  8> end
|  9> * xyz 0 1
| 10> C -2.231130166 0.8372032249 0.746078992
| 11> C -1.803447152 0.4029939057 -0.6505349951
| 12> C -0.9053137216 -0.8410144356 -0.6106463227
| 13> C 0.4072001608 -0.5358090908 0.0614574486
| 14> O 0.7793594377 -1.0016725779 1.1185271003
| 15> O 1.1325620003 0.3241767773 -0.6454943416
| 16> C 2.3992837202 0.7159608139 -0.1131764199
| 17> H -1.3628853503 1.057435782 1.3644688369
| 18> H -2.8518498551 1.7276195199 0.6934642939
| 19> H -2.7985125172 0.0479155046 1.2335278165
| 20> H -1.2627318691 1.2128451335 -1.1424829896
| 21> H -2.6877385188 0.1719610992 -1.2451786595
| 22> H -0.6935724654 -1.1662276918 -1.6294259309
| 23> H -1.3922620405 -1.6457903555 -0.060397409
| 24> H 3.0156986945 -0.1649667173 0.0703024179
| 25> H 2.2601521589 1.2520521597 0.8264742089
| 26> H 2.8473772542 1.3578754947 -0.8649441909
| 27> *
| 28>
| 29>                          ****END OF INPUT****

CARTESIAN COORDINATES (ANGSTROEM)
---------------------------------
  C     -2.231130    0.837203    0.746079
  C     -1.803447    0.402994   -0.650535
  C     -0.905314   -0.841014   -0.610646
  C      0.407200   -0.535809    0.061457
  O      0.779359   -1.001673    1.118527
  O      1.132562    0.324177   -0.645494
  C      2.399284    0.715961   -0.113176
  H     -1.362885    1.057436    1.364469
  H     -2.851850    1.727620    0.693464
  H     -2.798513    0.047916    1.233528
  H     -1.262732    1.212845   -1.142483
  H     -2.687739    0.171961   -1.245179
  H     -0.693572   -1.166228   -1.629426
  H     -1.392262   -1.645790   -0.060397
  H      3.015699   -0.164967    0.070302
  H      2.260152    1.252052    0.826474
  H      2.847377    1.357875   -0.864944

 Total Charge           Charge          ....    0
 Multiplicity           Mult            ....    1
 Number of Electrons    NEL             ....   56
 Basis Dimension        Dim             ....  193

ORBITAL ENERGIES
----------------

  NO   OCC          E(Eh)            E(eV)
   0   2.0000     -19.004218      -517.1311
   1   2.0000     -18.944805      -515.5143
   2   2.0000     -10.162200      -276.5275
   3   2.0000     -10.076747      -274.2022
   4   2.0000     -10.036026      -273.0942
   5   2.0000     -10.029300      -272.9111
   6   2.0000     -10.011705      -272.4323
   7   2.0000      -1.080309       -29.3967
   8   2.0000      -0.989067       -26.9139
   9   2.0000      -0.768962       -20.9245
  10   2.0000      -0.704100       -19.1595
  11   2.0000      -0.654194       -17.8015
  12   2.0000      -0.568814       -15.4782
  13   2.0000      -0.531172       -14.4539
  14   2.0000      -0.469673       -12.7804
  15   2.0000      -0.458307       -12.4712
  16   2.0000      -0.451200       -12.2778
  17   2.0000      -0.411680       -11.2024
  18   2.0000      -0.408390       -11.1129
  19   2.0000      -0.382901       -10.4193
  20   2.0000      -0.358582        -9.7575
  21   2.0000      -0.356910        -9.7120
  22   2.0000      -0.328724        -8.9450
  23   2.0000      -0.313987        -8.5440
  24   2.0000      -0.307893        -8.3782
  25   2.0000      -0.303063        -8.2468
  26   2.0000      -0.280029        -7.6200
  27   2.0000      -0.249131        -6.7792
  28   0.0000      -0.024576        -0.6687
  29   0.0000       0.068326         1.8592
  30   0.0000       0.102525         2.7899
  31   0.0000       0.122137         3.3235
  32   0.0000       0.130756         3.5580

MULLIKEN ATOMIC CHARGES
-----------------------
   0 C :   -0.528324
   1 C :   -0.223997
   2 C :   -0.319535
   3 C :    0.391390
   4 O :   -0.502214
   5 O :   -0.197177
   6 C :   -0.325013
   7 H :    0.161889
   8 H :    0.161886
   9 H :    0.162834
  10 H :    0.156061
  11 H :    0.164331
  12 H :    0.185580
  13 H :    0.177757
  14 H :    0.177558
  15 H :    0.178580
  16 H :    0.178394
Sum of atomic charges:   -0.0000000

LOEWDIN ATOMIC CHARGES
----------------------
   0 C :   -0.423284
   1 C :   -0.288714
   2 C :   -0.228962
   3 C :    0.356266
   4 O :   -0.484040
   5 O :   -0.607544
   6 C :   -0.041884
   7 H :    0.156115
   8 H :    0.156371
   9 H :    0.156163
  10 H :    0.164417
  11 H :    0.160497
  12 H :    0.190433
  13 H :    0.181509
  14 H :    0.182590
  15 H :    0.181772
  16 H :    0.188296

  Mayer bond orders larger than 0.100000
B(  0-C ,  1-C ) :   0.8986 B(  0-C ,  7-H ) :   0.9706 B(  0-C ,  8-H ) :   0.9664
B(  0-C ,  9-H ) :   0.9766 B(  1-C ,  2-C ) :   0.8750 B(  1-C , 10-H ) :   0.9730
B(  1-C , 11-H ) :   0.9612 B(  2-C ,  3-C ) :   0.9592 B(  2-C , 12-H ) :   0.9381
B(  2-C , 13-H ) :   0.9944 B(  3-C ,  4-O ) :   1.7654 B(  3-C ,  5-O ) :   1.0694
B(  5-O ,  6-C ) :   0.8328 B(  6-C , 14-H ) :   0.9588 B(  6-C , 15-H ) :   0.9558
B(  6-C , 16-H ) :   0.9594

Dispersion correction           -0.004162260
FINAL SINGLE POINT ENERGY      -346.936861714926

DIPOLE MOMENT
-------------

Method             : SCF
Type of density    : Electron Density
Multiplicity       :   1
Irrep              :   0
Energy             :  -346.9433365841799741 Eh
Relativity type    :
Basis              : AO
                                X                 Y                 Z
Electronic contribution:      4.495039352      -2.912413531      -0.274280604
Nuclear contribution   :     -4.593369631       3.602574481      -0.700544570
                        -----------------------------------------
Total Dipole Moment    :     -0.098330278       0.690160950      -0.974825174
                        -----------------------------------------
Magnitude (a.u.)       :      1.198446954
Magnitude (Debye)      :      3.046210070

Rotational constants in cm-1:             0.149222             0.054506             0.051339
Rotational constants in MHz :          4473.549997          1634.047961          1539.098884

                             ****ORCA TERMINATED NORMALLY****
TOTAL RUN TIME: 0 days 0 hours 0 minutes 30 seconds 154 msec
