                         Program Version 6.0.0  -   RELEASE  -
|  1> ! r2scan-3c def2/J RI DEFGRID2 scfconv6 printgap
|  2> %output
|  3>     printlevel normal
|  4> end
|  5> * xyz 0 1
|  6> C -2.2113927644 0.6933316393 -0.123154539
|  7> C -1.5006713995 -0.5257751344 0.4509266203
|  8> C -0.2355751611 -0.9040664671 -0.33358707
|  9> C 0.9204974029 0.0381622146 -0.0859725646
| 10> O 0.8113370791 1.2481244053 -0.1273489013
| 11> C 2.2277205039 -0.6340256618 0.2166394735
| 12> H -3.0818563373 0.9418075539 0.4790516203
| 13> H -2.5399030676 0.4990293824 -1.1419175539
| 14> H -1.5422043114 1.5498295997 -0.1340560948
| 15> H -2.1810374777 -1.3793191277 0.4360079858
| 16> H -1.2302472585 -0.3313253687 1.4912094092
| 17> H 0.0663968725 -1.9196421803 -0.081358755
| 18> H -0.4631247519 -0.8669290019 -1.4019541441
| 19> H 2.1349575097 -1.1794582171 1.1532459092
| 20> H 3.0236204277 0.1009071519 0.300662124
| 21> H 2.4607500086 -1.3501138496 -0.5671853232
| 22> *
| 23>
| 24>                          ****END OF INPUT****

CARTESIAN COORDINATES (ANGSTROEM)
---------------------------------
  C     -2.211393    0.693332   -0.123155
  C     -1.500671   -0.525775    0.450927
  C     -0.235575   -0.904066   -0.333587
  C      0.920497    0.038162   -0.085973
  O      0.811337    1.248124   -0.127349
  C      2.227721   -0.634026    0.216639
  H     -3.081856    0.941808    0.479052
  H     -2.539903    0.499029   -1.141918
  H     -1.542204    1.549830   -0.134056
  H     -2.181037   -1.379319    0.436008
  H     -1.230247   -0.331325    1.491209
  H      0.066397   -1.919642   -0.081359
  H     -0.463125   -0.866929   -1.401954
  H      2.134958   -1.179458    1.153246
  H      3.023620    0.100907    0.300662
  H      2.460750   -1.350114   -0.567185

 Total Charge           Charge          ....    0
 Multiplicity           Mult            ....    1
 Number of Electrons    NEL             ....   48
 Basis Dimension        Dim             ....  169

ORBITAL ENERGIES
----------------

  NO   OCC          E(Eh)            E(eV)
   0   2.0000     -18.937232      -515.3083
   1   2.0000     -10.119748      -275.3723
   2   2.0000     -10.038715      -273.1673
   3   2.0000     -10.035354      -273.0759
   4   2.0000     -10.034589      -273.0551
   5   2.0000     -10.008856      -272.3548
   6   2.0000      -1.004043       -27.3214
   7   2.0000      -0.768361       -20.9082
   8   2.0000      -0.721219       -19.6254
   9   2.0000      -0.659350       -17.9418
  10   2.0000      -0.569223       -15.4894
  11   2.0000      -0.497222       -13.5301
  12   2.0000      -0.446078       -12.1384
  13   2.0000      -0.436044       -11.8654
  14   2.0000      -0.419894       -11.4259
  15   2.0000      -0.395566       -10.7639
  16   2.0000      -0.382867       -10.4183
  17   2.0000      -0.373422       -10.1613
  18   2.0000      -0.350260        -9.5311
  19   2.0000      -0.330189        -8.9849
  20   2.0000      -0.311282        -8.4704
  21   2.0000      -0.309609        -8.4249
  22   2.0000      -0.305546        -8.3143
  23   2.0000      -0.210921        -5.7395
  24   0.0000      -0.046573        -1.2673
  25   0.0000       0.077186         2.1003
  26   0.0000       0.110678         3.0117
  27   0.0000       0.117933         3.2091
  28   0.0000       0.127203         3.4614

MULLIKEN ATOMIC CHARGES
-----------------------
   0 C :   -0.510551
   1 C :   -0.212280
   2 C :   -0.275514
   3 C :    0.296774
   4 O :   -0.358543
   5 C :   -0.511056
   6 H :    0.141126
   7 H :    0.136649
   8 H :    0.193619
   9 H :    0.146827
  10 H :    0.135295
  11 H :    0.150382
  12 H :    0.166051
  13 H :    0.163567
  14 H :    0.176760
  15 H :    0.160893
Sum of atomic charges:   -0.0000000

LOEWDIN ATOMIC CHARGES
----------------------
   0 C :   -0.422348
   1 C :   -0.293357
   2 C :   -0.289147
   3 C :    0.219512
   4 O :   -0.472781
   5 C :   -0.386877
   6 H :    0.148614
   7 H :    0.147961
   8 H :    0.174407
   9 H :    0.152331
  10 H :    0.156554
  11 H :    0.162391
  12 H :    0.183895
  13 H :    0.174179
  14 H :    0.172845
  15 H :    0.171821

  Mayer bond orders larger than 0.100000
B(  0-C ,  1-C ) :   0.9092 B(  0-C ,  6-H ) :   0.9719 B(  0-C ,  7-H ) :   0.9805
B(  0-C ,  8-H ) :   0.9708 B(  1-C ,  2-C ) :   0.8874 B(  1-C ,  9-H ) :   0.9735
B(  1-C , 10-H ) :   0.9790 B(  2-C ,  3-C ) :   0.8853 B(  2-C , 11-H ) :   0.9580
B(  2-C , 12-H ) :   0.9455 B(  3-C ,  4-O ) :   1.9269 B(  3-C ,  5-C ) :   0.9305
B(  5-C , 13-H ) :   0.9456 B(  5-C , 14-H ) :   0.9871 B(  5-C , 15-H ) :   0.9488

Dispersion correction           -0.003750515
FINAL SINGLE POINT ENERGY      -271.701079959648

DIPOLE MOMENT
-------------

Method             : SCF
Type of density    : Electron Density
Multiplicity       :   1
Irrep              :   0
Energy             :  -271.7047894209291599 Eh
Relativity type    :
Basis              : AO
                                X                 Y                 Z
Electronic contribution:      3.200370953       2.575429702      -0.443744914
Nuclear contribution   :     -3.133296000      -3.673347181       0.498813538
                        -----------------------------------------
Total Dipole Moment    :      0.067074954      -1.097917479       0.055068623
                        -----------------------------------------
Magnitude (a.u.)       :      1.101342088
Magnitude (Debye)      :      2.799389116

Rotational constants in cm-1:             0.230686             0.074816             0.061475
Rotational constants in MHz :          6915.786381          2242.930830          1842.974767

                             ****ORCA TERMINATED NORMALLY****
TOTAL RUN TIME: 0 days 0 hours 0 minutes 23 seconds 56 msec
