                         Program Version 6.0.0  -   RELEASE  -
|  1> ! r2scan-3c def2/J RI DEFGRID2 scfconv6 printgap
|  2> %output
|  3>     printlevel normal
|  4> end
|  5> %cpcm
|  6>     smd true
|  7>     smdsolvent "water"
|  8> end
|  9> * xyz 0 1
| 10> C -2.2113927644 0.6933316393 -0.123154539
| 11> C -1.5006713995 -0.5257751344 0.4509266203
| 12> C -0.2355751611 -0.9040664671 -0.33358707
| 13> C 0.9204974029 0.0381622146 -0.0859725646
| 14> O 0.8113370791 1.2481244053 -0.1273489013
| 15> C 2.2277205039 -0.6340256618 0.2166394735
| 16> H -3.0818563373 0.9418075539 0.4790516203
| 17> H -2.5399030676 0.4990293824 -1.1419175539
| 18> H -1.5422043114 1.5498295997 -0.1340560948
| 19> H -2.1810374777 -1.3793191277 0.4360079858
| 20> H -1.2302472585 -0.3313253687 1.4912094092
| 21> H 0.0663968725 -1.9196421803 -0.081358755
| 22> H -0.4631247519 -0.8669290019 -1.4019541441
| 23> H 2.1349575097 -1.1794582171 1.1532459092
| 24> H 3.0236204277 0.1009071519 0.300662124
| 25> H 2.4607500086 -1.3501138496 -0.5671853232
| 26> *
| 27>
| 28>                          ****END OF INPUT****

CARTESIAN COORDINATES (ANGSTROEM)
---------------------------------
  C     -2.211393    0.693332   -0.123155
  C     -1.500671   -0.525775    0.450927
  C     -0.235575   -0.904066   -0.333587
  C      0.920497    0.038162   -0.085973
  O      0.811337    1.248124   -0.127349
  C      2.227721   -0.634026    0.216639
  H     -3.081856    0.941808    0.479052
  H     -2.539903    0.499029   -1.141918
  H     -1.542204    1.549830   -0.134056
  H     -2.181037   -1.379319    0.436008
  H     -1.230247   -0.331325    1.491209
  H      0.066397   -1.919642   -0.081359
  H     -0.463125   -0.866929   -1.401954
  H      2.134958   -1.179458    1.153246
  H      3.023620    0.100907    0.300662
  H      2.460750   -1.350114   -0.567185

 Total Charge           Charge          ....    0
 Multiplicity           Mult            ....    1
 Number of Electrons    NEL             ....   48
 Basis Dimension        Dim             ....  169

ORBITAL ENERGIES
----------------

  NO   OCC          E(Eh)            E(eV)
   0   2.0000     -18.944186      -515.4975
   1   2.0000     -10.123832      -275.4835
   2   2.0000     -10.027278      -272.8561
   3   2.0000     -10.025946      -272.8199
   4   2.0000     -10.021664      -272.7033
   5   2.0000     -10.006424      -272.2886
   6   2.0000      -1.013617       -27.5819
   7   2.0000      -0.760113       -20.6837
   8   2.0000      -0.712601       -19.3909
   9   2.0000      -0.651740       -17.7348
  10   2.0000      -0.562772       -15.3138
  11   2.0000      -0.493379       -13.4255
  12   2.0000      -0.442705       -12.0466
  13   2.0000      -0.430882       -11.7249
  14   2.0000      -0.413532       -11.2528
  15   2.0000      -0.387789       -10.5523
  16   2.0000      -0.383126       -10.4254
  17   2.0000      -0.363860        -9.9011
  18   2.0000      -0.344685        -9.3794
  19   2.0000      -0.331910        -9.0317
  20   2.0000      -0.308805        -8.4030
  21   2.0000      -0.301108        -8.1936
  22   2.0000      -0.299018        -8.1367
  23   2.0000      -0.217686        -5.9235
  24   0.0000      -0.046894        -1.2761
  25   0.0000       0.088424         2.4061
  26   0.0000       0.122984         3.3466
  27   0.0000       0.128873         3.5068
  28   0.0000       0.133547         3.6340

MULLIKEN ATOMIC CHARGES
-----------------------
   0 C :   -0.546811
   1 C :   -0.231660
   2 C :   -0.276659
   3 C :    0.330429
   4 O :   -0.457983
   5 C :   -0.540652
   6 H :    0.154862
   7 H :    0.156102
   8 H :    0.172374
   9 H :    0.163291
  10 H :    0.151434
  11 H :    0.174202
  12 H :    0.189505
  13 H :    0.194704
  14 H :    0.175861
  15 H :    0.191000
Sum of atomic charges:   -0.0000000

LOEWDIN ATOMIC CHARGES
----------------------
   0 C :   -0.431622
   1 C :   -0.293769
   2 C :   -0.281950
   3 C :    0.238104
   4 O :   -0.546365
   5 C :   -0.384619
   6 H :    0.151989
   7 H :    0.153089
   8 H :    0.163726
   9 H :    0.158927
  10 H :    0.160037
  11 H :    0.174111
  12 H :    0.192793
  13 H :    0.188249
  14 H :    0.171613
  15 H :    0.185688

  Mayer bond orders larger than 0.100000
B(  0-C ,  1-C ) :   0.8930 B(  0-C ,  6-H ) :   0.9695 B(  0-C ,  7-H ) :   0.9777
B(  0-C ,  8-H ) :   0.9769 B(  1-C ,  2-C ) :   0.8662 B(  1-C ,  9-H ) :   0.9699
B(  1-C , 10-H ) :   0.9815 B(  2-C ,  3-C ) :   0.9027 B(  2-C , 11-H ) :   0.9494
B(  2-C , 12-H ) :   0.9399 B(  3-C ,  4-O ) :   1.8557 B(  3-C ,  5-C ) :   0.9476
B(  5-C , 13-H ) :   0.9313 B(  5-C , 14-H ) :   0.9848 B(  5-C , 15-H ) :   0.9349

Dispersion correction           -0.003750515
FINAL SINGLE POINT ENERGY      -271.706655234549

DIPOLE MOMENT
-------------

Method             : SCF
Type of density    : Electron Density
Multiplicity       :   1
Irrep              :   0
Energy             :  -271.7103646958303216 Eh
Relativity type    :
Basis              : AO
                                X                 Y                 Z
Electronic contribution:      3.211542508       1.989531029      -0.426059182
Nuclear contribution   :     -3.133296000      -3.673347181       0.498813538
                        -----------------------------------------
Total Dipole Moment    :      0.078246509      -1.683816152       0.072754355
                        -----------------------------------------
Magnitude (a.u.)       :      1.687202580
Magnitude (Debye)      :      4.288528144

Rotational constants in cm-1:             0.230686             0.074816             0.061475
Rotational constants in MHz :          6915.786381          2242.930830          1842.974767

                             ****ORCA TERMINATED NORMALLY****
TOTAL RUN TIME: 0 days 0 hours 0 minutes 25 seconds 913 msec
