                         Program Version 6.0.0  -   RELEASE  -
|  1> ! r2scan-3c def2/J RI DEFGRID2 scfconv6 printgap
|  2> %output
|  3>     printlevel normal
|  4> end
|  5> * xyz 0 1
|  6> C 1.8399493433 -1.0545102346 0.4059084898
|  7> C 1.2874875542 0.3025580664 0.8247841881
|  8> C 0.171889563 0.8711388248 -0.0644795208
|  9> H -0.0415000938 1.8805373031 0.3344842713
| 10> C -1.1829809729 0.1226256558 -0.084905543
| 11> C -1.1469104784 -1.2036764854 -0.8445561943
| 12> C -1.741529989 -0.0684275459 1.3223066396
| 13> O 0.7023726244 1.006169023 -1.3734486706
| 14> H 1.1537555942 -1.8585905426 0.6506924495
| 15> H 2.7779896402 -1.240999194 0.923647989
| 16> H 2.0277559913 -1.0622786972 -0.664020188
| 17> H 0.9309168228 0.2668323619 1.8538114019
| 18> H 2.1018470225 1.0298350151 0.7796653874
| 19> H -1.8681077247 0.7889634417 -0.6272164958
| 20> H -2.1492803738 -1.4695324005 -1.1724988287
| 21> H -0.5051847246 -1.1229171682 -1.7181875633
| 22> H -0.7753214853 -2.0070508591 -0.2165688852
| 23> H -2.7582282578 -0.4493597299 1.2656784001
| 24> H -1.7557571555 0.8754330799 1.8628635956
| 25> H -1.1425013921 -0.7813489908 1.8822955601
| 26> H 0.055101636 1.4563928117 -1.9316008502
| 27> *
| 28>
| 29>                          ****END OF INPUT****

CARTESIAN COORDINATES (ANGSTROEM)
---------------------------------
  C      1.839949   -1.054510    0.405908
  C      1.287488    0.302558    0.824784
  C      0.171890    0.871139   -0.064480
  H     -0.041500    1.880537    0.334484
  C     -1.182981    0.122626   -0.084906
  C     -1.146910   -1.203676   -0.844556
  C     -1.741530   -0.068428    1.322307
  O      0.702373    1.006169   -1.373449
  H      1.153756   -1.858591    0.650692
  H      2.777990   -1.240999    0.923648
  H      2.027756   -1.062279   -0.664020
  H      0.930917    0.266832    1.853811
  H      2.101847    1.029835    0.779665
  H     -1.868108    0.788963   -0.627216
  H     -2.149280   -1.469532   -1.172499
  H     -0.505185   -1.122917   -1.718188
  H     -0.775321   -2.007051   -0.216569
  H     -2.758228   -0.449360    1.265678
  H     -1.755757    0.875433    1.862864
  H     -1.142501   -0.781349    1.882296
  H      0.055102    1.456393   -1.931601

 Total Charge           Charge          ....    0
 Multiplicity           Mult            ....    1
 Number of Electrons    NEL             ....   58
 Basis Dimension        Dim             ....  208

ORBITAL ENERGIES
----------------

  NO   OCC          E(Eh)            E(eV)
   0   2.0000     -18.945341      -515.5289
   1   2.0000     -10.077073      -274.2111
   2   2.0000     -10.035041      -273.0673
   3   2.0000     -10.022488      -272.7258
   4   2.0000     -10.019733      -272.6508
   5   2.0000     -10.010542      -272.4007
   6   2.0000     -10.008992      -272.3585
   7   2.0000      -0.983745       -26.7691
   8   2.0000      -0.771300       -20.9881
   9   2.0000      -0.725432       -19.7400
  10   2.0000      -0.652207       -17.7474
  11   2.0000      -0.638552       -17.3759
  12   2.0000      -0.568203       -15.4616
  13   2.0000      -0.520944       -14.1756
  14   2.0000      -0.468854       -12.7582
  15   2.0000      -0.448692       -12.2095
  16   2.0000      -0.409935       -11.1549
  17   2.0000      -0.393875       -10.7179
  18   2.0000      -0.385472       -10.4892
  19   2.0000      -0.371912       -10.1202
  20   2.0000      -0.355290        -9.6679
  21   2.0000      -0.346173        -9.4199
  22   2.0000      -0.333614        -9.0781
  23   2.0000      -0.313114        -8.5203
  24   2.0000      -0.312127        -8.4934
  25   2.0000      -0.299083        -8.1385
  26   2.0000      -0.295005        -8.0275
  27   2.0000      -0.268797        -7.3143
  28   2.0000      -0.230829        -6.2812
  29   0.0000       0.058598         1.5945
  30   0.0000       0.091320         2.4850
  31   0.0000       0.110384         3.0037
  32   0.0000       0.119672         3.2565
  33   0.0000       0.129619         3.5271

MULLIKEN ATOMIC CHARGES
-----------------------
   0 C :   -0.500881
   1 C :   -0.274004
   2 C :    0.034039
   3 H :    0.132148
   4 C :   -0.020599
   5 C :   -0.516066
   6 C :   -0.525267
   7 O :   -0.436388
   8 H :    0.135593
   9 H :    0.144344
  10 H :    0.178548
  11 H :    0.147272
  12 H :    0.146010
  13 H :    0.139683
  14 H :    0.148224
  15 H :    0.176240
  16 H :    0.143089
  17 H :    0.148824
  18 H :    0.149834
  19 H :    0.160789
  20 H :    0.288569
Sum of atomic charges:    0.0000000

LOEWDIN ATOMIC CHARGES
----------------------
   0 C :   -0.416560
   1 C :   -0.277301
   2 C :    0.056398
   3 H :    0.166624
   4 C :   -0.225907
   5 C :   -0.411674
   6 C :   -0.411716
   7 O :   -0.626602
   8 H :    0.146539
   9 H :    0.149701
  10 H :    0.165480
  11 H :    0.158971
  12 H :    0.165003
  13 H :    0.155809
  14 H :    0.151693
  15 H :    0.168164
  16 H :    0.152132
  17 H :    0.155664
  18 H :    0.154819
  19 H :    0.154103
  20 H :    0.268659

  Mayer bond orders larger than 0.100000
B(  0-C ,  1-C ) :   0.8772 B(  0-C ,  8-H ) :   0.9767 B(  0-C ,  9-H ) :   0.9677
B(  0-C , 10-H ) :   0.9841 B(  1-C ,  2-C ) :   0.9466 B(  1-C , 11-H ) :   0.9759
B(  1-C , 12-H ) :   0.9557 B(  2-C ,  3-H ) :   0.9655 B(  2-C ,  4-C ) :   0.9077
B(  2-C ,  7-O ) :   0.9050 B(  4-C ,  5-C ) :   0.8786 B(  4-C ,  6-C ) :   0.8968
B(  4-C , 13-H ) :   0.9619 B(  5-C , 14-H ) :   0.9681 B(  5-C , 15-H ) :   0.9762
B(  5-C , 16-H ) :   0.9759 B(  6-C , 17-H ) :   0.9653 B(  6-C , 18-H ) :   0.9737
B(  6-C , 19-H ) :   0.9846 B(  7-O , 20-H ) :   0.8991

Dispersion correction           -0.005917027
FINAL SINGLE POINT ENERGY      -312.198605238061

DIPOLE MOMENT
-------------

Method             : SCF
Type of density    : Electron Density
Multiplicity       :   1
Irrep              :   0
Energy             :  -312.2040721934126282 Eh
Relativity type    :
Basis              : AO
                                X                 Y                 Z
Electronic contribution:      1.302731969       3.657391537      -2.874536300
Nuclear contribution   :     -1.817601522      -3.450722218       3.003361455
                        -----------------------------------------
Total Dipole Moment    :     -0.514869553       0.206669320       0.128825155
                        -----------------------------------------
Magnitude (a.u.)       :      0.569560168
Magnitude (Debye)      :      1.447706896

Rotational constants in cm-1:             0.098329             0.067110             0.060370
Rotational constants in MHz :          2947.840595          2011.901158          1809.852509

                             ****ORCA TERMINATED NORMALLY****
TOTAL RUN TIME: 0 days 0 hours 0 minutes 28 seconds 380 msec
