                         Program Version 6.0.0  -   RELEASE  -
|  1> ! r2scan-3c def2/J RI DEFGRID2 scfconv6 printgap
|  2> %output
|  3>     printlevel normal
|  4> end
|  5> %cpcm
|  6>     smd true
|  7>     smdsolvent "water"
|  8> end
|  9> * xyz 0 1
| 10> C 1.8399493433 -1.0545102346 0.4059084898
| 11> C 1.2874875542 0.3025580664 0.8247841881
| 12> C 0.171889563 0.8711388248 -0.0644795208
| 13> H -0.0415000938 1.8805373031 0.3344842713
| 14> C -1.1829809729 0.1226256558 -0.084905543
| 15> C -1.1469104784 -1.2036764854 -0.8445561943
| 16> C -1.741529989 -0.0684275459 1.3223066396
| 17> O 0.7023726244 1.006169023 -1.3734486706
| 18> H 1.1537555942 -1.8585905426 0.6506924495
| 19> H 2.7779896402 -1.240999194 0.923647989
| 20> H 2.0277559913 -1.0622786972 -0.664020188
| 21> H 0.9309168228 0.2668323619 1.8538114019
| 22> H 2.1018470225 1.0298350151 0.7796653874
| 23> H -1.8681077247 0.7889634417 -0.6272164958
| 24> H -2.1492803738 -1.4695324005 -1.1724988287
| 25> H -0.5051847246 -1.1229171682 -1.7181875633
| 26> H -0.7753214853 -2.0070508591 -0.2165688852
| 27> H -2.7582282578 -0.4493597299 1.2656784001
| 28> H -1.7557571555 0.8754330799 1.8628635956
| 29> H -1.1425013921 -0.7813489908 1.8822955601
| 30> H 0.055101636 1.4563928117 -1.9316008502
| 31> *
| 32>
| 33>                          ****END OF INPUT****

CARTESIAN COORDINATES (ANGSTROEM)
---------------------------------
  C      1.839949   -1.054510    0.405908
  C      1.287488    0.302558    0.824784
  C      0.171890    0.871139   -0.064480
  H     -0.041500    1.880537    0.334484
  C     -1.182981    0.122626   -0.084906
  C     -1.146910   -1.203676   -0.844556
  C     -1.741530   -0.068428    1.322307
  O      0.702373    1.006169   -1.373449
  H      1.153756   -1.858591    0.650692
  H      2.777990   -1.240999    0.923648
  H      2.027756   -1.062279   -0.664020
  H      0.930917    0.266832    1.853811
  H      2.101847    1.029835    0.779665
  H     -1.868108    0.788963   -0.627216
  H     -2.149280   -1.469532   -1.172499
  H     -0.505185   -1.122917   -1.718188
  H     -0.775321   -2.007051   -0.216569
  H     -2.758228   -0.449360    1.265678
  H     -1.755757    0.875433    1.862864
  H     -1.142501   -0.781349    1.882296
  H      0.055102    1.456393   -1.931601

 Total Charge           Charge          ....    0
 Multiplicity           Mult            ....    1
 Number of Electrons    NEL             ....   58
 Basis Dimension        Dim             ....  208

ORBITAL ENERGIES
----------------

  NO   OCC          E(Eh)            E(eV)
   0   2.0000     -18.946694      -515.5658
   1   2.0000     -10.071305      -274.0542
   2   2.0000     -10.025303      -272.8024
   3   2.0000     -10.017559      -272.5916
   4   2.0000     -10.008561      -272.3468
   5   2.0000     -10.006675      -272.2955
   6   2.0000     -10.004115      -272.2258
   7   2.0000      -0.984016       -26.7764
   8   2.0000      -0.763728       -20.7821
   9   2.0000      -0.720591       -19.6083
  10   2.0000      -0.645417       -17.5627
  11   2.0000      -0.632903       -17.2222
  12   2.0000      -0.562223       -15.2989
  13   2.0000      -0.516029       -14.0419
  14   2.0000      -0.463150       -12.6030
  15   2.0000      -0.441963       -12.0264
  16   2.0000      -0.403765       -10.9870
  17   2.0000      -0.391647       -10.6573
  18   2.0000      -0.380103       -10.3431
  19   2.0000      -0.365286        -9.9400
  20   2.0000      -0.348521        -9.4837
  21   2.0000      -0.342350        -9.3158
  22   2.0000      -0.327396        -8.9089
  23   2.0000      -0.310681        -8.4541
  24   2.0000      -0.305976        -8.3260
  25   2.0000      -0.294525        -8.0144
  26   2.0000      -0.290341        -7.9006
  27   2.0000      -0.262918        -7.1544
  28   2.0000      -0.231595        -6.3020
  29   0.0000       0.074247         2.0204
  30   0.0000       0.103035         2.8037
  31   0.0000       0.118374         3.2211
  32   0.0000       0.127989         3.4828
  33   0.0000       0.134830         3.6689

MULLIKEN ATOMIC CHARGES
-----------------------
   0 C :   -0.535486
   1 C :   -0.287221
   2 C :    0.039263
   3 H :    0.143936
   4 C :    0.006458
   5 C :   -0.571350
   6 C :   -0.561348
   7 O :   -0.518902
   8 H :    0.158121
   9 H :    0.157313
  10 H :    0.167695
  11 H :    0.163406
  12 H :    0.153646
  13 H :    0.159430
  14 H :    0.161589
  15 H :    0.168458
  16 H :    0.160100
  17 H :    0.159357
  18 H :    0.161316
  19 H :    0.171940
  20 H :    0.342276
Sum of atomic charges:    0.0000000

LOEWDIN ATOMIC CHARGES
----------------------
   0 C :   -0.425360
   1 C :   -0.281152
   2 C :    0.058032
   3 H :    0.173669
   4 C :   -0.220294
   5 C :   -0.419688
   6 C :   -0.417875
   7 O :   -0.660049
   8 H :    0.153203
   9 H :    0.153022
  10 H :    0.159174
  11 H :    0.165536
  12 H :    0.164024
  13 H :    0.163887
  14 H :    0.155487
  15 H :    0.163175
  16 H :    0.155377
  17 H :    0.158002
  18 H :    0.158270
  19 H :    0.157027
  20 H :    0.286532

  Mayer bond orders larger than 0.100000
B(  0-C ,  1-C ) :   0.8567 B(  0-C ,  8-H ) :   0.9744 B(  0-C ,  9-H ) :   0.9647
B(  0-C , 10-H ) :   0.9863 B(  1-C ,  2-C ) :   0.9381 B(  1-C , 11-H ) :   0.9708
B(  1-C , 12-H ) :   0.9633 B(  2-C ,  3-H ) :   0.9608 B(  2-C ,  4-C ) :   0.9183
B(  2-C ,  7-O ) :   0.8929 B(  4-C ,  5-C ) :   0.8606 B(  4-C ,  6-C ) :   0.8884
B(  4-C , 13-H ) :   0.9602 B(  5-C , 14-H ) :   0.9654 B(  5-C , 15-H ) :   0.9789
B(  5-C , 16-H ) :   0.9762 B(  6-C , 17-H ) :   0.9641 B(  6-C , 18-H ) :   0.9710
B(  6-C , 19-H ) :   0.9800 B(  7-O , 20-H ) :   0.8737

Dispersion correction           -0.005917027
FINAL SINGLE POINT ENERGY      -312.203442061255

DIPOLE MOMENT
-------------

Method             : SCF
Type of density    : Electron Density
Multiplicity       :   1
Irrep              :   0
Energy             :  -312.2089090166065830 Eh
Relativity type    :
Basis              : AO
                                X                 Y                 Z
Electronic contribution:      1.024026488       3.754369642      -2.747576952
Nuclear contribution   :     -1.817601522      -3.450722218       3.003361455
                        -----------------------------------------
Total Dipole Moment    :     -0.793575034       0.303647424       0.255784503
                        -----------------------------------------
Magnitude (a.u.)       :      0.887349314
Magnitude (Debye)      :      2.255462711

Rotational constants in cm-1:             0.098329             0.067110             0.060370
Rotational constants in MHz :          2947.840595          2011.901158          1809.852509

                             ****ORCA TERMINATED NORMALLY****
TOTAL RUN TIME: 0 days 0 hours 0 minutes 33 seconds 495 msec
