                         Program Version 6.0.0  -   RELEASE  -
|  1> ! r2scan-3c def2/J RI DEFGRID2 scfconv6 printgap
|  2> %output
|  3>     printlevel normal
|  4> end
|  5> * xyz 0 1
|  6> C 2.0702416098 -1.3782249368 -0.1719317837
|  7> C 1.6693260791 0.0846879533 -0.3072294325
|  8> C 0.3283946191 0.4476035778 0.3514309041
|  9> H 0.3689404376 0.1752136086 1.4193230393
| 10> C -0.8733008812 -0.2882559942 -0.292563558
| 11> C -1.2645518584 -1.5173608304 0.5275907771
| 12> C -2.0911103466 0.6249139289 -0.4355120762
| 13> O 0.1228035605 1.8493636443 0.2500621737
| 14> H 3.0724141158 -1.5212316569 -0.5686150235
| 15> H 1.3930809471 -2.0238428839 -0.7234615488
| 16> H 2.0694093997 -1.6783684472 0.8735346708
| 17> H 2.4466508559 0.7019540486 0.1524091565
| 18> H 1.6129376009 0.3592814237 -1.363207736
| 19> H -0.5768040742 -0.6086298868 -1.2968089414
| 20> H -1.6327176868 -1.211662327 1.5046998971
| 21> H -2.0562603827 -2.0632313751 0.0201710177
| 22> H -0.422896506 -2.1874182765 0.6717184214
| 23> H -2.9102010268 0.0746659263 -0.8918692129
| 24> H -1.8552149408 1.4854091921 -1.0544573654
| 25> H -2.4095154706 0.9861308611 0.5392553788
| 26> H 0.8694167964 2.3060743959 0.6591156243
| 27> *
| 28>
| 29>                          ****END OF INPUT****

CARTESIAN COORDINATES (ANGSTROEM)
---------------------------------
  C      2.070242   -1.378225   -0.171932
  C      1.669326    0.084688   -0.307229
  C      0.328395    0.447604    0.351431
  H      0.368940    0.175214    1.419323
  C     -0.873301   -0.288256   -0.292564
  C     -1.264552   -1.517361    0.527591
  C     -2.091110    0.624914   -0.435512
  O      0.122804    1.849364    0.250062
  H      3.072414   -1.521232   -0.568615
  H      1.393081   -2.023843   -0.723462
  H      2.069409   -1.678368    0.873535
  H      2.446651    0.701954    0.152409
  H      1.612938    0.359281   -1.363208
  H     -0.576804   -0.608630   -1.296809
  H     -1.632718   -1.211662    1.504700
  H     -2.056260   -2.063231    0.020171
  H     -0.422897   -2.187418    0.671718
  H     -2.910201    0.074666   -0.891869
  H     -1.855215    1.485409   -1.054457
  H     -2.409515    0.986131    0.539255
  H      0.869417    2.306074    0.659116

 Total Charge           Charge          ....    0
 Multiplicity           Mult            ....    1
 Number of Electrons    NEL             ....   58
 Basis Dimension        Dim             ....  208

ORBITAL ENERGIES
----------------

  NO   OCC          E(Eh)            E(eV)
   0   2.0000     -18.943216      -515.4711
   1   2.0000     -10.077200      -274.2146
   2   2.0000     -10.031042      -272.9585
   3   2.0000     -10.027583      -272.8644
   4   2.0000     -10.021858      -272.7086
   5   2.0000     -10.014572      -272.5104
   6   2.0000     -10.004030      -272.2235
   7   2.0000      -0.982158       -26.7259
   8   2.0000      -0.770889       -20.9770
   9   2.0000      -0.730800       -19.8861
  10   2.0000      -0.643668       -17.5151
  11   2.0000      -0.637473       -17.3465
  12   2.0000      -0.569757       -15.5039
  13   2.0000      -0.523923       -14.2567
  14   2.0000      -0.477329       -12.9888
  15   2.0000      -0.433403       -11.7935
  16   2.0000      -0.422830       -11.5058
  17   2.0000      -0.396419       -10.7871
  18   2.0000      -0.379466       -10.3258
  19   2.0000      -0.366517        -9.9734
  20   2.0000      -0.356670        -9.7055
  21   2.0000      -0.342862        -9.3297
  22   2.0000      -0.340582        -9.2677
  23   2.0000      -0.315075        -8.5736
  24   2.0000      -0.311277        -8.4703
  25   2.0000      -0.295935        -8.0528
  26   2.0000      -0.293622        -7.9899
  27   2.0000      -0.271482        -7.3874
  28   2.0000      -0.229358        -6.2411
  29   0.0000       0.061533         1.6744
  30   0.0000       0.087703         2.3865
  31   0.0000       0.103342         2.8121
  32   0.0000       0.115454         3.1417
  33   0.0000       0.127883         3.4799

MULLIKEN ATOMIC CHARGES
-----------------------
   0 C :   -0.515967
   1 C :   -0.262963
   2 C :    0.012736
   3 H :    0.136651
   4 C :   -0.047085
   5 C :   -0.521166
   6 C :   -0.497087
   7 O :   -0.405530
   8 H :    0.148342
   9 H :    0.157425
  10 H :    0.154850
  11 H :    0.122027
  12 H :    0.162362
  13 H :    0.154119
  14 H :    0.154354
  15 H :    0.148050
  16 H :    0.152404
  17 H :    0.138931
  18 H :    0.166219
  19 H :    0.158443
  20 H :    0.282884
Sum of atomic charges:   -0.0000000

LOEWDIN ATOMIC CHARGES
----------------------
   0 C :   -0.423846
   1 C :   -0.288974
   2 C :    0.064949
   3 H :    0.163156
   4 C :   -0.209583
   5 C :   -0.414620
   6 C :   -0.395246
   7 O :   -0.629965
   8 H :    0.152333
   9 H :    0.152320
  10 H :    0.151231
  11 H :    0.150810
  12 H :    0.161772
  13 H :    0.158825
  14 H :    0.154490
  15 H :    0.153860
  16 H :    0.153708
  17 H :    0.148837
  18 H :    0.168540
  19 H :    0.159343
  20 H :    0.268061

  Mayer bond orders larger than 0.100000
B(  0-C ,  1-C ) :   0.8575 B(  0-C ,  8-H ) :   0.9634 B(  0-C ,  9-H ) :   0.9763
B(  0-C , 10-H ) :   0.9835 B(  1-C ,  2-C ) :   0.9016 B(  1-C , 11-H ) :   0.9710
B(  1-C , 12-H ) :   0.9942 B(  2-C ,  3-H ) :   0.9696 B(  2-C ,  4-C ) :   0.8752
B(  2-C ,  7-O ) :   0.9076 B(  4-C ,  5-C ) :   0.8846 B(  4-C ,  6-C ) :   0.9069
B(  4-C , 13-H ) :   0.9591 B(  5-C , 14-H ) :   0.9887 B(  5-C , 15-H ) :   0.9755
B(  5-C , 16-H ) :   0.9636 B(  6-C , 17-H ) :   0.9742 B(  6-C , 18-H ) :   0.9715
B(  6-C , 19-H ) :   0.9859 B(  7-O , 20-H ) :   0.8994

Dispersion correction           -0.005694382
FINAL SINGLE POINT ENERGY      -312.197614534981

DIPOLE MOMENT
-------------

Method             : SCF
Type of density    : Electron Density
Multiplicity       :   1
Irrep              :   0
Energy             :  -312.2031970692304412 Eh
Relativity type    :
Basis              : AO
                                X                 Y                 Z
Electronic contribution:      0.541341726       4.630542111       0.241789791
Nuclear contribution   :     -0.027035349      -4.856310145      -0.050883081
                        -----------------------------------------
Total Dipole Moment    :      0.514306376      -0.225768034       0.190906711
                        -----------------------------------------
Magnitude (a.u.)       :      0.593234882
Magnitude (Debye)      :      1.507883238

Rotational constants in cm-1:             0.105044             0.068287             0.046700
Rotational constants in MHz :          3149.140126          2047.185179          1400.023173

                             ****ORCA TERMINATED NORMALLY****
TOTAL RUN TIME: 0 days 0 hours 0 minutes 27 seconds 427 msec
