                         Program Version 6.0.0  -   RELEASE  -
|  1> ! pbe def2-sv(p) def2/J RI DEFGRID1 loosescf d4 GCP(DFT/SV(P)) printgap
|  2> %output
|  3>     printlevel normal
|  4> end
|  5> * xyz 0 1
|  6> C -2.6402760843 -0.580417426 -0.1427170429
|  7> C -1.2564771922 -0.2880762528 0.42467146
|  8> C -0.5402179775 0.8043309058 -0.3655997713
|  9> C 0.8634065657 1.0856387464 0.1834645431
| 10> C 1.7402217119 -0.0570379495 0.0257056192
| 11> C 2.4514256403 -1.0087349155 -0.1202240314
| 12> H -3.2596529739 0.3136502666 -0.1177185891
| 13> H -3.134167589 -1.3571738282 0.4357663887
| 14> H -2.565102249 -0.9160396468 -1.1746985135
| 15> H -1.350564031 0.0231156622 1.4680088178
| 16> H -0.6514964931 -1.1975750142 0.4034444018
| 17> H -0.4629492715 0.5012220152 -1.4123401283
| 18> H -1.125715468 1.7255034772 -0.3238904829
| 19> H 0.8004611173 1.3377943902 1.2456098649
| 20> H 1.3026451175 1.9355652075 -0.3455508038
| 21> H 3.0813989594 -1.8382157626 -0.2417956093
| 22> *
| 23>
| 24>                          ****END OF INPUT****

CARTESIAN COORDINATES (ANGSTROEM)
---------------------------------
  C     -2.640276   -0.580417   -0.142717
  C     -1.256477   -0.288076    0.424671
  C     -0.540218    0.804331   -0.365600
  C      0.863407    1.085639    0.183465
  C      1.740222   -0.057038    0.025706
  C      2.451426   -1.008735   -0.120224
  H     -3.259653    0.313650   -0.117719
  H     -3.134168   -1.357174    0.435766
  H     -2.565102   -0.916040   -1.174699
  H     -1.350564    0.023116    1.468009
  H     -0.651496   -1.197575    0.403444
  H     -0.462949    0.501222   -1.412340
  H     -1.125715    1.725503   -0.323890
  H      0.800461    1.337794    1.245610
  H      1.302645    1.935565   -0.345551
  H      3.081399   -1.838216   -0.241796

 Total Charge           Charge          ....    0
 Multiplicity           Mult            ....    1
 Number of Electrons    NEL             ....   46
 Basis Dimension        Dim             ....  104

ORBITAL ENERGIES
----------------

  NO   OCC          E(Eh)            E(eV)
   0   2.0000      -9.908886      -269.6345
   1   2.0000      -9.891739      -269.1679
   2   2.0000      -9.886180      -269.0166
   3   2.0000      -9.883398      -268.9409
   4   2.0000      -9.875887      -268.7365
   5   2.0000      -9.874103      -268.6880
   6   2.0000      -0.737237       -20.0612
   7   2.0000      -0.683057       -18.5869
   8   2.0000      -0.637085       -17.3360
   9   2.0000      -0.576889       -15.6980
  10   2.0000      -0.521634       -14.1944
  11   2.0000      -0.471377       -12.8268
  12   2.0000      -0.433789       -11.8040
  13   2.0000      -0.404557       -11.0085
  14   2.0000      -0.392579       -10.6826
  15   2.0000      -0.385749       -10.4968
  16   2.0000      -0.345353        -9.3975
  17   2.0000      -0.326298        -8.8790
  18   2.0000      -0.303470        -8.2578
  19   2.0000      -0.292253        -7.9526
  20   2.0000      -0.288527        -7.8512
  21   2.0000      -0.232741        -6.3332
  22   2.0000      -0.231111        -6.2888
  23   0.0000       0.014936         0.4064
  24   0.0000       0.022088         0.6010
  25   0.0000       0.050328         1.3695
  26   0.0000       0.061698         1.6789
  27   0.0000       0.074892         2.0379

MULLIKEN ATOMIC CHARGES
-----------------------
   0 C :   -0.258573
   1 C :   -0.206524
   2 C :   -0.189204
   3 C :   -0.076893
   4 C :    0.400971
   5 C :   -0.609242
   6 H :    0.095844
   7 H :    0.104010
   8 H :    0.098935
   9 H :    0.081566
  10 H :    0.106977
  11 H :    0.095814
  12 H :    0.085979
  13 H :    0.106489
  14 H :    0.112012
  15 H :    0.051837
Sum of atomic charges:   -0.0000000

LOEWDIN ATOMIC CHARGES
----------------------
   0 C :   -0.339267
   1 C :   -0.236706
   2 C :   -0.216278
   3 C :   -0.225059
   4 C :   -0.027814
   5 C :   -0.208135
   6 H :    0.115606
   7 H :    0.119740
   8 H :    0.117831
   9 H :    0.113887
  10 H :    0.122958
  11 H :    0.120969
  12 H :    0.116315
  13 H :    0.140481
  14 H :    0.142349
  15 H :    0.143121

  Mayer bond orders larger than 0.100000
B(  0-C ,  1-C ) :   1.1560 B(  0-C ,  6-H ) :   0.9547 B(  0-C ,  7-H ) :   0.9534
B(  0-C ,  8-H ) :   0.9545 B(  1-C ,  2-C ) :   1.1305 B(  1-C ,  9-H ) :   0.9260
B(  1-C , 10-H ) :   0.9215 B(  2-C ,  3-C ) :   1.0961 B(  2-C , 11-H ) :   0.9239
B(  2-C , 12-H ) :   0.9186 B(  3-C ,  4-C ) :   1.1209 B(  3-C , 13-H ) :   0.8823
B(  3-C , 14-H ) :   0.8843 B(  4-C ,  5-C ) :   2.2201 B(  4-C , 15-H ) :  -0.1288
B(  5-C , 15-H ) :   1.0908

Dispersion correction           -0.011263802
FINAL SINGLE POINT ENERGY      -234.010815177659

DIPOLE MOMENT
-------------

Method             : SCF
Type of density    : Electron Density
Multiplicity       :   1
Irrep              :   0
Energy             :  -234.0606687763247464 Eh
Relativity type    :
Basis              : AO
                                X                 Y                 Z
Electronic contribution:      6.703718092      -0.317443670       0.082592590
Nuclear contribution   :     -6.909772158       0.495211153      -0.059259321
                        -----------------------------------------
Total Dipole Moment    :     -0.206054066       0.177767482       0.023333269
                        -----------------------------------------
Magnitude (a.u.)       :      0.273137323
Magnitude (Debye)      :      0.694259902

Rotational constants in cm-1:             0.247492             0.060415             0.052295
Rotational constants in MHz :          7419.631597          1811.199649          1567.771539

                             ****ORCA TERMINATED NORMALLY****
TOTAL RUN TIME: 0 days 0 hours 0 minutes 6 seconds 521 msec
