                         Program Version 6.0.0  -   RELEASE  -
|  1> ! pbe def2-sv(p) def2/J RI DEFGRID1 loosescf d4 GCP(DFT/SV(P)) printgap
|  2> %output
|  3>     printlevel normal
|  4> end
|  5> * xyz 0 1
|  6> C 2.3766016786 -0.5025833813 0.4797937907
|  7> C 1.5592647556 0.1657611578 -0.6214351158
|  8> C 0.2762434178 0.8337081523 -0.1038858572
|  9> C -1.0044252437 0.0229796056 -0.3390603738
| 10> C -2.220676873 0.848770279 0.0796473755
| 11> C -0.9969597276 -1.3051887284 0.4133541022
| 12> H 2.6957046652 0.2354877245 1.212617517
| 13> H 1.7972607473 -1.2644109762 0.9932800695
| 14> H 3.2640593391 -0.9712679652 0.0597597266
| 15> H 2.1882985894 0.9190994627 -1.1006124019
| 16> H 1.303669378 -0.5714619041 -1.3852675815
| 17> H 0.3779471891 1.0339188919 0.9647982481
| 18> H 0.1512699887 1.7974164194 -0.6027916276
| 19> H -1.0840551339 -0.1870912958 -1.412413665
| 20> H -3.139759554 0.3005067752 -0.1135393965
| 21> H -2.2586030419 1.7860085642 -0.4709205899
| 22> H -2.1741115722 1.0766587365 1.1424596211
| 23> H -0.861281812 -1.1352584898 1.4794230198
| 24> H -1.9420296155 -1.8241309107 0.2673423045
| 25> H -0.1997726985 -1.9515648602 0.0572829408
| 26> *
| 27>
| 28>                          ****END OF INPUT****

CARTESIAN COORDINATES (ANGSTROEM)
---------------------------------
  C      2.376602   -0.502583    0.479794
  C      1.559265    0.165761   -0.621435
  C      0.276243    0.833708   -0.103886
  C     -1.004425    0.022980   -0.339060
  C     -2.220677    0.848770    0.079647
  C     -0.996960   -1.305189    0.413354
  H      2.695705    0.235488    1.212618
  H      1.797261   -1.264411    0.993280
  H      3.264059   -0.971268    0.059760
  H      2.188299    0.919099   -1.100612
  H      1.303669   -0.571462   -1.385268
  H      0.377947    1.033919    0.964798
  H      0.151270    1.797416   -0.602792
  H     -1.084055   -0.187091   -1.412414
  H     -3.139760    0.300507   -0.113539
  H     -2.258603    1.786009   -0.470921
  H     -2.174112    1.076659    1.142460
  H     -0.861282   -1.135258    1.479423
  H     -1.942030   -1.824131    0.267342
  H     -0.199773   -1.951565    0.057283

 Total Charge           Charge          ....    0
 Multiplicity           Mult            ....    1
 Number of Electrons    NEL             ....   50
 Basis Dimension        Dim             ....  112

ORBITAL ENERGIES
----------------

  NO   OCC          E(Eh)            E(eV)
   0   2.0000      -9.889709      -269.1127
   1   2.0000      -9.878610      -268.8106
   2   2.0000      -9.875524      -268.7267
   3   2.0000      -9.868841      -268.5448
   4   2.0000      -9.868825      -268.5444
   5   2.0000      -9.867788      -268.5162
   6   2.0000      -0.731943       -19.9172
   7   2.0000      -0.680517       -18.5178
   8   2.0000      -0.608745       -16.5648
   9   2.0000      -0.600149       -16.3309
  10   2.0000      -0.523203       -14.2371
  11   2.0000      -0.492819       -13.4103
  12   2.0000      -0.413502       -11.2520
  13   2.0000      -0.406609       -11.0644
  14   2.0000      -0.393363       -10.7039
  15   2.0000      -0.363100        -9.8805
  16   2.0000      -0.348537        -9.4842
  17   2.0000      -0.344750        -9.3811
  18   2.0000      -0.333719        -9.0810
  19   2.0000      -0.316690        -8.6176
  20   2.0000      -0.296818        -8.0768
  21   2.0000      -0.296060        -8.0562
  22   2.0000      -0.276806        -7.5323
  23   2.0000      -0.270270        -7.3544
  24   2.0000      -0.262841        -7.1523
  25   0.0000       0.035776         0.9735
  26   0.0000       0.059962         1.6316
  27   0.0000       0.063400         1.7252
  28   0.0000       0.071824         1.9544
  29   0.0000       0.097478         2.6525

MULLIKEN ATOMIC CHARGES
-----------------------
   0 C :   -0.295153
   1 C :   -0.161281
   2 C :   -0.132741
   3 C :   -0.200479
   4 C :   -0.235035
   5 C :   -0.250611
   6 H :    0.100523
   7 H :    0.104540
   8 H :    0.099546
   9 H :    0.080941
  10 H :    0.086315
  11 H :    0.073928
  12 H :    0.074971
  13 H :    0.072392
  14 H :    0.096020
  15 H :    0.095643
  16 H :    0.091022
  17 H :    0.093367
  18 H :    0.096085
  19 H :    0.110005
Sum of atomic charges:    0.0000000

LOEWDIN ATOMIC CHARGES
----------------------
   0 C :   -0.342659
   1 C :   -0.235357
   2 C :   -0.219125
   3 C :   -0.156883
   4 C :   -0.329346
   5 C :   -0.331331
   6 H :    0.116210
   7 H :    0.115541
   8 H :    0.117274
   9 H :    0.116278
  10 H :    0.113650
  11 H :    0.112396
  12 H :    0.114136
  13 H :    0.112334
  14 H :    0.115654
  15 H :    0.115491
  16 H :    0.115737
  17 H :    0.115948
  18 H :    0.116976
  19 H :    0.117077

  Mayer bond orders larger than 0.100000
B(  0-C ,  1-C ) :   1.1611 B(  0-C ,  6-H ) :   0.9528 B(  0-C ,  7-H ) :   0.9491
B(  0-C ,  8-H ) :   0.9516 B(  1-C ,  2-C ) :   1.0917 B(  1-C ,  9-H ) :   0.9283
B(  1-C , 10-H ) :   0.9278 B(  2-C ,  3-C ) :   1.1000 B(  2-C , 11-H ) :   0.9230
B(  2-C , 12-H ) :   0.9226 B(  3-C ,  4-C ) :   1.1124 B(  3-C ,  5-C ) :   1.1124
B(  3-C , 13-H ) :   0.9014 B(  4-C , 14-H ) :   0.9508 B(  4-C , 15-H ) :   0.9501
B(  4-C , 16-H ) :   0.9500 B(  5-C , 17-H ) :   0.9471 B(  5-C , 18-H ) :   0.9487
B(  5-C , 19-H ) :   0.9409

Dispersion correction           -0.014907288
FINAL SINGLE POINT ENERGY      -236.446718729528

DIPOLE MOMENT
-------------

Method             : SCF
Type of density    : Electron Density
Multiplicity       :   1
Irrep              :   0
Energy             :  -236.5146266534005122 Eh
Relativity type    :
Basis              : AO
                                X                 Y                 Z
Electronic contribution:     -0.107119713       0.717008976      -1.077136491
Nuclear contribution   :      0.111262602      -0.709334121       1.023926167
                        -----------------------------------------
Total Dipole Moment    :      0.004142890       0.007674855      -0.053210324
                        -----------------------------------------
Magnitude (a.u.)       :      0.053920363
Magnitude (Debye)      :      0.137054671

Rotational constants in cm-1:             0.202355             0.065758             0.055874
Rotational constants in MHz :          6066.459688          1971.364040          1675.069818

                             ****ORCA TERMINATED NORMALLY****
TOTAL RUN TIME: 0 days 0 hours 0 minutes 7 seconds 973 msec
