                         Program Version 6.0.0  -   RELEASE  -
|  1> ! pbe def2-sv(p) def2/J RI DEFGRID1 loosescf d4 GCP(DFT/SV(P)) printgap
|  2> %output
|  3>     printlevel normal
|  4> end
|  5> * xyz 0 1
|  6> C -2.6985312794 -0.9381177606 -0.8085606648
|  7> C -1.8935024814 -0.2412197609 0.2865448805
|  8> C -2.8371649176 0.5282861741 1.2098681173
|  9> C -0.8502802607 0.7104931899 -0.3152228696
| 10> C 0.3665290453 0.0011559181 -0.9274713027
| 11> C 1.651350435 -0.0016757274 -0.0758828469
| 12> C 2.6982547493 -0.850111126 -0.8078136531
| 13> C 2.2012157902 1.4187204027 0.0798652116
| 14> C 1.4044584532 -0.611715592 1.3050632278
| 15> H -2.0475122234 -1.4785076822 -1.4910834358
| 16> H -3.263392352 -0.2068618388 -1.38339834
| 17> H -3.3991734622 -1.6471978552 -0.373250597
| 18> H -1.3782558401 -1.0038020257 0.8782720673
| 19> H -3.3414465731 1.3203130645 0.659881419
| 20> H -3.5922600883 -0.1356759734 1.6243205205
| 21> H -2.2889288501 0.9789251351 2.0344246222
| 22> H -1.3446093392 1.3092080143 -1.0834979469
| 23> H -0.5203247599 1.4031647884 0.4591687933
| 24> H 0.610347489 0.4711040226 -1.8828355657
| 25> H 0.1026124996 -1.0362061161 -1.1417528483
| 26> H 2.8951162598 -0.4458290236 -1.798323075
| 27> H 3.633275632 -0.8642739952 -0.2524042279
| 28> H 2.3521482442 -1.8753686953 -0.9193912468
| 29> H 3.1398357829 1.3996666356 0.6292614058
| 30> H 2.3836861287 1.8652557631 -0.8950232643
| 31> H 1.5077634627 2.0557043902 0.6225093248
| 32> H 0.6898626073 -0.022369552 1.8727237899
| 33> H 2.334625032 -0.6499836461 1.8682524374
| 34> H 1.0221953544 -1.6257390563 1.2110076706
| 35> *
| 36>
| 37>                          ****END OF INPUT****

CARTESIAN COORDINATES (ANGSTROEM)
---------------------------------
  C     -2.698531   -0.938118   -0.808561
  C     -1.893502   -0.241220    0.286545
  C     -2.837165    0.528286    1.209868
  C     -0.850280    0.710493   -0.315223
  C      0.366529    0.001156   -0.927471
  C      1.651350   -0.001676   -0.075883
  C      2.698255   -0.850111   -0.807814
  C      2.201216    1.418720    0.079865
  C      1.404458   -0.611716    1.305063
  H     -2.047512   -1.478508   -1.491083
  H     -3.263392   -0.206862   -1.383398
  H     -3.399173   -1.647198   -0.373251
  H     -1.378256   -1.003802    0.878272
  H     -3.341447    1.320313    0.659881
  H     -3.592260   -0.135676    1.624321
  H     -2.288929    0.978925    2.034425
  H     -1.344609    1.309208   -1.083498
  H     -0.520325    1.403165    0.459169
  H      0.610347    0.471104   -1.882836
  H      0.102612   -1.036206   -1.141753
  H      2.895116   -0.445829   -1.798323
  H      3.633276   -0.864274   -0.252404
  H      2.352148   -1.875369   -0.919391
  H      3.139836    1.399667    0.629261
  H      2.383686    1.865256   -0.895023
  H      1.507763    2.055704    0.622509
  H      0.689863   -0.022370    1.872724
  H      2.334625   -0.649984    1.868252
  H      1.022195   -1.625739    1.211008

 Total Charge           Charge          ....    0
 Multiplicity           Mult            ....    1
 Number of Electrons    NEL             ....   74
 Basis Dimension        Dim             ....  166

ORBITAL ENERGIES
----------------

  NO   OCC          E(Eh)            E(eV)
   0   2.0000      -9.902137      -269.4508
   1   2.0000      -9.888849      -269.0893
   2   2.0000      -9.876097      -268.7422
   3   2.0000      -9.875576      -268.7281
   4   2.0000      -9.868804      -268.5438
   5   2.0000      -9.868124      -268.5253
   6   2.0000      -9.868114      -268.5250
   7   2.0000      -9.867776      -268.5158
   8   2.0000      -9.867576      -268.5104
   9   2.0000      -0.748180       -20.3590
  10   2.0000      -0.718883       -19.5618
  11   2.0000      -0.643280       -17.5045
  12   2.0000      -0.610233       -16.6053
  13   2.0000      -0.609634       -16.5890
  14   2.0000      -0.605832       -16.4855
  15   2.0000      -0.557004       -15.1569
  16   2.0000      -0.495110       -13.4726
  17   2.0000      -0.465959       -12.6794
  18   2.0000      -0.422240       -11.4897
  19   2.0000      -0.408509       -11.1161
  20   2.0000      -0.402247       -10.9457
  21   2.0000      -0.387235       -10.5372
  22   2.0000      -0.380306       -10.3487
  23   2.0000      -0.362796        -9.8722
  24   2.0000      -0.353903        -9.6302
  25   2.0000      -0.343736        -9.3535
  26   2.0000      -0.337358        -9.1800
  27   2.0000      -0.328456        -8.9377
  28   2.0000      -0.317697        -8.6450
  29   2.0000      -0.312168        -8.4945
  30   2.0000      -0.311199        -8.4682
  31   2.0000      -0.290944        -7.9170
  32   2.0000      -0.286794        -7.8041
  33   2.0000      -0.279984        -7.6187
  34   2.0000      -0.267045        -7.2667
  35   2.0000      -0.262510        -7.1433
  36   2.0000      -0.260888        -7.0991
  37   0.0000       0.027119         0.7380
  38   0.0000       0.047468         1.2917
  39   0.0000       0.059176         1.6103
  40   0.0000       0.062539         1.7018
  41   0.0000       0.080986         2.2037

MULLIKEN ATOMIC CHARGES
-----------------------
   0 C :   -0.247985
   1 C :   -0.205673
   2 C :   -0.237859
   3 C :   -0.116357
   4 C :   -0.086267
   5 C :   -0.279276
   6 C :   -0.200873
   7 C :   -0.212524
   8 C :   -0.217188
   9 H :    0.102912
  10 H :    0.090579
  11 H :    0.097487
  12 H :    0.078033
  13 H :    0.090678
  14 H :    0.095721
  15 H :    0.097606
  16 H :    0.069743
  17 H :    0.083066
  18 H :    0.068902
  19 H :    0.078124
  20 H :    0.090795
  21 H :    0.091428
  22 H :    0.091035
  23 H :    0.091856
  24 H :    0.090936
  25 H :    0.100644
  26 H :    0.104124
  27 H :    0.091775
  28 H :    0.098558
Sum of atomic charges:   -0.0000000

LOEWDIN ATOMIC CHARGES
----------------------
   0 C :   -0.329144
   1 C :   -0.159633
   2 C :   -0.328790
   3 C :   -0.219010
   4 C :   -0.207191
   5 C :   -0.105616
   6 C :   -0.315539
   7 C :   -0.316950
   8 C :   -0.318196
   9 H :    0.115190
  10 H :    0.115163
  11 H :    0.116687
  12 H :    0.113432
  13 H :    0.115846
  14 H :    0.115909
  15 H :    0.114768
  16 H :    0.115744
  17 H :    0.112278
  18 H :    0.113878
  19 H :    0.113061
  20 H :    0.114891
  21 H :    0.114514
  22 H :    0.114239
  23 H :    0.116156
  24 H :    0.115617
  25 H :    0.114604
  26 H :    0.116170
  27 H :    0.116530
  28 H :    0.115393

  Mayer bond orders larger than 0.100000
B(  0-C ,  1-C ) :   1.1101 B(  0-C ,  9-H ) :   0.9443 B(  0-C , 10-H ) :   0.9477
B(  0-C , 11-H ) :   0.9511 B(  1-C ,  2-C ) :   1.1118 B(  1-C ,  3-C ) :   1.0772
B(  1-C , 12-H ) :   0.8976 B(  2-C , 13-H ) :   0.9486 B(  2-C , 14-H ) :   0.9516
B(  2-C , 15-H ) :   0.9481 B(  3-C ,  4-C ) :   1.0996 B(  3-C , 16-H ) :   0.9097
B(  3-C , 17-H ) :   0.9180 B(  4-C ,  5-C ) :   1.0577 B(  4-C , 18-H ) :   0.9129
B(  4-C , 19-H ) :   0.9107 B(  5-C ,  6-C ) :   1.0760 B(  5-C ,  7-C ) :   1.0745
B(  5-C ,  8-C ) :   1.0800 B(  6-C , 20-H ) :   0.9471 B(  6-C , 21-H ) :   0.9473
B(  6-C , 22-H ) :   0.9454 B(  7-C , 23-H ) :   0.9470 B(  7-C , 24-H ) :   0.9481
B(  7-C , 25-H ) :   0.9391 B(  8-C , 26-H ) :   0.9376 B(  8-C , 27-H ) :   0.9446
B(  8-C , 28-H ) :   0.9416

Dispersion correction           -0.026403046
FINAL SINGLE POINT ENERGY      -354.086001039717

DIPOLE MOMENT
-------------

Method             : SCF
Type of density    : Electron Density
Multiplicity       :   1
Irrep              :   0
Energy             :  -354.1829302898769356 Eh
Relativity type    :
Basis              : AO
                                X                 Y                 Z
Electronic contribution:      0.498333895       0.166670374      -0.587606985
Nuclear contribution   :     -0.473241637      -0.176818773       0.599355449
                        -----------------------------------------
Total Dipole Moment    :      0.025092258      -0.010148399       0.011748464
                        -----------------------------------------
Magnitude (a.u.)       :      0.029506572
Magnitude (Debye)      :      0.074999747

Rotational constants in cm-1:             0.090643             0.026803             0.025277
Rotational constants in MHz :          2717.420733           803.528943           757.798060

                             ****ORCA TERMINATED NORMALLY****
TOTAL RUN TIME: 0 days 0 hours 0 minutes 14 seconds 460 msec
