                         Program Version 6.0.0  -   RELEASE  -
|  1> ! pbe def2-sv(p) def2/J RI DEFGRID1 loosescf d4 GCP(DFT/SV(P)) printgap
|  2> %output
|  3>     printlevel normal
|  4> end
|  5> * xyz 0 1
|  6> C 2.8065358844 -0.8901973692 1.1321574162
|  7> C 2.5517586651 0.0373533943 -0.0179173272
|  8> C 3.5382776801 0.5098716935 -0.7643154966
|  9> C 1.116268841 0.408833605 -0.302569138
| 10> H 1.1196394838 1.2043830546 -1.0534326308
| 11> C 0.3330168607 -0.7938563023 -0.8777754774
| 12> C -0.9636016532 -1.0955003689 -0.1117387662
| 13> C -1.7070330209 0.1763950139 0.1578699762
| 14> C -1.0107085463 1.19796923 0.6872904629
| 15> C 0.4308554963 0.9901459264 0.9569753509
| 16> C -3.1101580856 0.2921889803 -0.1686685351
| 17> O -3.7994540513 -0.5782644772 -0.6716313443
| 18> H 2.7761678726 -0.3393237488 2.0715036466
| 19> H 2.0576234291 -1.67706972 1.175575378
| 20> H 3.7891073016 -1.3452964783 1.0431536156
| 21> H 3.3623193836 1.1878118683 -1.5823799529
| 22> H 4.5651236606 0.2367166411 -0.5892007225
| 23> H 0.0768447373 -0.5831896336 -1.9166432382
| 24> H 0.9593565335 -1.686255379 -0.8766671153
| 25> H -1.5930893266 -1.7799357582 -0.681636329
| 26> H -0.7207260085 -1.5717191626 0.8417754481
| 27> H -1.4700714498 2.1523482049 0.8945404847
| 28> H 0.9278034288 1.912673576 1.252515341
| 29> H 0.5291367987 0.2647669985 1.768068122
| 30> H -3.5579218665 1.2742867781 0.0760768341
| 31> *
| 32>
| 33>                          ****END OF INPUT****

CARTESIAN COORDINATES (ANGSTROEM)
---------------------------------
  C      2.806536   -0.890197    1.132157
  C      2.551759    0.037353   -0.017917
  C      3.538278    0.509872   -0.764315
  C      1.116269    0.408834   -0.302569
  H      1.119639    1.204383   -1.053433
  C      0.333017   -0.793856   -0.877775
  C     -0.963602   -1.095500   -0.111739
  C     -1.707033    0.176395    0.157870
  C     -1.010709    1.197969    0.687290
  C      0.430855    0.990146    0.956975
  C     -3.110158    0.292189   -0.168669
  O     -3.799454   -0.578264   -0.671631
  H      2.776168   -0.339324    2.071504
  H      2.057623   -1.677070    1.175575
  H      3.789107   -1.345296    1.043154
  H      3.362319    1.187812   -1.582380
  H      4.565124    0.236717   -0.589201
  H      0.076845   -0.583190   -1.916643
  H      0.959357   -1.686255   -0.876667
  H     -1.593089   -1.779936   -0.681636
  H     -0.720726   -1.571719    0.841775
  H     -1.470071    2.152348    0.894540
  H      0.927803    1.912674    1.252515
  H      0.529137    0.264767    1.768068
  H     -3.557922    1.274287    0.076077

 Total Charge           Charge          ....    0
 Multiplicity           Mult            ....    1
 Number of Electrons    NEL             ....   82
 Basis Dimension        Dim             ....  182

ORBITAL ENERGIES
----------------

  NO   OCC          E(Eh)            E(eV)
   0   2.0000     -18.741689      -509.9873
   1   2.0000      -9.961951      -271.0785
   2   2.0000      -9.917743      -269.8755
   3   2.0000      -9.909835      -269.6603
   4   2.0000      -9.906626      -269.5730
   5   2.0000      -9.906161      -269.5603
   6   2.0000      -9.903358      -269.4841
   7   2.0000      -9.895019      -269.2572
   8   2.0000      -9.893665      -269.2203
   9   2.0000      -9.890090      -269.1230
  10   2.0000      -9.877759      -268.7875
  11   2.0000      -0.931070       -25.3357
  12   2.0000      -0.785918       -21.3859
  13   2.0000      -0.735847       -20.0234
  14   2.0000      -0.681653       -18.5487
  15   2.0000      -0.675661       -18.3857
  16   2.0000      -0.624225       -16.9860
  17   2.0000      -0.592084       -16.1114
  18   2.0000      -0.560057       -15.2399
  19   2.0000      -0.520943       -14.1756
  20   2.0000      -0.484645       -13.1879
  21   2.0000      -0.466522       -12.6947
  22   2.0000      -0.454161       -12.3584
  23   2.0000      -0.435541       -11.8517
  24   2.0000      -0.406620       -11.0647
  25   2.0000      -0.403040       -10.9673
  26   2.0000      -0.386740       -10.5237
  27   2.0000      -0.378661       -10.3039
  28   2.0000      -0.368914       -10.0387
  29   2.0000      -0.363162        -9.8821
  30   2.0000      -0.354821        -9.6552
  31   2.0000      -0.348110        -9.4726
  32   2.0000      -0.342400        -9.3172
  33   2.0000      -0.336823        -9.1654
  34   2.0000      -0.318984        -8.6800
  35   2.0000      -0.297903        -8.1064
  36   2.0000      -0.293195        -7.9783
  37   2.0000      -0.279247        -7.5987
  38   2.0000      -0.240132        -6.5343
  39   2.0000      -0.222010        -6.0412
  40   2.0000      -0.200484        -5.4555
  41   0.0000      -0.090577        -2.4647
  42   0.0000      -0.017818        -0.4849
  43   0.0000       0.018091         0.4923
  44   0.0000       0.028124         0.7653
  45   0.0000       0.044403         1.2083

MULLIKEN ATOMIC CHARGES
-----------------------
   0 C :   -0.234274
   1 C :   -0.044127
   2 C :   -0.224631
   3 C :   -0.157818
   4 H :    0.060681
   5 C :   -0.123912
   6 C :   -0.066050
   7 C :   -0.053568
   8 C :   -0.168562
   9 C :   -0.024638
  10 C :    0.036000
  11 O :   -0.174352
  12 H :    0.123146
  13 H :    0.109274
  14 H :    0.105763
  15 H :    0.085701
  16 H :    0.081282
  17 H :    0.092262
  18 H :    0.097587
  19 H :    0.097038
  20 H :    0.090045
  21 H :    0.064693
  22 H :    0.095454
  23 H :    0.101406
  24 H :    0.031597
Sum of atomic charges:   -0.0000000

LOEWDIN ATOMIC CHARGES
----------------------
   0 C :   -0.326333
   1 C :   -0.051635
   2 C :   -0.263888
   3 C :   -0.121265
   4 H :    0.124035
   5 C :   -0.207273
   6 C :   -0.212801
   7 C :   -0.102630
   8 C :   -0.084431
   9 C :   -0.213479
  10 C :   -0.006727
  11 O :   -0.135551
  12 H :    0.132960
  13 H :    0.123599
  14 H :    0.129622
  15 H :    0.117720
  16 H :    0.116918
  17 H :    0.127516
  18 H :    0.123872
  19 H :    0.131487
  20 H :    0.128549
  21 H :    0.125438
  22 H :    0.128795
  23 H :    0.137566
  24 H :    0.077938

  Mayer bond orders larger than 0.100000
B(  0-C ,  1-C ) :   1.1086 B(  0-C , 12-H ) :   0.9238 B(  0-C , 13-H ) :   0.9270
B(  0-C , 14-H ) :   0.9343 B(  1-C ,  2-C ) :   2.0386 B(  1-C ,  3-C ) :   1.0095
B(  2-C , 15-H ) :   0.9098 B(  2-C , 16-H ) :   0.9073 B(  3-C ,  4-H ) :   0.8818
B(  3-C ,  5-C ) :   1.0509 B(  3-C ,  9-C ) :   1.1031 B(  5-C ,  6-C ) :   1.1478
B(  5-C , 17-H ) :   0.9122 B(  5-C , 18-H ) :   0.9120 B(  6-C ,  7-C ) :   1.1099
B(  6-C , 19-H ) :   0.8895 B(  6-C , 20-H ) :   0.8719 B(  7-C ,  8-C ) :   1.7050
B(  7-C , 10-C ) :   1.0433 B(  8-C ,  9-C ) :   1.0999 B(  8-C , 11-O ) :   0.1053
B(  8-C , 21-H ) :   0.9507 B(  9-C , 22-H ) :   0.9151 B(  9-C , 23-H ) :   0.8443
B( 10-C , 11-O ) :   2.0975 B( 10-C , 24-H ) :   0.9171

Dispersion correction           -0.026660732
FINAL SINGLE POINT ENERGY      -463.621879262502

DIPOLE MOMENT
-------------

Method             : SCF
Type of density    : Electron Density
Multiplicity       :   1
Irrep              :   0
Energy             :  -463.6978652899232429 Eh
Relativity type    :
Basis              : AO
                                X                 Y                 Z
Electronic contribution:    -10.887386636       1.184295237      -1.707466388
Nuclear contribution   :     11.972217884      -0.712013075       2.263457268
                        -----------------------------------------
Total Dipole Moment    :      1.084831247       0.472282163       0.555990880
                        -----------------------------------------
Magnitude (a.u.)       :      1.307300706
Magnitude (Debye)      :      3.322894319

Rotational constants in cm-1:             0.095828             0.018792             0.017948
Rotational constants in MHz :          2872.855052           563.371911           538.075708

                             ****ORCA TERMINATED NORMALLY****
TOTAL RUN TIME: 0 days 0 hours 0 minutes 18 seconds 569 msec
