                         Program Version 6.0.0  -   RELEASE  -
|  1> ! pbe def2-sv(p) def2/J RI DEFGRID1 loosescf d4 GCP(DFT/SV(P)) printgap
|  2> %output
|  3>     printlevel normal
|  4> end
|  5> * xyz 0 1
|  6> C 1.9164616755 0.7174899363 -0.7365531097
|  7> C 1.3953933848 0.0060282908 0.5102531383
|  8> C 1.4228517318 -1.5096927337 0.325395625
|  9> C -0.0104160793 0.4912703424 0.8860604829
| 10> C -1.1082819437 0.1658719813 -0.0910182006
| 11> O -0.9866243635 -0.2232721377 -1.2317933932
| 12> O -2.3030467054 0.3752286809 0.4524151777
| 13> H 1.9375858597 1.7942312917 -0.5844975218
| 14> H 1.2777868725 0.498472332 -1.5881732605
| 15> H 2.9245898492 0.3824157284 -0.9665081318
| 16> H 2.0514421692 0.2612962686 1.3502868913
| 17> H 2.4379399424 -1.8470870041 0.1334493577
| 18> H 1.0546260161 -2.0129770999 1.2164695528
| 19> H 0.8011899175 -1.7966797212 -0.5191888462
| 20> H -0.0092546098 1.5793481816 0.992084554
| 21> H -0.3126625133 0.0772051011 1.8498989667
| 22> H -3.0344787718 0.189275498 -0.167289094
| 23> *
| 24>
| 25>                          ****END OF INPUT****

CARTESIAN COORDINATES (ANGSTROEM)
---------------------------------
  C      1.916462    0.717490   -0.736553
  C      1.395393    0.006028    0.510253
  C      1.422852   -1.509693    0.325396
  C     -0.010416    0.491270    0.886060
  C     -1.108282    0.165872   -0.091018
  O     -0.986624   -0.223272   -1.231793
  O     -2.303047    0.375229    0.452415
  H      1.937586    1.794231   -0.584498
  H      1.277787    0.498472   -1.588173
  H      2.924590    0.382416   -0.966508
  H      2.051442    0.261296    1.350287
  H      2.437940   -1.847087    0.133449
  H      1.054626   -2.012977    1.216470
  H      0.801190   -1.796680   -0.519189
  H     -0.009255    1.579348    0.992085
  H     -0.312663    0.077205    1.849899
  H     -3.034479    0.189275   -0.167289

 Total Charge           Charge          ....    0
 Multiplicity           Mult            ....    1
 Number of Electrons    NEL             ....   56
 Basis Dimension        Dim             ....  118

ORBITAL ENERGIES
----------------

  NO   OCC          E(Eh)            E(eV)
   0   2.0000     -18.800330      -511.5830
   1   2.0000     -18.740341      -509.9506
   2   2.0000     -10.016964      -272.5754
   3   2.0000      -9.902682      -269.4657
   4   2.0000      -9.898930      -269.3636
   5   2.0000      -9.869385      -268.5596
   6   2.0000      -9.866783      -268.4888
   7   2.0000      -1.010005       -27.4836
   8   2.0000      -0.913444       -24.8561
   9   2.0000      -0.735535       -20.0149
  10   2.0000      -0.658664       -17.9232
  11   2.0000      -0.607008       -16.5175
  12   2.0000      -0.568977       -15.4827
  13   2.0000      -0.499920       -13.6035
  14   2.0000      -0.440553       -11.9881
  15   2.0000      -0.428876       -11.6703
  16   2.0000      -0.412463       -11.2237
  17   2.0000      -0.396818       -10.7980
  18   2.0000      -0.378416       -10.2972
  19   2.0000      -0.372634       -10.1399
  20   2.0000      -0.332955        -9.0602
  21   2.0000      -0.331213        -9.0128
  22   2.0000      -0.321785        -8.7562
  23   2.0000      -0.293036        -7.9739
  24   2.0000      -0.289046        -7.8653
  25   2.0000      -0.288494        -7.8503
  26   2.0000      -0.274579        -7.4717
  27   2.0000      -0.221140        -6.0175
  28   0.0000      -0.025130        -0.6838
  29   0.0000       0.026303         0.7157
  30   0.0000       0.033608         0.9145
  31   0.0000       0.087118         2.3706
  32   0.0000       0.088115         2.3977

MULLIKEN ATOMIC CHARGES
-----------------------
   0 C :   -0.264132
   1 C :   -0.151224
   2 C :   -0.262551
   3 C :   -0.163607
   4 C :    0.080626
   5 O :   -0.187123
   6 O :   -0.291435
   7 H :    0.089801
   8 H :    0.125700
   9 H :    0.095692
  10 H :    0.071064
  11 H :    0.097704
  12 H :    0.092082
  13 H :    0.122160
  14 H :    0.119677
  15 H :    0.112566
  16 H :    0.313001
Sum of atomic charges:   -0.0000000

LOEWDIN ATOMIC CHARGES
----------------------
   0 C :   -0.338134
   1 C :   -0.150618
   2 C :   -0.336450
   3 C :   -0.243386
   4 C :    0.033424
   5 O :   -0.165941
   6 O :   -0.210024
   7 H :    0.113167
   8 H :    0.126685
   9 H :    0.116934
  10 H :    0.117129
  11 H :    0.118323
  12 H :    0.113906
  13 H :    0.125155
  14 H :    0.144783
  15 H :    0.138564
  16 H :    0.296482

  Mayer bond orders larger than 0.100000
B(  0-C ,  1-C ) :   1.1012 B(  0-C ,  7-H ) :   0.9508 B(  0-C ,  8-H ) :   0.9399
B(  0-C ,  9-H ) :   0.9498 B(  1-C ,  2-C ) :   1.1071 B(  1-C ,  3-C ) :   1.0716
B(  1-C , 10-H ) :   0.9016 B(  2-C , 11-H ) :   0.9505 B(  2-C , 12-H ) :   0.9517
B(  2-C , 13-H ) :   0.9412 B(  3-C ,  4-C ) :   1.0012 B(  3-C , 14-H ) :   0.8928
B(  3-C , 15-H ) :   0.9027 B(  4-C ,  5-O ) :   2.0637 B(  4-C ,  6-O ) :   1.2711
B(  6-O , 16-H ) :   0.8214

Dispersion correction           -0.013363326
FINAL SINGLE POINT ENERGY      -346.245716457486

DIPOLE MOMENT
-------------

Method             : SCF
Type of density    : Electron Density
Multiplicity       :   1
Irrep              :   0
Energy             :  -346.3112270722799053 Eh
Relativity type    :
Basis              : AO
                                X                 Y                 Z
Electronic contribution:     -8.804272105       1.015568644      -1.096598582
Nuclear contribution   :      8.515534482      -0.818173746       1.598839278
                        -----------------------------------------
Total Dipole Moment    :     -0.288737623       0.197394899       0.502240696
                        -----------------------------------------
Magnitude (a.u.)       :      0.612029311
Magnitude (Debye)      :      1.555654879

Rotational constants in cm-1:             0.148443             0.056442             0.055048
Rotational constants in MHz :          4450.199627          1692.103272          1650.298807

                             ****ORCA TERMINATED NORMALLY****
TOTAL RUN TIME: 0 days 0 hours 0 minutes 9 seconds 527 msec
