                         Program Version 6.0.0  -   RELEASE  -
|  1> ! pbe def2-sv(p) def2/J RI DEFGRID1 loosescf d4 GCP(DFT/SV(P)) printgap
|  2> %output
|  3>     printlevel normal
|  4> end
|  5> * xyz 0 1
|  6> C -2.9700668633 -0.0021990105 0.1899153312
|  7> C -1.6453454614 0.7460721732 0.2425288716
|  8> C -0.4823288365 -0.1260978485 -0.155623714
|  9> O -0.5658112235 -1.2533545338 -0.5956444802
| 10> O 0.6727615973 0.502216329 0.0339001116
| 11> C 1.8930754975 -0.1851288444 -0.2929250759
| 12> C 3.005253158 0.3675106265 0.5789069244
| 13> H -3.7866999636 0.6639460029 0.4500315382
| 14> H -3.1382067945 -0.398583568 -0.8081006709
| 15> H -2.9602816511 -0.8387136599 0.8838369475
| 16> H -1.4466218498 1.1316356714 1.2433095711
| 17> H -1.6563787206 1.5991348078 -0.4388883511
| 18> H 1.741170971 -1.2575551253 -0.1333357376
| 19> H 2.0985951409 -0.0158777442 -1.3545680284
| 20> H 3.9391854249 -0.1206784515 0.3207408452
| 21> H 3.1024142994 1.4372868872 0.4199163625
| 22> H 2.7854636792 0.1876120563 1.6273501885
| 23> *
| 24>
| 25>                          ****END OF INPUT****

CARTESIAN COORDINATES (ANGSTROEM)
---------------------------------
  C     -2.970067   -0.002199    0.189915
  C     -1.645345    0.746072    0.242529
  C     -0.482329   -0.126098   -0.155624
  O     -0.565811   -1.253355   -0.595644
  O      0.672762    0.502216    0.033900
  C      1.893075   -0.185129   -0.292925
  C      3.005253    0.367511    0.578907
  H     -3.786700    0.663946    0.450032
  H     -3.138207   -0.398584   -0.808101
  H     -2.960282   -0.838714    0.883837
  H     -1.446622    1.131636    1.243310
  H     -1.656379    1.599135   -0.438888
  H      1.741171   -1.257555   -0.133336
  H      2.098595   -0.015878   -1.354568
  H      3.939185   -0.120678    0.320741
  H      3.102414    1.437287    0.419916
  H      2.785464    0.187612    1.627350

 Total Charge           Charge          ....    0
 Multiplicity           Mult            ....    1
 Number of Electrons    NEL             ....   56
 Basis Dimension        Dim             ....  118

ORBITAL ENERGIES
----------------

  NO   OCC          E(Eh)            E(eV)
   0   2.0000     -18.795101      -511.4407
   1   2.0000     -18.731771      -509.7174
   2   2.0000     -10.004701      -272.2418
   3   2.0000      -9.945651      -270.6349
   4   2.0000      -9.899823      -269.3879
   5   2.0000      -9.889059      -269.0950
   6   2.0000      -9.877588      -268.7828
   7   2.0000      -1.002324       -27.2746
   8   2.0000      -0.908284       -24.7157
   9   2.0000      -0.719227       -19.5712
  10   2.0000      -0.688681       -18.7400
  11   2.0000      -0.604882       -16.4597
  12   2.0000      -0.552233       -15.0270
  13   2.0000      -0.502014       -13.6605
  14   2.0000      -0.449419       -12.2293
  15   2.0000      -0.441598       -12.0165
  16   2.0000      -0.416410       -11.3311
  17   2.0000      -0.400131       -10.8881
  18   2.0000      -0.370564       -10.0836
  19   2.0000      -0.359956        -9.7949
  20   2.0000      -0.357418        -9.7258
  21   2.0000      -0.330512        -8.9937
  22   2.0000      -0.327246        -8.9048
  23   2.0000      -0.318483        -8.6664
  24   2.0000      -0.303381        -8.2554
  25   2.0000      -0.292088        -7.9481
  26   2.0000      -0.254553        -6.9267
  27   2.0000      -0.217958        -5.9309
  28   0.0000      -0.017015        -0.4630
  29   0.0000       0.039026         1.0620
  30   0.0000       0.053671         1.4605
  31   0.0000       0.080620         2.1938
  32   0.0000       0.091574         2.4919

MULLIKEN ATOMIC CHARGES
-----------------------
   0 C :   -0.265548
   1 C :   -0.192793
   2 C :    0.111214
   3 O :   -0.206632
   4 O :   -0.246446
   5 C :   -0.026877
   6 C :   -0.278874
   7 H :    0.100585
   8 H :    0.114484
   9 H :    0.110449
  10 H :    0.111399
  11 H :    0.116334
  12 H :    0.112773
  13 H :    0.102039
  14 H :    0.110775
  15 H :    0.113846
  16 H :    0.113271
Sum of atomic charges:    0.0000000

LOEWDIN ATOMIC CHARGES
----------------------
   0 C :   -0.336827
   1 C :   -0.259647
   2 C :    0.036309
   3 O :   -0.166359
   4 O :   -0.076420
   5 C :   -0.109980
   6 C :   -0.350960
   7 H :    0.120114
   8 H :    0.126378
   9 H :    0.124647
  10 H :    0.137382
  11 H :    0.141175
  12 H :    0.118257
  13 H :    0.114817
  14 H :    0.129703
  15 H :    0.125683
  16 H :    0.125726

  Mayer bond orders larger than 0.100000
B(  0-C ,  1-C ) :   1.1554 B(  0-C ,  7-H ) :   0.9484 B(  0-C ,  8-H ) :   0.9523
B(  0-C ,  9-H ) :   0.9571 B(  1-C ,  2-C ) :   1.0182 B(  1-C , 10-H ) :   0.9057
B(  1-C , 11-H ) :   0.9017 B(  2-C ,  3-O ) :   2.0641 B(  2-C ,  4-O ) :   1.2045
B(  4-O ,  5-C ) :   0.9141 B(  5-C ,  6-C ) :   1.1571 B(  5-C , 12-H ) :   0.9186
B(  5-C , 13-H ) :   0.9364 B(  6-C , 14-H ) :   0.9448 B(  6-C , 15-H ) :   0.9487
B(  6-C , 16-H ) :   0.9525

Dispersion correction           -0.011528467
FINAL SINGLE POINT ENERGY      -346.245504317940

DIPOLE MOMENT
-------------

Method             : SCF
Type of density    : Electron Density
Multiplicity       :   1
Irrep              :   0
Energy             :  -346.3103678780497034 Eh
Relativity type    :
Basis              : AO
                                X                 Y                 Z
Electronic contribution:     -0.228340190      -1.635147041      -1.833272954
Nuclear contribution   :      0.638263955       2.229400869       2.065295574
                        -----------------------------------------
Total Dipole Moment    :      0.409923765       0.594253828       0.232022620
                        -----------------------------------------
Magnitude (a.u.)       :      0.758293876
Magnitude (Debye)      :      1.927429856

Rotational constants in cm-1:             0.252801             0.042714             0.038207
Rotational constants in MHz :          7578.791528          1280.529483          1145.403276

                             ****ORCA TERMINATED NORMALLY****
TOTAL RUN TIME: 0 days 0 hours 0 minutes 8 seconds 964 msec
