                         Program Version 6.0.0  -   RELEASE  -
|  1> ! pbe def2-sv(p) def2/J RI DEFGRID1 loosescf d4 GCP(DFT/SV(P)) printgap
|  2> %output
|  3>     printlevel normal
|  4> end
|  5> * xyz 0 1
|  6> C -3.6621904119 -0.1126038976 -0.0006475285
|  7> C -2.2853603845 0.5325471947 -0.0006155023
|  8> O -1.32185022 -0.5112327992 0.0010595909
|  9> C 0.0034851242 -0.1919857357 0.0006200289
| 10> C 0.5136369465 1.1014176966 0.0005798127
| 11> C 1.8855034659 1.2989781575 -2.3098e-06
| 12> C 2.7565292136 0.2259949222 -0.0005983483
| 13> C 2.2478821232 -1.0642725294 -0.0004336412
| 14> C 0.8849874444 -1.2748259002 0.0001441102
| 15> H -3.7783386149 -0.7346018589 0.8823517391
| 16> H -4.4265892057 0.6576569881 -0.0018137259
| 17> H -3.7775927789 -0.7366531087 -0.8822594621
| 18> H -2.1558670583 1.157979567 0.8922675875
| 19> H -2.1547100732 1.1561709877 -0.8946714258
| 20> H -0.142312311 1.9572558622 0.000969032
| 21> H 2.269866129 2.3079228487 0.0001825315
| 22> H 3.8226755999 0.3904748216 -0.001179503
| 23> H 2.9175547229 -1.910693286 -0.0011779367
| 24> H 0.4696026502 -2.2703650869 -0.0001275049
| 25> *
| 26>
| 27>                          ****END OF INPUT****

CARTESIAN COORDINATES (ANGSTROEM)
---------------------------------
  C     -3.662190   -0.112604   -0.000648
  C     -2.285360    0.532547   -0.000616
  O     -1.321850   -0.511233    0.001060
  C      0.003485   -0.191986    0.000620
  C      0.513637    1.101418    0.000580
  C      1.885503    1.298978   -0.000002
  C      2.756529    0.225995   -0.000598
  C      2.247882   -1.064273   -0.000434
  C      0.884987   -1.274826    0.000144
  H     -3.778339   -0.734602    0.882352
  H     -4.426589    0.657657   -0.001814
  H     -3.777593   -0.736653   -0.882259
  H     -2.155867    1.157980    0.892268
  H     -2.154710    1.156171   -0.894671
  H     -0.142312    1.957256    0.000969
  H      2.269866    2.307923    0.000183
  H      3.822676    0.390475   -0.001180
  H      2.917555   -1.910693   -0.001178
  H      0.469603   -2.270365   -0.000128

 Total Charge           Charge          ....    0
 Multiplicity           Mult            ....    1
 Number of Electrons    NEL             ....   66
 Basis Dimension        Dim             ....  146

ORBITAL ENERGIES
----------------

  NO   OCC          E(Eh)            E(eV)
   0   2.0000     -18.780025      -511.0305
   1   2.0000      -9.947225      -270.6778
   2   2.0000      -9.946285      -270.6522
   3   2.0000      -9.890552      -269.1356
   4   2.0000      -9.889242      -269.0999
   5   2.0000      -9.887723      -269.0586
   6   2.0000      -9.885931      -269.0099
   7   2.0000      -9.883231      -268.9364
   8   2.0000      -9.882529      -268.9173
   9   2.0000      -0.963933       -26.2299
  10   2.0000      -0.769916       -20.9505
  11   2.0000      -0.703107       -19.1325
  12   2.0000      -0.668620       -18.1941
  13   2.0000      -0.648230       -17.6392
  14   2.0000      -0.578118       -15.7314
  15   2.0000      -0.539378       -14.6772
  16   2.0000      -0.520301       -14.1581
  17   2.0000      -0.488510       -13.2930
  18   2.0000      -0.436278       -11.8717
  19   2.0000      -0.435599       -11.8533
  20   2.0000      -0.417572       -11.3627
  21   2.0000      -0.390935       -10.6379
  22   2.0000      -0.373122       -10.1532
  23   2.0000      -0.356084        -9.6895
  24   2.0000      -0.353882        -9.6296
  25   2.0000      -0.352064        -9.5802
  26   2.0000      -0.321804        -8.7567
  27   2.0000      -0.316545        -8.6136
  28   2.0000      -0.308105        -8.3840
  29   2.0000      -0.276551        -7.5253
  30   2.0000      -0.276452        -7.5226
  31   2.0000      -0.226344        -6.1591
  32   2.0000      -0.191221        -5.2034
  33   0.0000      -0.030864        -0.8399
  34   0.0000      -0.016371        -0.4455
  35   0.0000       0.041213         1.1214
  36   0.0000       0.046948         1.2775
  37   0.0000       0.073912         2.0112

MULLIKEN ATOMIC CHARGES
-----------------------
   0 C :   -0.252794
   1 C :   -0.054165
   2 O :   -0.267448
   3 C :    0.263114
   4 C :   -0.190921
   5 C :   -0.051656
   6 C :   -0.048445
   7 C :   -0.055770
   8 C :   -0.112658
   9 H :    0.114884
  10 H :    0.105597
  11 H :    0.114884
  12 H :    0.097558
  13 H :    0.097545
  14 H :    0.045904
  15 H :    0.050885
  16 H :    0.047325
  17 H :    0.052958
  18 H :    0.043203
Sum of atomic charges:   -0.0000000

LOEWDIN ATOMIC CHARGES
----------------------
   0 C :   -0.348066
   1 C :   -0.110982
   2 O :   -0.089781
   3 C :    0.032823
   4 C :   -0.176560
   5 C :   -0.116146
   6 C :   -0.148059
   7 C :   -0.117358
   8 C :   -0.143703
   9 H :    0.127098
  10 H :    0.127574
  11 H :    0.127093
  12 H :    0.106629
  13 H :    0.106634
  14 H :    0.125945
  15 H :    0.122960
  16 H :    0.121552
  17 H :    0.123819
  18 H :    0.128529

  Mayer bond orders larger than 0.100000
B(  0-C ,  1-C ) :   1.1512 B(  0-C ,  9-H ) :   0.9499 B(  0-C , 10-H ) :   0.9443
B(  0-C , 11-H ) :   0.9499 B(  1-C ,  2-O ) :   0.9686 B(  1-C , 12-H ) :   0.9203
B(  1-C , 13-H ) :   0.9203 B(  2-O ,  3-C ) :   1.1353 B(  3-C ,  4-C ) :   1.3100
B(  3-C ,  8-C ) :   1.3530 B(  4-C ,  5-C ) :   1.3498 B(  4-C , 14-H ) :   0.9617
B(  5-C ,  6-C ) :   1.3960 B(  5-C , 15-H ) :   0.9612 B(  6-C ,  7-C ) :   1.3512
B(  6-C , 16-H ) :   0.9675 B(  7-C ,  8-C ) :   1.3933 B(  7-C , 17-H ) :   0.9649
B(  8-C , 18-H ) :   0.9630

Dispersion correction           -0.017749067
FINAL SINGLE POINT ENERGY      -385.230878055926

DIPOLE MOMENT
-------------

Method             : SCF
Type of density    : Electron Density
Multiplicity       :   1
Irrep              :   0
Energy             :  -385.2910425982737479 Eh
Relativity type    :
Basis              : AO
                                X                 Y                 Z
Electronic contribution:      6.131999316      -1.475019985       0.004340574
Nuclear contribution   :     -6.545220367       1.845445329      -0.005105449
                        -----------------------------------------
Total Dipole Moment    :     -0.413221052       0.370425344      -0.000764875
                        -----------------------------------------
Magnitude (a.u.)       :      0.554947888
Magnitude (Debye)      :      1.410565431

Rotational constants in cm-1:             0.164588             0.030716             0.026140
Rotational constants in MHz :          4934.224921           920.843183           783.669872

                             ****ORCA TERMINATED NORMALLY****
TOTAL RUN TIME: 0 days 0 hours 0 minutes 9 seconds 769 msec
