                         Program Version 6.0.0  -   RELEASE  -
|  1> ! pbe def2-sv(p) def2/J RI DEFGRID1 loosescf d4 GCP(DFT/SV(P)) printgap
|  2> %output
|  3>     printlevel normal
|  4> end
|  5> * xyz 0 1
|  6> C -1.6576926676 0.9802248924 -0.9919714053
|  7> C -1.2792813362 0.1506181916 0.2331291524
|  8> C -2.4243366758 -0.7977185197 0.5895332874
|  9> C -5.5467e-06 -0.6620836117 0.000258299
| 10> C 1.279226268 0.1505349192 -0.2331961838
| 11> C 1.6578521707 0.9808664058 0.9913141807
| 12> C 2.4242129606 -0.7981287214 -0.5890761631
| 13> H -2.6065698035 1.4854639308 -0.8256420901
| 14> H -0.9062010022 1.7362092691 -1.2029573199
| 15> H -1.7589895212 0.3393738 -1.8654941172
| 16> H -1.1245821959 0.8267884325 1.079765996
| 17> H -2.611146 -1.489764847 -0.2290506863
| 18> H -2.1830620853 -1.3754780352 1.4789802283
| 19> H -3.3374957836 -0.2390507852 0.781436956
| 20> H -0.1613001065 -1.3100304018 -0.86550336
| 21> H 0.1614581173 -1.3092466947 0.866589278
| 22> H 1.1245869912 0.826250753 -1.0802033638
| 23> H 2.6064140645 1.4863905851 0.8243925941
| 24> H 0.9062344114 1.7366891744 1.2022016353
| 25> H 1.7596819806 0.3406445529 1.8651721216
| 26> H 2.1844224736 -1.3732987536 -1.4803646716
| 27> H 3.3384681068 -0.2400745229 -0.777472749
| 28> H 2.6083762128 -1.4922704889 0.2282548065
| 29> *
| 30>
| 31>                          ****END OF INPUT****

CARTESIAN COORDINATES (ANGSTROEM)
---------------------------------
  C     -1.657693    0.980225   -0.991971
  C     -1.279281    0.150618    0.233129
  C     -2.424337   -0.797719    0.589533
  C     -0.000006   -0.662084    0.000258
  C      1.279226    0.150535   -0.233196
  C      1.657852    0.980866    0.991314
  C      2.424213   -0.798129   -0.589076
  H     -2.606570    1.485464   -0.825642
  H     -0.906201    1.736209   -1.202957
  H     -1.758990    0.339374   -1.865494
  H     -1.124582    0.826788    1.079766
  H     -2.611146   -1.489765   -0.229051
  H     -2.183062   -1.375478    1.478980
  H     -3.337496   -0.239051    0.781437
  H     -0.161300   -1.310030   -0.865503
  H      0.161458   -1.309247    0.866589
  H      1.124587    0.826251   -1.080203
  H      2.606414    1.486391    0.824393
  H      0.906234    1.736689    1.202202
  H      1.759682    0.340645    1.865172
  H      2.184422   -1.373299   -1.480365
  H      3.338468   -0.240075   -0.777473
  H      2.608376   -1.492270    0.228255

 Total Charge           Charge          ....    0
 Multiplicity           Mult            ....    1
 Number of Electrons    NEL             ....   58
 Basis Dimension        Dim             ....  130

ORBITAL ENERGIES
----------------

  NO   OCC          E(Eh)            E(eV)
   0   2.0000      -9.889377      -269.1036
   1   2.0000      -9.889359      -269.1031
   2   2.0000      -9.875600      -268.7287
   3   2.0000      -9.868753      -268.5424
   4   2.0000      -9.868727      -268.5417
   5   2.0000      -9.867881      -268.5187
   6   2.0000      -9.867848      -268.5178
   7   2.0000      -0.739150       -20.1133
   8   2.0000      -0.697784       -18.9877
   9   2.0000      -0.608547       -16.5594
  10   2.0000      -0.605859       -16.4863
  11   2.0000      -0.599634       -16.3169
  12   2.0000      -0.509431       -13.8623
  13   2.0000      -0.484066       -13.1721
  14   2.0000      -0.427569       -11.6347
  15   2.0000      -0.399812       -10.8794
  16   2.0000      -0.391728       -10.6595
  17   2.0000      -0.378898       -10.3104
  18   2.0000      -0.357888        -9.7386
  19   2.0000      -0.349618        -9.5136
  20   2.0000      -0.336393        -9.1537
  21   2.0000      -0.336180        -9.1479
  22   2.0000      -0.317392        -8.6367
  23   2.0000      -0.305665        -8.3176
  24   2.0000      -0.297348        -8.0912
  25   2.0000      -0.289664        -7.8822
  26   2.0000      -0.274826        -7.4784
  27   2.0000      -0.267647        -7.2830
  28   2.0000      -0.261675        -7.1205
  29   0.0000       0.031823         0.8659
  30   0.0000       0.056410         1.5350
  31   0.0000       0.064502         1.7552
  32   0.0000       0.064974         1.7680
  33   0.0000       0.091039         2.4773

MULLIKEN ATOMIC CHARGES
-----------------------
   0 C :   -0.254221
   1 C :   -0.170793
   2 C :   -0.234163
   3 C :   -0.121866
   4 C :   -0.170836
   5 C :   -0.254212
   6 C :   -0.234087
   7 H :    0.096186
   8 H :    0.107947
   9 H :    0.090673
  10 H :    0.074679
  11 H :    0.090247
  12 H :    0.095394
  13 H :    0.095594
  14 H :    0.069433
  15 H :    0.069424
  16 H :    0.074674
  17 H :    0.096179
  18 H :    0.107918
  19 H :    0.090654
  20 H :    0.095379
  21 H :    0.095562
  22 H :    0.090234
Sum of atomic charges:    0.0000000

LOEWDIN ATOMIC CHARGES
----------------------
   0 C :   -0.330149
   1 C :   -0.159368
   2 C :   -0.327235
   3 C :   -0.208324
   4 C :   -0.159353
   5 C :   -0.330176
   6 C :   -0.327261
   7 H :    0.117194
   8 H :    0.116107
   9 H :    0.116221
  10 H :    0.113531
  11 H :    0.115248
  12 H :    0.115584
  13 H :    0.115393
  14 H :    0.111652
  15 H :    0.111644
  16 H :    0.113530
  17 H :    0.117193
  18 H :    0.116101
  19 H :    0.116225
  20 H :    0.115609
  21 H :    0.115377
  22 H :    0.115255

  Mayer bond orders larger than 0.100000
B(  0-C ,  1-C ) :   1.1062 B(  0-C ,  7-H ) :   0.9499 B(  0-C ,  8-H ) :   0.9448
B(  0-C ,  9-H ) :   0.9495 B(  1-C ,  2-C ) :   1.1150 B(  1-C ,  3-C ) :   1.0864
B(  1-C , 10-H ) :   0.8939 B(  2-C , 11-H ) :   0.9496 B(  2-C , 12-H ) :   0.9499
B(  2-C , 13-H ) :   0.9508 B(  3-C ,  4-C ) :   1.0864 B(  3-C , 14-H ) :   0.9137
B(  3-C , 15-H ) :   0.9136 B(  4-C ,  5-C ) :   1.1062 B(  4-C ,  6-C ) :   1.1150
B(  4-C , 16-H ) :   0.8939 B(  5-C , 17-H ) :   0.9499 B(  5-C , 18-H ) :   0.9448
B(  5-C , 19-H ) :   0.9496 B(  6-C , 20-H ) :   0.9499 B(  6-C , 21-H ) :   0.9508
B(  6-C , 22-H ) :   0.9496

Dispersion correction           -0.018440513
FINAL SINGLE POINT ENERGY      -275.663683622418

DIPOLE MOMENT
-------------

Method             : SCF
Type of density    : Electron Density
Multiplicity       :   1
Irrep              :   0
Energy             :  -275.7413601177445344 Eh
Relativity type    :
Basis              : AO
                                X                 Y                 Z
Electronic contribution:     -0.000305562       0.100348754      -0.000132693
Nuclear contribution   :      0.000277564      -0.048225280       0.000098749
                        -----------------------------------------
Total Dipole Moment    :     -0.000027998       0.052123474      -0.000033944
                        -----------------------------------------
Magnitude (a.u.)       :      0.052123492
Magnitude (Debye)      :      0.132487389

Rotational constants in cm-1:             0.137754             0.045476             0.043818
Rotational constants in MHz :          4129.751118          1363.345809          1313.616290

                             ****ORCA TERMINATED NORMALLY****
TOTAL RUN TIME: 0 days 0 hours 0 minutes 10 seconds 213 msec
