                         Program Version 6.0.0  -   RELEASE  -
|  1> ! pbe def2-sv(p) def2/J RI DEFGRID1 loosescf d4 GCP(DFT/SV(P)) printgap
|  2> %output
|  3>     printlevel normal
|  4> end
|  5> * xyz 0 1
|  6> C 1.6800498254 1.4799605888 0.4456979637
|  7> C 1.4551580329 -0.0277111217 0.4088045332
|  8> C 0.3627702616 -0.5067329376 -0.5579792902
|  9> H 0.588038368 -0.087462964 -1.5459828402
| 10> C 0.4529932652 -2.0318625155 -0.6722530214
| 11> C -1.0875313508 -0.0981269731 -0.2068235607
| 12> C -1.3960653369 -0.1590987848 1.2879164846
| 13> C -1.4666670138 1.2724288092 -0.7699928409
| 14> H 2.5934530716 1.7029719251 0.993542558
| 15> H 1.7810177064 1.8763419124 -0.5621564179
| 16> H 0.8623481605 1.995590939 0.9409064642
| 17> H 1.2415947555 -0.3902384841 1.4149701637
| 18> H 2.3903997069 -0.4969294893 0.0914270836
| 19> H 1.4529689659 -2.3350416318 -0.9741970323
| 20> H 0.230436895 -2.5013293367 0.2832458109
| 21> H -0.2522146427 -2.4058022553 -1.4109758522
| 22> H -1.7384712378 -0.8290241665 -0.7028307587
| 23> H -1.1203065495 -1.1252851902 1.7029771036
| 24> H -2.4624094648 -0.0147117415 1.448611325
| 25> H -0.8661999236 0.618706696 1.8308632615
| 26> H -2.5257683903 1.4597902899 -0.6041781877
| 27> H -1.2788320796 1.3103488471 -1.8407919525
| 28> H -0.9044887058 2.0698748183 -0.2952474696
| 29> *
| 30>
| 31>                          ****END OF INPUT****

CARTESIAN COORDINATES (ANGSTROEM)
---------------------------------
  C      1.680050    1.479961    0.445698
  C      1.455158   -0.027711    0.408805
  C      0.362770   -0.506733   -0.557979
  H      0.588038   -0.087463   -1.545983
  C      0.452993   -2.031863   -0.672253
  C     -1.087531   -0.098127   -0.206824
  C     -1.396065   -0.159099    1.287916
  C     -1.466667    1.272429   -0.769993
  H      2.593453    1.702972    0.993543
  H      1.781018    1.876342   -0.562156
  H      0.862348    1.995591    0.940906
  H      1.241595   -0.390238    1.414970
  H      2.390400   -0.496929    0.091427
  H      1.452969   -2.335042   -0.974197
  H      0.230437   -2.501329    0.283246
  H     -0.252215   -2.405802   -1.410976
  H     -1.738471   -0.829024   -0.702831
  H     -1.120307   -1.125285    1.702977
  H     -2.462409   -0.014712    1.448611
  H     -0.866200    0.618707    1.830863
  H     -2.525768    1.459790   -0.604178
  H     -1.278832    1.310349   -1.840792
  H     -0.904489    2.069875   -0.295247

 Total Charge           Charge          ....    0
 Multiplicity           Mult            ....    1
 Number of Electrons    NEL             ....   58
 Basis Dimension        Dim             ....  130

ORBITAL ENERGIES
----------------

  NO   OCC          E(Eh)            E(eV)
   0   2.0000      -9.888436      -269.0780
   1   2.0000      -9.886881      -269.0357
   2   2.0000      -9.877861      -268.7903
   3   2.0000      -9.869449      -268.5613
   4   2.0000      -9.869249      -268.5559
   5   2.0000      -9.867519      -268.5088
   6   2.0000      -9.866588      -268.4835
   7   2.0000      -0.740319       -20.1451
   8   2.0000      -0.680395       -18.5145
   9   2.0000      -0.646335       -17.5877
  10   2.0000      -0.607290       -16.5252
  11   2.0000      -0.558465       -15.1966
  12   2.0000      -0.531919       -14.4742
  13   2.0000      -0.475282       -12.9331
  14   2.0000      -0.427374       -11.6294
  15   2.0000      -0.400249       -10.8913
  16   2.0000      -0.385354       -10.4860
  17   2.0000      -0.371793       -10.1170
  18   2.0000      -0.362680        -9.8690
  19   2.0000      -0.353316        -9.6142
  20   2.0000      -0.339819        -9.2469
  21   2.0000      -0.333595        -9.0776
  22   2.0000      -0.323556        -8.8044
  23   2.0000      -0.304419        -8.2837
  24   2.0000      -0.297843        -8.1047
  25   2.0000      -0.289249        -7.8709
  26   2.0000      -0.268447        -7.3048
  27   2.0000      -0.264781        -7.2051
  28   2.0000      -0.258191        -7.0257
  29   0.0000       0.031531         0.8580
  30   0.0000       0.056122         1.5272
  31   0.0000       0.062849         1.7102
  32   0.0000       0.067105         1.8260
  33   0.0000       0.084984         2.3125

MULLIKEN ATOMIC CHARGES
-----------------------
   0 C :   -0.266409
   1 C :   -0.167119
   2 C :   -0.141183
   3 H :    0.058693
   4 C :   -0.239811
   5 C :   -0.147738
   6 C :   -0.255797
   7 C :   -0.242125
   8 H :    0.097434
   9 H :    0.095494
  10 H :    0.115344
  11 H :    0.082176
  12 H :    0.077695
  13 H :    0.094474
  14 H :    0.094578
  15 H :    0.096712
  16 H :    0.063426
  17 H :    0.101970
  18 H :    0.097171
  19 H :    0.101086
  20 H :    0.093456
  21 H :    0.094649
  22 H :    0.095825
Sum of atomic charges:   -0.0000000

LOEWDIN ATOMIC CHARGES
----------------------
   0 C :   -0.342331
   1 C :   -0.225159
   2 C :   -0.143737
   3 H :    0.111125
   4 C :   -0.328006
   5 C :   -0.148345
   6 C :   -0.330346
   7 C :   -0.330917
   8 H :    0.118844
   9 H :    0.116820
  10 H :    0.114094
  11 H :    0.114718
  12 H :    0.114864
  13 H :    0.115266
  14 H :    0.115496
  15 H :    0.115021
  16 H :    0.113769
  17 H :    0.115967
  18 H :    0.118901
  19 H :    0.116608
  20 H :    0.115859
  21 H :    0.115312
  22 H :    0.116177

  Mayer bond orders larger than 0.100000
B(  0-C ,  1-C ) :   1.1721 B(  0-C ,  8-H ) :   0.9472 B(  0-C ,  9-H ) :   0.9493
B(  0-C , 10-H ) :   0.9357 B(  1-C ,  2-C ) :   1.0988 B(  1-C , 11-H ) :   0.9081
B(  1-C , 12-H ) :   0.9215 B(  2-C ,  3-H ) :   0.8978 B(  2-C ,  4-C ) :   1.1126
B(  2-C ,  5-C ) :   1.0196 B(  4-C , 13-H ) :   0.9471 B(  4-C , 14-H ) :   0.9462
B(  4-C , 15-H ) :   0.9473 B(  5-C ,  6-C ) :   1.1186 B(  5-C ,  7-C ) :   1.1174
B(  5-C , 16-H ) :   0.9019 B(  6-C , 17-H ) :   0.9454 B(  6-C , 18-H ) :   0.9458
B(  6-C , 19-H ) :   0.9360 B(  7-C , 20-H ) :   0.9491 B(  7-C , 21-H ) :   0.9474
B(  7-C , 22-H ) :   0.9403

Dispersion correction           -0.019544967
FINAL SINGLE POINT ENERGY      -275.658354075392

DIPOLE MOMENT
-------------

Method             : SCF
Type of density    : Electron Density
Multiplicity       :   1
Irrep              :   0
Energy             :  -275.7355252019264071 Eh
Relativity type    :
Basis              : AO
                                X                 Y                 Z
Electronic contribution:      0.016040369      -0.808041515      -0.726765176
Nuclear contribution   :     -0.007911857       0.795373423       0.722556233
                        -----------------------------------------
Total Dipole Moment    :      0.008128512      -0.012668091      -0.004208943
                        -----------------------------------------
Magnitude (a.u.)       :      0.015629090
Magnitude (Debye)      :      0.039725990

Rotational constants in cm-1:             0.083836             0.074015             0.054498
Rotational constants in MHz :          2513.343241          2218.913227          1633.804002

                             ****ORCA TERMINATED NORMALLY****
TOTAL RUN TIME: 0 days 0 hours 0 minutes 9 seconds 901 msec
