                         Program Version 6.0.0  -   RELEASE  -
|  1> ! r2scan-3c def2/J RI DEFGRID2 scfconv6 printgap
|  2> %output
|  3>     printlevel normal
|  4> end
|  5> * xyz 0 1
|  6> C -2.2764861776 0.2940090037 1.099601995
|  7> C -1.8277364104 0.4246642887 -0.3592061079
|  8> C -0.454400886 -0.1772711692 -0.5054954174
|  9> O -0.2338679472 -1.3417536045 -0.7674743122
| 10> O 0.4956309217 0.7224535038 -0.2883852499
| 11> C 1.8678213136 0.2956437889 -0.3179517268
| 12> C 2.322640846 -0.1747734756 1.055123742
| 13> H -1.6000727053 0.8392474754 1.7527410007
| 14> H -3.2773011909 0.6994084713 1.2127343224
| 15> H -2.2855341002 -0.7517176217 1.3978693359
| 16> H -1.7856964048 1.4747968223 -0.6435375853
| 17> H -2.5139777502 -0.1170846203 -1.0089932432
| 18> H 1.9664279245 -0.5082642431 -1.0537838141
| 19> H 2.4246750112 1.1758467623 -0.6407887638
| 20> H 3.374613413 -0.4378473096 1.0147339009
| 21> H 2.1777122079 0.613988889 1.7884210027
| 22> H 1.7512550051 -1.0498134633 1.3572650817
| 23> *
| 24>
| 25>                          ****END OF INPUT****

CARTESIAN COORDINATES (ANGSTROEM)
---------------------------------
  C     -2.276486    0.294009    1.099602
  C     -1.827736    0.424664   -0.359206
  C     -0.454401   -0.177271   -0.505495
  O     -0.233868   -1.341754   -0.767474
  O      0.495631    0.722454   -0.288385
  C      1.867821    0.295644   -0.317952
  C      2.322641   -0.174773    1.055124
  H     -1.600073    0.839247    1.752741
  H     -3.277301    0.699408    1.212734
  H     -2.285534   -0.751718    1.397869
  H     -1.785696    1.474797   -0.643538
  H     -2.513978   -0.117085   -1.008993
  H      1.966428   -0.508264   -1.053784
  H      2.424675    1.175847   -0.640789
  H      3.374613   -0.437847    1.014734
  H      2.177712    0.613989    1.788421
  H      1.751255   -1.049813    1.357265

 Total Charge           Charge          ....    0
 Multiplicity           Mult            ....    1
 Number of Electrons    NEL             ....   56
 Basis Dimension        Dim             ....  193

ORBITAL ENERGIES
----------------

  NO   OCC          E(Eh)            E(eV)
   0   2.0000     -18.996318      -516.9161
   1   2.0000     -18.926683      -515.0212
   2   2.0000     -10.150884      -276.2196
   3   2.0000     -10.090857      -274.5862
   4   2.0000     -10.042977      -273.2833
   5   2.0000     -10.032036      -272.9856
   6   2.0000     -10.029507      -272.9168
   7   2.0000      -1.071048       -29.1447
   8   2.0000      -0.974453       -26.5162
   9   2.0000      -0.765673       -20.8350
  10   2.0000      -0.730711       -19.8836
  11   2.0000      -0.642171       -17.4744
  12   2.0000      -0.599142       -16.3035
  13   2.0000      -0.522189       -14.2095
  14   2.0000      -0.472122       -12.8471
  15   2.0000      -0.455428       -12.3928
  16   2.0000      -0.437264       -11.8986
  17   2.0000      -0.410448       -11.1689
  18   2.0000      -0.407417       -11.0864
  19   2.0000      -0.380761       -10.3610
  20   2.0000      -0.372636       -10.1399
  21   2.0000      -0.354855        -9.6561
  22   2.0000      -0.336910        -9.1678
  23   2.0000      -0.328287        -8.9331
  24   2.0000      -0.325083        -8.8460
  25   2.0000      -0.305929        -8.3248
  26   2.0000      -0.270449        -7.3593
  27   2.0000      -0.233440        -6.3522
  28   0.0000      -0.013954        -0.3797
  29   0.0000       0.075386         2.0514
  30   0.0000       0.091941         2.5019
  31   0.0000       0.116254         3.1634
  32   0.0000       0.123940         3.3726

MULLIKEN ATOMIC CHARGES
-----------------------
   0 C :   -0.472359
   1 C :   -0.296336
   2 C :    0.415778
   3 O :   -0.431682
   4 O :   -0.179600
   5 C :   -0.141023
   6 C :   -0.465801
   7 H :    0.153331
   8 H :    0.153937
   9 H :    0.161999
  10 H :    0.154553
  11 H :    0.160895
  12 H :    0.170444
  13 H :    0.147566
  14 H :    0.147479
  15 H :    0.151657
  16 H :    0.169163
Sum of atomic charges:   -0.0000000

LOEWDIN ATOMIC CHARGES
----------------------
   0 C :   -0.392528
   1 C :   -0.236123
   2 C :    0.356018
   3 O :   -0.434161
   4 O :   -0.595775
   5 C :    0.027166
   6 C :   -0.390595
   7 H :    0.156686
   8 H :    0.153289
   9 H :    0.160106
  10 H :    0.173810
  11 H :    0.174790
  12 H :    0.189555
  13 H :    0.177427
  14 H :    0.159394
  15 H :    0.156652
  16 H :    0.164289

  Mayer bond orders larger than 0.100000
B(  0-C ,  1-C ) :   0.8930 B(  0-C ,  7-H ) :   0.9762 B(  0-C ,  8-H ) :   0.9707
B(  0-C ,  9-H ) :   0.9753 B(  1-C ,  2-C ) :   0.9514 B(  1-C , 10-H ) :   0.9761
B(  1-C , 11-H ) :   0.9726 B(  2-C ,  3-O ) :   1.8395 B(  2-C ,  4-O ) :   1.0451
B(  4-O ,  5-C ) :   0.8135 B(  5-C ,  6-C ) :   0.9360 B(  5-C , 12-H ) :   0.9663
B(  5-C , 13-H ) :   0.9624 B(  6-C , 14-H ) :   0.9657 B(  6-C , 15-H ) :   0.9740
B(  6-C , 16-H ) :   0.9713

Dispersion correction           -0.004048724
FINAL SINGLE POINT ENERGY      -346.936146127862

DIPOLE MOMENT
-------------

Method             : SCF
Type of density    : Electron Density
Multiplicity       :   1
Irrep              :   0
Energy             :  -346.9424897808910941 Eh
Relativity type    :
Basis              : AO
                                X                 Y                 Z
Electronic contribution:     -0.048191320      -1.086972291      -4.509448890
Nuclear contribution   :      0.221630870       1.809512660       4.840919447
                        -----------------------------------------
Total Dipole Moment    :      0.173439549       0.722540369       0.331470557
                        -----------------------------------------
Magnitude (a.u.)       :      0.813645250
Magnitude (Debye)      :      2.068121870

Rotational constants in cm-1:             0.154301             0.053494             0.049237
Rotational constants in MHz :          4625.812867          1603.704730          1476.081048

                             ****ORCA TERMINATED NORMALLY****
TOTAL RUN TIME: 0 days 0 hours 0 minutes 21 seconds 80 msec
