                         Program Version 6.0.0  -   RELEASE  -
|  1> ! r2scan-3c def2/J RI DEFGRID2 scfconv6 printgap
|  2> %output
|  3>     printlevel normal
|  4> end
|  5> %cpcm
|  6>     smd true
|  7>     smdsolvent "water"
|  8> end
|  9> * xyz 0 1
| 10> C -2.2764861776 0.2940090037 1.099601995
| 11> C -1.8277364104 0.4246642887 -0.3592061079
| 12> C -0.454400886 -0.1772711692 -0.5054954174
| 13> O -0.2338679472 -1.3417536045 -0.7674743122
| 14> O 0.4956309217 0.7224535038 -0.2883852499
| 15> C 1.8678213136 0.2956437889 -0.3179517268
| 16> C 2.322640846 -0.1747734756 1.055123742
| 17> H -1.6000727053 0.8392474754 1.7527410007
| 18> H -3.2773011909 0.6994084713 1.2127343224
| 19> H -2.2855341002 -0.7517176217 1.3978693359
| 20> H -1.7856964048 1.4747968223 -0.6435375853
| 21> H -2.5139777502 -0.1170846203 -1.0089932432
| 22> H 1.9664279245 -0.5082642431 -1.0537838141
| 23> H 2.4246750112 1.1758467623 -0.6407887638
| 24> H 3.374613413 -0.4378473096 1.0147339009
| 25> H 2.1777122079 0.613988889 1.7884210027
| 26> H 1.7512550051 -1.0498134633 1.3572650817
| 27> *
| 28>
| 29>                          ****END OF INPUT****

CARTESIAN COORDINATES (ANGSTROEM)
---------------------------------
  C     -2.276486    0.294009    1.099602
  C     -1.827736    0.424664   -0.359206
  C     -0.454401   -0.177271   -0.505495
  O     -0.233868   -1.341754   -0.767474
  O      0.495631    0.722454   -0.288385
  C      1.867821    0.295644   -0.317952
  C      2.322641   -0.174773    1.055124
  H     -1.600073    0.839247    1.752741
  H     -3.277301    0.699408    1.212734
  H     -2.285534   -0.751718    1.397869
  H     -1.785696    1.474797   -0.643538
  H     -2.513978   -0.117085   -1.008993
  H      1.966428   -0.508264   -1.053784
  H      2.424675    1.175847   -0.640789
  H      3.374613   -0.437847    1.014734
  H      2.177712    0.613989    1.788421
  H      1.751255   -1.049813    1.357265

 Total Charge           Charge          ....    0
 Multiplicity           Mult            ....    1
 Number of Electrons    NEL             ....   56
 Basis Dimension        Dim             ....  193

ORBITAL ENERGIES
----------------

  NO   OCC          E(Eh)            E(eV)
   0   2.0000     -19.002245      -517.0774
   1   2.0000     -18.943048      -515.4665
   2   2.0000     -10.161863      -276.5183
   3   2.0000     -10.083086      -274.3747
   4   2.0000     -10.037261      -273.1278
   5   2.0000     -10.022478      -272.7255
   6   2.0000     -10.018437      -272.6155
   7   2.0000      -1.078674       -29.3522
   8   2.0000      -0.988640       -26.9023
   9   2.0000      -0.761518       -20.7219
  10   2.0000      -0.723000       -19.6738
  11   2.0000      -0.636717       -17.3260
  12   2.0000      -0.592837       -16.1319
  13   2.0000      -0.520215       -14.1558
  14   2.0000      -0.471921       -12.8416
  15   2.0000      -0.460238       -12.5237
  16   2.0000      -0.441648       -12.0179
  17   2.0000      -0.411988       -11.2108
  18   2.0000      -0.401246       -10.9185
  19   2.0000      -0.376152       -10.2356
  20   2.0000      -0.367484        -9.9998
  21   2.0000      -0.346809        -9.4372
  22   2.0000      -0.332264        -9.0414
  23   2.0000      -0.327233        -8.9045
  24   2.0000      -0.317319        -8.6347
  25   2.0000      -0.304161        -8.2766
  26   2.0000      -0.277830        -7.5601
  27   2.0000      -0.249713        -6.7950
  28   0.0000      -0.022444        -0.6107
  29   0.0000       0.078119         2.1257
  30   0.0000       0.099789         2.7154
  31   0.0000       0.125416         3.4127
  32   0.0000       0.134391         3.6570

MULLIKEN ATOMIC CHARGES
-----------------------
   0 C :   -0.493163
   1 C :   -0.312244
   2 C :    0.452378
   3 O :   -0.515814
   4 O :   -0.197451
   5 C :   -0.145113
   6 C :   -0.491316
   7 H :    0.165112
   8 H :    0.173297
   9 H :    0.165809
  10 H :    0.174563
  11 H :    0.175070
  12 H :    0.171941
  13 H :    0.173463
  14 H :    0.170464
  15 H :    0.166086
  16 H :    0.166919
Sum of atomic charges:   -0.0000000

LOEWDIN ATOMIC CHARGES
----------------------
   0 C :   -0.393880
   1 C :   -0.233356
   2 C :    0.365104
   3 O :   -0.494739
   4 O :   -0.597357
   5 C :    0.031971
   6 C :   -0.393341
   7 H :    0.160544
   8 H :    0.160705
   9 H :    0.160776
  10 H :    0.182604
  11 H :    0.180188
  12 H :    0.190112
  13 H :    0.188758
  14 H :    0.167832
  15 H :    0.161854
  16 H :    0.162226

  Mayer bond orders larger than 0.100000
B(  0-C ,  1-C ) :   0.8836 B(  0-C ,  7-H ) :   0.9718 B(  0-C ,  8-H ) :   0.9655
B(  0-C ,  9-H ) :   0.9727 B(  1-C ,  2-C ) :   0.9519 B(  1-C , 10-H ) :   0.9670
B(  1-C , 11-H ) :   0.9684 B(  2-C ,  3-O ) :   1.7682 B(  2-C ,  4-O ) :   1.0704
B(  4-O ,  5-C ) :   0.7967 B(  5-C ,  6-C ) :   0.9355 B(  5-C , 12-H ) :   0.9625
B(  5-C , 13-H ) :   0.9530 B(  6-C , 14-H ) :   0.9607 B(  6-C , 15-H ) :   0.9699
B(  6-C , 16-H ) :   0.9685

Dispersion correction           -0.004048724
FINAL SINGLE POINT ENERGY      -346.941266540736

DIPOLE MOMENT
-------------

Method             : SCF
Type of density    : Electron Density
Multiplicity       :   1
Irrep              :   0
Energy             :  -346.9476101937644330 Eh
Relativity type    :
Basis              : AO
                                X                 Y                 Z
Electronic contribution:      0.002032833      -0.750516970      -4.407407411
Nuclear contribution   :      0.221630870       1.809512660       4.840919447
                        -----------------------------------------
Total Dipole Moment    :      0.223663703       1.058995690       0.433512036
                        -----------------------------------------
Magnitude (a.u.)       :      1.165945972
Magnitude (Debye)      :      2.963599140

Rotational constants in cm-1:             0.154301             0.053494             0.049237
Rotational constants in MHz :          4625.812867          1603.704730          1476.081048

                             ****ORCA TERMINATED NORMALLY****
TOTAL RUN TIME: 0 days 0 hours 0 minutes 25 seconds 38 msec
