                         Program Version 6.0.0  -   RELEASE  -
|  1> ! pbe def2-sv(p) def2/J RI DEFGRID1 loosescf d4 GCP(DFT/SV(P)) printgap
|  2> %output
|  3>     printlevel normal
|  4> end
|  5> * xyz 0 1
|  6> C 2.0025271202 1.1295720788 -1.0405688003
|  7> C 2.0973045206 -0.2025357393 -0.3019062312
|  8> C 3.5314514521 -0.4572276279 0.1557472256
|  9> C 1.1447825292 -0.2269893314 0.9065896176
| 10> C -0.2934213254 -0.1365656652 0.4866464727
| 11> C -1.0044409393 1.0508844478 0.60477704
| 12> C -2.3216693975 1.1324873869 0.1872166876
| 13> C -2.9478287185 0.0244940141 -0.3570541492
| 14> C -2.2496225977 -1.1655906391 -0.4779777799
| 15> C -0.9339918116 -1.2435344678 -0.058714155
| 16> H 2.2941333943 1.9475115435 -0.3850109289
| 17> H 0.985323532 1.3065913267 -1.3826641114
| 18> H 2.661795872 1.1315797546 -1.9054409839
| 19> H 1.7997002818 -1.0023224197 -0.9893307865
| 20> H 3.849865266 0.3173276309 0.8501643856
| 21> H 3.612420965 -1.4204124079 0.6542641908
| 22> H 4.2078039491 -0.4535673077 -0.6957147228
| 23> H 1.3918315132 0.6047642883 1.5689428624
| 24> H 1.3020845699 -1.1585962538 1.4550034147
| 25> H -0.5225773425 1.920157972 1.0289329201
| 26> H -2.8606182803 2.0633564712 0.2867313564
| 27> H -3.9752799674 0.0867180582 -0.6835181277
| 28> H -2.7331866183 -2.0349975778 -0.8989034051
| 29> H -0.3954441569 -2.175943623 -0.1518174598
| 30> *
| 31>
| 32>                          ****END OF INPUT****

CARTESIAN COORDINATES (ANGSTROEM)
---------------------------------
  C      2.002527    1.129572   -1.040569
  C      2.097305   -0.202536   -0.301906
  C      3.531451   -0.457228    0.155747
  C      1.144783   -0.226989    0.906590
  C     -0.293421   -0.136566    0.486646
  C     -1.004441    1.050884    0.604777
  C     -2.321669    1.132487    0.187217
  C     -2.947829    0.024494   -0.357054
  C     -2.249623   -1.165591   -0.477978
  C     -0.933992   -1.243534   -0.058714
  H      2.294133    1.947512   -0.385011
  H      0.985324    1.306591   -1.382664
  H      2.661796    1.131580   -1.905441
  H      1.799700   -1.002322   -0.989331
  H      3.849865    0.317328    0.850164
  H      3.612421   -1.420412    0.654264
  H      4.207804   -0.453567   -0.695715
  H      1.391832    0.604764    1.568943
  H      1.302085   -1.158596    1.455003
  H     -0.522577    1.920158    1.028933
  H     -2.860618    2.063356    0.286731
  H     -3.975280    0.086718   -0.683518
  H     -2.733187   -2.034998   -0.898903
  H     -0.395444   -2.175944   -0.151817

 Total Charge           Charge          ....    0
 Multiplicity           Mult            ....    1
 Number of Electrons    NEL             ....   74
 Basis Dimension        Dim             ....  168

ORBITAL ENERGIES
----------------

  NO   OCC          E(Eh)            E(eV)
   0   2.0000      -9.898771      -269.3592
   1   2.0000      -9.896780      -269.3051
   2   2.0000      -9.887904      -269.0635
   3   2.0000      -9.887411      -269.0501
   4   2.0000      -9.887161      -269.0433
   5   2.0000      -9.886722      -269.0314
   6   2.0000      -9.886548      -269.0267
   7   2.0000      -9.885529      -268.9989
   8   2.0000      -9.872983      -268.6575
   9   2.0000      -9.869761      -268.5698
  10   2.0000      -0.776881       -21.1400
  11   2.0000      -0.731857       -19.9148
  12   2.0000      -0.676801       -18.4167
  13   2.0000      -0.666210       -18.1285
  14   2.0000      -0.609959       -16.5978
  15   2.0000      -0.605117       -16.4661
  16   2.0000      -0.541038       -14.7224
  17   2.0000      -0.524042       -14.2599
  18   2.0000      -0.497131       -13.5276
  19   2.0000      -0.460569       -12.5327
  20   2.0000      -0.421557       -11.4711
  21   2.0000      -0.404469       -11.0062
  22   2.0000      -0.396893       -10.8000
  23   2.0000      -0.392565       -10.6822
  24   2.0000      -0.377006       -10.2588
  25   2.0000      -0.370747       -10.0885
  26   2.0000      -0.344806        -9.3827
  27   2.0000      -0.338656        -9.2153
  28   2.0000      -0.328546        -8.9402
  29   2.0000      -0.326333        -8.8800
  30   2.0000      -0.306924        -8.3518
  31   2.0000      -0.295726        -8.0471
  32   2.0000      -0.289464        -7.8767
  33   2.0000      -0.284242        -7.7346
  34   2.0000      -0.278122        -7.5681
  35   2.0000      -0.225806        -6.1445
  36   2.0000      -0.216279        -5.8852
  37   0.0000      -0.032519        -0.8849
  38   0.0000      -0.029454        -0.8015
  39   0.0000       0.036746         0.9999
  40   0.0000       0.049575         1.3490
  41   0.0000       0.058227         1.5844

MULLIKEN ATOMIC CHARGES
-----------------------
   0 C :   -0.252708
   1 C :   -0.211261
   2 C :   -0.220433
   3 C :   -0.066597
   4 C :    0.073826
   5 C :   -0.113436
   6 C :   -0.049412
   7 C :   -0.050063
   8 C :   -0.048179
   9 C :   -0.113996
  10 H :    0.088030
  11 H :    0.123087
  12 H :    0.098077
  13 H :    0.078948
  14 H :    0.090994
  15 H :    0.094651
  16 H :    0.099856
  17 H :    0.072010
  18 H :    0.080836
  19 H :    0.036941
  20 H :    0.049283
  21 H :    0.051102
  22 H :    0.049666
  23 H :    0.038777
Sum of atomic charges:    0.0000000

LOEWDIN ATOMIC CHARGES
----------------------
   0 C :   -0.332507
   1 C :   -0.151005
   2 C :   -0.328970
   3 C :   -0.200755
   4 C :   -0.037336
   5 C :   -0.125213
   6 C :   -0.122371
   7 C :   -0.129487
   8 C :   -0.121698
   9 C :   -0.122603
  10 H :    0.114764
  11 H :    0.124066
  12 H :    0.118009
  13 H :    0.115278
  14 H :    0.116535
  15 H :    0.115929
  16 H :    0.118228
  17 H :    0.118530
  18 H :    0.122943
  19 H :    0.120170
  20 H :    0.122603
  21 H :    0.122306
  22 H :    0.122534
  23 H :    0.120054

  Mayer bond orders larger than 0.100000
B(  0-C ,  1-C ) :   1.1086 B(  0-C , 10-H ) :   0.9490 B(  0-C , 11-H ) :   0.9416
B(  0-C , 12-H ) :   0.9493 B(  1-C ,  2-C ) :   1.1112 B(  1-C ,  3-C ) :   1.0796
B(  1-C , 13-H ) :   0.9025 B(  2-C , 14-H ) :   0.9479 B(  2-C , 15-H ) :   0.9486
B(  2-C , 16-H ) :   0.9510 B(  3-C ,  4-C ) :   1.0697 B(  3-C , 17-H ) :   0.8984
B(  3-C , 18-H ) :   0.8973 B(  4-C ,  5-C ) :   1.3962 B(  4-C ,  9-C ) :   1.3840
B(  5-C ,  6-C ) :   1.3640 B(  5-C , 19-H ) :   0.9601 B(  6-C ,  7-C ) :   1.3836
B(  6-C , 20-H ) :   0.9636 B(  7-C ,  8-C ) :   1.3750 B(  7-C , 21-H ) :   0.9654
B(  8-C ,  9-C ) :   1.3785 B(  8-C , 22-H ) :   0.9635 B(  9-C , 23-H ) :   0.9591

Dispersion correction           -0.024690233
FINAL SINGLE POINT ENERGY      -388.583021668127

DIPOLE MOMENT
-------------

Method             : SCF
Type of density    : Electron Density
Multiplicity       :   1
Irrep              :   0
Energy             :  -388.6527990019354775 Eh
Relativity type    :
Basis              : AO
                                X                 Y                 Z
Electronic contribution:    -10.780123207      -1.093829815       1.136016919
Nuclear contribution   :     10.899481984       1.062161727      -1.171171005
                        -----------------------------------------
Total Dipole Moment    :      0.119358777      -0.031668088      -0.035154086
                        -----------------------------------------
Magnitude (a.u.)       :      0.128394685
Magnitude (Debye)      :      0.326353355

Rotational constants in cm-1:             0.103233             0.025154             0.023089
Rotational constants in MHz :          3094.844901           754.100291           692.200239

                             ****ORCA TERMINATED NORMALLY****
TOTAL RUN TIME: 0 days 0 hours 0 minutes 12 seconds 477 msec
