                         Program Version 6.0.0  -   RELEASE  -
|  1> ! pbe def2-sv(p) def2/J RI DEFGRID1 loosescf d4 GCP(DFT/SV(P)) printgap
|  2> %output
|  3>     printlevel normal
|  4> end
|  5> * xyz 0 1
|  6> C -1.6841637078 0.9554641184 -1.0057039249
|  7> C -1.2787944578 0.1579481778 0.2320715067
|  8> C -2.4127941191 -0.7861179327 0.6322347222
|  9> C 0.0004476291 -0.6533850896 -0.0062261494
| 10> C 1.2787588855 0.1636266747 -0.2298025984
| 11> C 1.6818035523 0.9418631702 1.0209858845
| 12> C 2.4147569984 -0.7721683133 -0.6435747658
| 13> H -1.8183910498 0.2901271216 -1.856161453
| 14> H -2.6218979021 1.4768115995 -0.8272694291
| 15> H -0.9309170582 1.6955175897 -1.2617448812
| 16> H -1.1121691461 0.855783265 1.0585970257
| 17> H -3.3272051954 -0.227478641 0.8180599463
| 18> H -2.6050927154 -1.5044371566 -0.1620478331
| 19> H -2.156746562 -1.3341905203 1.5360528204
| 20> H -0.1604410126 -1.2931940484 -0.8780712129
| 21> H 0.1621885576 -1.3085960054 0.8539073776
| 22> H 1.1119335788 0.8743427637 -1.0452481388
| 23> H 0.9275074018 1.6772137441 1.2875107204
| 24> H 1.8153376901 0.2632915805 1.8610520796
| 25> H 2.6193617938 1.4668212803 0.8518782936
| 26> H 2.1584788423 -1.3100041531 -1.5534414328
| 27> H 3.3271931554 -0.208701452 -0.8244561672
| 28> H 2.6106834819 -1.4994754416 0.1415649118
| 29> *
| 30>
| 31>                          ****END OF INPUT****

CARTESIAN COORDINATES (ANGSTROEM)
---------------------------------
  C     -1.684164    0.955464   -1.005704
  C     -1.278794    0.157948    0.232072
  C     -2.412794   -0.786118    0.632235
  C      0.000448   -0.653385   -0.006226
  C      1.278759    0.163627   -0.229803
  C      1.681804    0.941863    1.020986
  C      2.414757   -0.772168   -0.643575
  H     -1.818391    0.290127   -1.856161
  H     -2.621898    1.476812   -0.827269
  H     -0.930917    1.695518   -1.261745
  H     -1.112169    0.855783    1.058597
  H     -3.327205   -0.227479    0.818060
  H     -2.605093   -1.504437   -0.162048
  H     -2.156747   -1.334191    1.536053
  H     -0.160441   -1.293194   -0.878071
  H      0.162189   -1.308596    0.853907
  H      1.111934    0.874343   -1.045248
  H      0.927507    1.677214    1.287511
  H      1.815338    0.263292    1.861052
  H      2.619362    1.466821    0.851878
  H      2.158479   -1.310004   -1.553441
  H      3.327193   -0.208701   -0.824456
  H      2.610683   -1.499475    0.141565

 Total Charge           Charge          ....    0
 Multiplicity           Mult            ....    1
 Number of Electrons    NEL             ....   58
 Basis Dimension        Dim             ....  130

ORBITAL ENERGIES
----------------

  NO   OCC          E(Eh)            E(eV)
   0   2.0000      -9.889465      -269.1060
   1   2.0000      -9.889442      -269.1054
   2   2.0000      -9.875600      -268.7287
   3   2.0000      -9.868730      -268.5418
   4   2.0000      -9.868704      -268.5411
   5   2.0000      -9.867891      -268.5190
   6   2.0000      -9.867879      -268.5186
   7   2.0000      -0.739142       -20.1131
   8   2.0000      -0.697911       -18.9911
   9   2.0000      -0.608150       -16.5486
  10   2.0000      -0.606126       -16.4935
  11   2.0000      -0.599740       -16.3197
  12   2.0000      -0.508946       -13.8491
  13   2.0000      -0.484977       -13.1969
  14   2.0000      -0.427261       -11.6264
  15   2.0000      -0.399928       -10.8826
  16   2.0000      -0.391857       -10.6630
  17   2.0000      -0.377909       -10.2834
  18   2.0000      -0.359426        -9.7805
  19   2.0000      -0.349583        -9.5126
  20   2.0000      -0.336441        -9.1550
  21   2.0000      -0.335974        -9.1423
  22   2.0000      -0.316623        -8.6157
  23   2.0000      -0.305766        -8.3203
  24   2.0000      -0.297520        -8.0959
  25   2.0000      -0.289892        -7.8884
  26   2.0000      -0.274901        -7.4804
  27   2.0000      -0.267584        -7.2813
  28   2.0000      -0.261720        -7.1218
  29   0.0000       0.032042         0.8719
  30   0.0000       0.056272         1.5312
  31   0.0000       0.064557         1.7567
  32   0.0000       0.064724         1.7612
  33   0.0000       0.091469         2.4890

MULLIKEN ATOMIC CHARGES
-----------------------
   0 C :   -0.253825
   1 C :   -0.171373
   2 C :   -0.233947
   3 C :   -0.120182
   4 C :   -0.171569
   5 C :   -0.253909
   6 C :   -0.233816
   7 H :    0.090608
   8 H :    0.096233
   9 H :    0.107225
  10 H :    0.074520
  11 H :    0.095411
  12 H :    0.090247
  13 H :    0.095685
  14 H :    0.069309
  15 H :    0.069334
  16 H :    0.074545
  17 H :    0.107286
  18 H :    0.090663
  19 H :    0.096258
  20 H :    0.095644
  21 H :    0.095442
  22 H :    0.090211
Sum of atomic charges:   -0.0000000

LOEWDIN ATOMIC CHARGES
----------------------
   0 C :   -0.330006
   1 C :   -0.159197
   2 C :   -0.327292
   3 C :   -0.208166
   4 C :   -0.159216
   5 C :   -0.329995
   6 C :   -0.327291
   7 H :    0.116107
   8 H :    0.117194
   9 H :    0.115836
  10 H :    0.113452
  11 H :    0.115379
  12 H :    0.115325
  13 H :    0.115583
  14 H :    0.111697
  15 H :    0.111701
  16 H :    0.113454
  17 H :    0.115831
  18 H :    0.116112
  19 H :    0.117212
  20 H :    0.115562
  21 H :    0.115396
  22 H :    0.115320

  Mayer bond orders larger than 0.100000
B(  0-C ,  1-C ) :   1.1063 B(  0-C ,  7-H ) :   0.9495 B(  0-C ,  8-H ) :   0.9497
B(  0-C ,  9-H ) :   0.9451 B(  1-C ,  2-C ) :   1.1143 B(  1-C ,  3-C ) :   1.0851
B(  1-C , 10-H ) :   0.8944 B(  2-C , 11-H ) :   0.9509 B(  2-C , 12-H ) :   0.9497
B(  2-C , 13-H ) :   0.9497 B(  3-C ,  4-C ) :   1.0854 B(  3-C , 14-H ) :   0.9138
B(  3-C , 15-H ) :   0.9139 B(  4-C ,  5-C ) :   1.1062 B(  4-C ,  6-C ) :   1.1143
B(  4-C , 16-H ) :   0.8944 B(  5-C , 17-H ) :   0.9451 B(  5-C , 18-H ) :   0.9495
B(  5-C , 19-H ) :   0.9497 B(  6-C , 20-H ) :   0.9497 B(  6-C , 21-H ) :   0.9509
B(  6-C , 22-H ) :   0.9497

Dispersion correction           -0.018400909
FINAL SINGLE POINT ENERGY      -275.663546310695

DIPOLE MOMENT
-------------

Method             : SCF
Type of density    : Electron Density
Multiplicity       :   1
Irrep              :   0
Energy             :  -275.7412372173432686 Eh
Relativity type    :
Basis              : AO
                                X                 Y                 Z
Electronic contribution:      0.000181673       0.133598770       0.000269766
Nuclear contribution   :     -0.000165247      -0.080839939       0.000171334
                        -----------------------------------------
Total Dipole Moment    :      0.000016425       0.052758831       0.000441100
                        -----------------------------------------
Magnitude (a.u.)       :      0.052760677
Magnitude (Debye)      :      0.134106984

Rotational constants in cm-1:             0.137490             0.044974             0.044036
Rotational constants in MHz :          4121.840286          1348.288316          1320.167344

                             ****ORCA TERMINATED NORMALLY****
TOTAL RUN TIME: 0 days 0 hours 0 minutes 10 seconds 546 msec
