                         Program Version 6.0.0  -   RELEASE  -
|  1> ! pbe def2-sv(p) def2/J RI DEFGRID1 loosescf d4 GCP(DFT/SV(P)) printgap
|  2> %output
|  3>     printlevel normal
|  4> end
|  5> * xyz 0 1
|  6> C -0.4866047529 1.2271883121 -1.9571491371
|  7> N -0.1565856213 0.2619874657 -0.9292777394
|  8> C -1.1532849923 -0.7253043623 -0.6405323439
|  9> C -2.1311463728 -0.2850566567 0.4556576695
| 10> F -1.5404548587 0.026994606 1.6188019028
| 11> F -2.8607377095 0.7906646684 0.1092029202
| 12> F -3.0225573958 -1.2587835746 0.7383180756
| 13> C 1.1437237555 0.1279475491 -0.4731446399
| 14> C 2.2039534355 0.7613353306 -1.1309012586
| 15> C 3.4993894787 0.6397205284 -0.6669944068
| 16> C 3.7828772647 -0.11809519 0.4559989458
| 17> C 2.7423022719 -0.7490353099 1.1156547343
| 18> C 1.4417488152 -0.628167982 0.6659580679
| 19> H -1.5599064797 1.4022582511 -1.9508622231
| 20> H -0.189049411 0.8806004929 -2.9521942837
| 21> H 0.0060987356 2.1734295414 -1.7430154985
| 22> H -1.7634590622 -0.9283446587 -1.5276906234
| 23> H -0.7006684131 -1.6623838678 -0.3061159064
| 24> H 2.0258309357 1.343532542 -2.0189800603
| 25> H 4.297832249 1.1384580655 -1.1964501739
| 26> H 4.7963088549 -0.2128532825 0.8139513468
| 27> H 2.9404269108 -1.3377208499 1.9993526573
| 28> H 0.6591759672 -1.1083825413 1.2317259267
| 29> *
| 30>
| 31>                          ****END OF INPUT****

CARTESIAN COORDINATES (ANGSTROEM)
---------------------------------
  C     -0.486605    1.227188   -1.957149
  N     -0.156586    0.261987   -0.929278
  C     -1.153285   -0.725304   -0.640532
  C     -2.131146   -0.285057    0.455658
  F     -1.540455    0.026995    1.618802
  F     -2.860738    0.790665    0.109203
  F     -3.022557   -1.258784    0.738318
  C      1.143724    0.127948   -0.473145
  C      2.203953    0.761335   -1.130901
  C      3.499389    0.639721   -0.666994
  C      3.782877   -0.118095    0.455999
  C      2.742302   -0.749035    1.115655
  C      1.441749   -0.628168    0.665958
  H     -1.559906    1.402258   -1.950862
  H     -0.189049    0.880600   -2.952194
  H      0.006099    2.173430   -1.743015
  H     -1.763459   -0.928345   -1.527691
  H     -0.700668   -1.662384   -0.306116
  H      2.025831    1.343533   -2.018980
  H      4.297832    1.138458   -1.196450
  H      4.796309   -0.212853    0.813951
  H      2.940427   -1.337721    1.999353
  H      0.659176   -1.108383    1.231726

 Total Charge           Charge          ....    0
 Multiplicity           Mult            ....    1
 Number of Electrons    NEL             ....   98
 Basis Dimension        Dim             ....  202

ORBITAL ENERGIES
----------------

  NO   OCC          E(Eh)            E(eV)
   0   2.0000     -24.289551      -660.9523
   1   2.0000     -24.288797      -660.9318
   2   2.0000     -24.285668      -660.8466
   3   2.0000     -14.029327      -381.7574
   4   2.0000     -10.124561      -275.5033
   5   2.0000      -9.953511      -270.8488
   6   2.0000      -9.933058      -270.2923
   7   2.0000      -9.925634      -270.0902
   8   2.0000      -9.889328      -269.1023
   9   2.0000      -9.888616      -269.0829
  10   2.0000      -9.885019      -268.9850
  11   2.0000      -9.883679      -268.9486
  12   2.0000      -9.880988      -268.8754
  13   2.0000      -1.192028       -32.4367
  14   2.0000      -1.099592       -29.9214
  15   2.0000      -1.096618       -29.8405
  16   2.0000      -0.881325       -23.9821
  17   2.0000      -0.767793       -20.8927
  18   2.0000      -0.709006       -19.2930
  19   2.0000      -0.677495       -18.4356
  20   2.0000      -0.663736       -18.0612
  21   2.0000      -0.620331       -16.8801
  22   2.0000      -0.593247       -16.1431
  23   2.0000      -0.543527       -14.7901
  24   2.0000      -0.535664       -14.5762
  25   2.0000      -0.527865       -14.3639
  26   2.0000      -0.521763       -14.1979
  27   2.0000      -0.499055       -13.5800
  28   2.0000      -0.482305       -13.1242
  29   2.0000      -0.445663       -12.1271
  30   2.0000      -0.431463       -11.7407
  31   2.0000      -0.407164       -11.0795
  32   2.0000      -0.406643       -11.0653
  33   2.0000      -0.398521       -10.8443
  34   2.0000      -0.397331       -10.8119
  35   2.0000      -0.385557       -10.4915
  36   2.0000      -0.380181       -10.3452
  37   2.0000      -0.370317       -10.0768
  38   2.0000      -0.357507        -9.7283
  39   2.0000      -0.353360        -9.6154
  40   2.0000      -0.350563        -9.5393
  41   2.0000      -0.341886        -9.3032
  42   2.0000      -0.338102        -9.2002
  43   2.0000      -0.328617        -8.9421
  44   2.0000      -0.312817        -8.5122
  45   2.0000      -0.296039        -8.0556
  46   2.0000      -0.258845        -7.0435
  47   2.0000      -0.225299        -6.1307
  48   2.0000      -0.175149        -4.7660
  49   0.0000      -0.031332        -0.8526
  50   0.0000      -0.017051        -0.4640
  51   0.0000       0.034417         0.9365
  52   0.0000       0.049693         1.3522
  53   0.0000       0.062054         1.6886

MULLIKEN ATOMIC CHARGES
-----------------------
   0 C :   -0.176389
   1 N :   -0.252621
   2 C :   -0.125490
   3 C :    0.393139
   4 F :   -0.128598
   5 F :   -0.141071
   6 F :   -0.145967
   7 C :    0.251444
   8 C :   -0.168140
   9 C :   -0.055638
  10 C :   -0.047296
  11 C :   -0.058767
  12 C :   -0.158979
  13 H :    0.122491
  14 H :    0.106683
  15 H :    0.129295
  16 H :    0.117253
  17 H :    0.130065
  18 H :    0.031458
  19 H :    0.048683
  20 H :    0.045103
  21 H :    0.049458
  22 H :    0.033886
Sum of atomic charges:   -0.0000000

LOEWDIN ATOMIC CHARGES
----------------------
   0 C :   -0.252538
   1 N :   -0.061878
   2 C :   -0.183593
   3 C :    0.102353
   4 F :   -0.039023
   5 F :   -0.049733
   6 F :   -0.056974
   7 C :    0.008149
   8 C :   -0.165203
   9 C :   -0.115602
  10 C :   -0.153420
  11 C :   -0.115314
  12 C :   -0.162788
  13 H :    0.121722
  14 H :    0.109739
  15 H :    0.127369
  16 H :    0.135357
  17 H :    0.141409
  18 H :    0.123611
  19 H :    0.122490
  20 H :    0.120900
  21 H :    0.123165
  22 H :    0.119800

  Mayer bond orders larger than 0.100000
B(  0-C ,  1-N ) :   1.0251 B(  0-C , 13-H ) :   0.9399 B(  0-C , 14-H ) :   0.9404
B(  0-C , 15-H ) :   0.9425 B(  1-N ,  2-C ) :   1.0395 B(  1-N ,  7-C ) :   1.0886
B(  2-C ,  3-C ) :   1.0294 B(  2-C , 16-H ) :   0.8930 B(  2-C , 17-H ) :   0.8843
B(  3-C ,  4-F ) :   1.1755 B(  3-C ,  5-F ) :   1.1544 B(  3-C ,  6-F ) :   1.1519
B(  7-C ,  8-C ) :   1.3248 B(  7-C , 12-C ) :   1.3252 B(  8-C ,  9-C ) :   1.3798
B(  8-C , 18-H ) :   0.9559 B(  9-C , 10-C ) :   1.3717 B(  9-C , 19-H ) :   0.9607
B( 10-C , 11-C ) :   1.3632 B( 10-C , 20-H ) :   0.9683 B( 11-C , 12-C ) :   1.3951
B( 11-C , 21-H ) :   0.9602 B( 12-C , 22-H ) :   0.9462

Dispersion correction           -0.025483370
FINAL SINGLE POINT ENERGY      -701.831230564850

DIPOLE MOMENT
-------------

Method             : SCF
Type of density    : Electron Density
Multiplicity       :   1
Irrep              :   0
Energy             :  -701.9244101992094329 Eh
Relativity type    :
Basis              : AO
                                X                 Y                 Z
Electronic contribution:    -16.749968168      -2.071203432       8.665198321
Nuclear contribution   :     16.740018321       1.994343212      -9.467488952
                        -----------------------------------------
Total Dipole Moment    :     -0.009949847      -0.076860221      -0.802290630
                        -----------------------------------------
Magnitude (a.u.)       :      0.806025278
Magnitude (Debye)      :      2.048753439

Rotational constants in cm-1:             0.055906             0.015596             0.013221
Rotational constants in MHz :          1676.027385           467.545284           396.342844

                             ****ORCA TERMINATED NORMALLY****
TOTAL RUN TIME: 0 days 0 hours 0 minutes 14 seconds 921 msec
