                         Program Version 6.0.0  -   RELEASE  -
|  1> ! r2scan-3c def2/J RI DEFGRID2 scfconv6 printgap
|  2> %output
|  3>     printlevel normal
|  4> end
|  5> * xyz 0 1
|  6> C -1.6185942237 0.665850788 -0.9651496373
|  7> C -1.380134114 0.3586563061 0.5086647989
|  8> C -0.0234187439 -0.2981549488 0.820834006
|  9> C 1.2011179691 0.5776595718 0.4923294147
| 10> C 1.720690635 0.4431856516 -0.9356352345
| 11> O 0.1234927553 -1.5454126497 0.165956664
| 12> H -2.6698072856 0.8880036773 -1.1332019688
| 13> H -1.0367101056 1.5263967673 -1.2819831817
| 14> H -1.3417357238 -0.1898021846 -1.5762841644
| 15> H -1.4568363988 1.2737430225 1.0979568045
| 16> H -2.1622489669 -0.3214823542 0.8581880118
| 17> H -0.008774111 -0.4695409059 1.9129841165
| 18> H 0.9473860041 1.6166131881 0.706156578
| 19> H 2.0071742977 0.2841697244 1.1681011675
| 20> H 1.9067369903 -0.6033092494 -1.1606659252
| 21> H 1.0128492153 0.8289297198 -1.6609934651
| 22> H 2.6529215653 0.9940850573 -1.035085089
| 23> H -0.6155596447 -2.1170340131 0.4113469113
| 24> *
| 25>
| 26>                          ****END OF INPUT****

CARTESIAN COORDINATES (ANGSTROEM)
---------------------------------
  C     -1.618594    0.665851   -0.965150
  C     -1.380134    0.358656    0.508665
  C     -0.023419   -0.298155    0.820834
  C      1.201118    0.577660    0.492329
  C      1.720691    0.443186   -0.935635
  O      0.123493   -1.545413    0.165957
  H     -2.669807    0.888004   -1.133202
  H     -1.036710    1.526397   -1.281983
  H     -1.341736   -0.189802   -1.576284
  H     -1.456836    1.273743    1.097957
  H     -2.162249   -0.321482    0.858188
  H     -0.008774   -0.469541    1.912984
  H      0.947386    1.616613    0.706157
  H      2.007174    0.284170    1.168101
  H      1.906737   -0.603309   -1.160666
  H      1.012849    0.828930   -1.660993
  H      2.652922    0.994085   -1.035085
  H     -0.615560   -2.117034    0.411347

 Total Charge           Charge          ....    0
 Multiplicity           Mult            ....    1
 Number of Electrons    NEL             ....   50
 Basis Dimension        Dim             ....  179

ORBITAL ENERGIES
----------------

  NO   OCC          E(Eh)            E(eV)
   0   2.0000     -18.946331      -515.5559
   1   2.0000     -10.078252      -274.2432
   2   2.0000     -10.026695      -272.8403
   3   2.0000     -10.023073      -272.7417
   4   2.0000     -10.014431      -272.5065
   5   2.0000     -10.006312      -272.2856
   6   2.0000      -0.984876       -26.7998
   7   2.0000      -0.756436       -20.5837
   8   2.0000      -0.714176       -19.4337
   9   2.0000      -0.643124       -17.5003
  10   2.0000      -0.577630       -15.7181
  11   2.0000      -0.534238       -14.5373
  12   2.0000      -0.463107       -12.6018
  13   2.0000      -0.441839       -12.0230
  14   2.0000      -0.422731       -11.5031
  15   2.0000      -0.389222       -10.5913
  16   2.0000      -0.374615       -10.1938
  17   2.0000      -0.346628        -9.4322
  18   2.0000      -0.341572        -9.2947
  19   2.0000      -0.334937        -9.1141
  20   2.0000      -0.315135        -8.5753
  21   2.0000      -0.302140        -8.2216
  22   2.0000      -0.297284        -8.0895
  23   2.0000      -0.273208        -7.4344
  24   2.0000      -0.231328        -6.2948
  25   0.0000       0.056468         1.5366
  26   0.0000       0.107747         2.9319
  27   0.0000       0.109873         2.9898
  28   0.0000       0.122328         3.3287
  29   0.0000       0.133638         3.6365

MULLIKEN ATOMIC CHARGES
-----------------------
   0 C :   -0.506021
   1 C :   -0.287832
   2 C :    0.080633
   3 C :   -0.281813
   4 C :   -0.478815
   5 O :   -0.432025
   6 H :    0.144467
   7 H :    0.149952
   8 H :    0.172938
   9 H :    0.146886
  10 H :    0.132674
  11 H :    0.128854
  12 H :    0.134948
  13 H :    0.147988
  14 H :    0.174542
  15 H :    0.143487
  16 H :    0.140906
  17 H :    0.288231
Sum of atomic charges:    0.0000000

LOEWDIN ATOMIC CHARGES
----------------------
   0 C :   -0.423904
   1 C :   -0.298182
   2 C :    0.051722
   3 C :   -0.280073
   4 C :   -0.413006
   5 O :   -0.625562
   6 H :    0.149643
   7 H :    0.150488
   8 H :    0.160938
   9 H :    0.158516
  10 H :    0.151897
  11 H :    0.163375
  12 H :    0.158689
  13 H :    0.159201
  14 H :    0.168395
  15 H :    0.150921
  16 H :    0.147705
  17 H :    0.269237

  Mayer bond orders larger than 0.100000
B(  0-C ,  1-C ) :   0.8559 B(  0-C ,  6-H ) :   0.9675 B(  0-C ,  7-H ) :   0.9787
B(  0-C ,  8-H ) :   0.9805 B(  1-C ,  2-C ) :   0.9246 B(  1-C ,  9-H ) :   0.9787
B(  1-C , 10-H ) :   0.9802 B(  2-C ,  3-C ) :   0.9355 B(  2-C ,  5-O ) :   0.8810
B(  2-C , 11-H ) :   0.9612 B(  3-C ,  4-C ) :   0.9043 B(  3-C , 12-H ) :   0.9739
B(  3-C , 13-H ) :   0.9654 B(  4-C , 14-H ) :   0.9817 B(  4-C , 15-H ) :   0.9650
B(  4-C , 16-H ) :   0.9758 B(  5-O , 17-H ) :   0.8993

Dispersion correction           -0.004485816
FINAL SINGLE POINT ENERGY      -272.897600377228

DIPOLE MOMENT
-------------

Method             : SCF
Type of density    : Electron Density
Multiplicity       :   1
Irrep              :   0
Energy             :  -272.9028563287285465 Eh
Relativity type    :
Basis              : AO
                                X                 Y                 Z
Electronic contribution:      0.267752653      -3.356691932       1.929682771
Nuclear contribution   :     -0.715491128       3.458377123      -1.586298661
                        -----------------------------------------
Total Dipole Moment    :     -0.447738475       0.101685191       0.343384109
                        -----------------------------------------
Magnitude (a.u.)       :      0.573343062
Magnitude (Debye)      :      1.457322248

Rotational constants in cm-1:             0.138899             0.091804             0.076185
Rotational constants in MHz :          4164.084843          2752.221073          2283.972976

                             ****ORCA TERMINATED NORMALLY****
TOTAL RUN TIME: 0 days 0 hours 0 minutes 24 seconds 414 msec
