                         Program Version 6.0.0  -   RELEASE  -
|  1> ! r2scan-3c def2/J RI DEFGRID2 scfconv6 printgap
|  2> %output
|  3>     printlevel normal
|  4> end
|  5> %cpcm
|  6>     smd true
|  7>     smdsolvent "water"
|  8> end
|  9> * xyz 0 1
| 10> C -1.6185942237 0.665850788 -0.9651496373
| 11> C -1.380134114 0.3586563061 0.5086647989
| 12> C -0.0234187439 -0.2981549488 0.820834006
| 13> C 1.2011179691 0.5776595718 0.4923294147
| 14> C 1.720690635 0.4431856516 -0.9356352345
| 15> O 0.1234927553 -1.5454126497 0.165956664
| 16> H -2.6698072856 0.8880036773 -1.1332019688
| 17> H -1.0367101056 1.5263967673 -1.2819831817
| 18> H -1.3417357238 -0.1898021846 -1.5762841644
| 19> H -1.4568363988 1.2737430225 1.0979568045
| 20> H -2.1622489669 -0.3214823542 0.8581880118
| 21> H -0.008774111 -0.4695409059 1.9129841165
| 22> H 0.9473860041 1.6166131881 0.706156578
| 23> H 2.0071742977 0.2841697244 1.1681011675
| 24> H 1.9067369903 -0.6033092494 -1.1606659252
| 25> H 1.0128492153 0.8289297198 -1.6609934651
| 26> H 2.6529215653 0.9940850573 -1.035085089
| 27> H -0.6155596447 -2.1170340131 0.4113469113
| 28> *
| 29>
| 30>                          ****END OF INPUT****

CARTESIAN COORDINATES (ANGSTROEM)
---------------------------------
  C     -1.618594    0.665851   -0.965150
  C     -1.380134    0.358656    0.508665
  C     -0.023419   -0.298155    0.820834
  C      1.201118    0.577660    0.492329
  C      1.720691    0.443186   -0.935635
  O      0.123493   -1.545413    0.165957
  H     -2.669807    0.888004   -1.133202
  H     -1.036710    1.526397   -1.281983
  H     -1.341736   -0.189802   -1.576284
  H     -1.456836    1.273743    1.097957
  H     -2.162249   -0.321482    0.858188
  H     -0.008774   -0.469541    1.912984
  H      0.947386    1.616613    0.706157
  H      2.007174    0.284170    1.168101
  H      1.906737   -0.603309   -1.160666
  H      1.012849    0.828930   -1.660993
  H      2.652922    0.994085   -1.035085
  H     -0.615560   -2.117034    0.411347

 Total Charge           Charge          ....    0
 Multiplicity           Mult            ....    1
 Number of Electrons    NEL             ....   50
 Basis Dimension        Dim             ....  179

ORBITAL ENERGIES
----------------

  NO   OCC          E(Eh)            E(eV)
   0   2.0000     -18.947648      -515.5917
   1   2.0000     -10.072604      -274.0895
   2   2.0000     -10.017972      -272.6029
   3   2.0000     -10.016195      -272.5545
   4   2.0000     -10.007343      -272.3136
   5   2.0000     -10.006319      -272.2858
   6   2.0000      -0.985172       -26.8079
   7   2.0000      -0.750719       -20.4281
   8   2.0000      -0.709098       -19.2955
   9   2.0000      -0.639185       -17.3931
  10   2.0000      -0.572019       -15.5654
  11   2.0000      -0.530402       -14.4330
  12   2.0000      -0.458428       -12.4745
  13   2.0000      -0.436271       -11.8715
  14   2.0000      -0.416578       -11.3357
  15   2.0000      -0.387949       -10.5566
  16   2.0000      -0.369791       -10.0625
  17   2.0000      -0.345764        -9.4087
  18   2.0000      -0.336206        -9.1486
  19   2.0000      -0.329202        -8.9580
  20   2.0000      -0.313132        -8.5208
  21   2.0000      -0.298310        -8.1174
  22   2.0000      -0.294120        -8.0034
  23   2.0000      -0.268765        -7.3135
  24   2.0000      -0.232384        -6.3235
  25   0.0000       0.070760         1.9255
  26   0.0000       0.113839         3.0977
  27   0.0000       0.122121         3.3231
  28   0.0000       0.129256         3.5172
  29   0.0000       0.141130         3.8403

MULLIKEN ATOMIC CHARGES
-----------------------
   0 C :   -0.543910
   1 C :   -0.291572
   2 C :    0.088109
   3 C :   -0.292951
   4 C :   -0.524048
   5 O :   -0.514869
   6 H :    0.156837
   7 H :    0.164108
   8 H :    0.165240
   9 H :    0.159564
  10 H :    0.153163
  11 H :    0.140662
  12 H :    0.154212
  13 H :    0.160562
  14 H :    0.165228
  15 H :    0.160909
  16 H :    0.156088
  17 H :    0.342667
Sum of atomic charges:   -0.0000000

LOEWDIN ATOMIC CHARGES
----------------------
   0 C :   -0.430778
   1 C :   -0.296393
   2 C :    0.053760
   3 C :   -0.283757
   4 C :   -0.423184
   5 O :   -0.658575
   6 H :    0.153199
   7 H :    0.153862
   8 H :    0.156446
   9 H :    0.163300
  10 H :    0.159660
  11 H :    0.170149
  12 H :    0.165882
  13 H :    0.160747
  14 H :    0.161388
  15 H :    0.154544
  16 H :    0.152471
  17 H :    0.287277

  Mayer bond orders larger than 0.100000
B(  0-C ,  1-C ) :   0.8432 B(  0-C ,  6-H ) :   0.9646 B(  0-C ,  7-H ) :   0.9763
B(  0-C ,  8-H ) :   0.9814 B(  1-C ,  2-C ) :   0.9281 B(  1-C ,  9-H ) :   0.9774
B(  1-C , 10-H ) :   0.9765 B(  2-C ,  3-C ) :   0.9301 B(  2-C ,  5-O ) :   0.8709
B(  2-C , 11-H ) :   0.9586 B(  3-C ,  4-C ) :   0.8773 B(  3-C , 12-H ) :   0.9697
B(  3-C , 13-H ) :   0.9685 B(  4-C , 14-H ) :   0.9845 B(  4-C , 15-H ) :   0.9662
B(  4-C , 16-H ) :   0.9712 B(  5-O , 17-H ) :   0.8737

Dispersion correction           -0.004485816
FINAL SINGLE POINT ENERGY      -272.902845963777

DIPOLE MOMENT
-------------

Method             : SCF
Type of density    : Electron Density
Multiplicity       :   1
Irrep              :   0
Energy             :  -272.9081019152771432 Eh
Relativity type    :
Basis              : AO
                                X                 Y                 Z
Electronic contribution:      0.057993151      -3.238612806       2.129720813
Nuclear contribution   :     -0.715491128       3.458377123      -1.586298661
                        -----------------------------------------
Total Dipole Moment    :     -0.657497977       0.219764317       0.543422152
                        -----------------------------------------
Magnitude (a.u.)       :      0.880856163
Magnitude (Debye)      :      2.238958434

Rotational constants in cm-1:             0.138899             0.091804             0.076185
Rotational constants in MHz :          4164.084843          2752.221073          2283.972976

                             ****ORCA TERMINATED NORMALLY****
TOTAL RUN TIME: 0 days 0 hours 0 minutes 27 seconds 811 msec
