                         Program Version 6.0.0  -   RELEASE  -
|  1> ! r2scan-3c def2/J RI DEFGRID2 scfconv6 printgap
|  2> %output
|  3>     printlevel normal
|  4> end
|  5> * xyz 0 1
|  6> C -1.7690794767 0.7932460493 -0.3672562806
|  7> C -1.1627633036 -0.2769731724 0.5447555448
|  8> N -0.0240503241 -1.0011508208 0.0031364699
|  9> C 1.2971281649 -0.4716724866 0.2777374494
| 10> C 1.6657751083 0.8602746865 -0.3870030518
| 11> H -2.0776473718 0.3476843618 -1.3111158156
| 12> H -2.6442091752 1.2279568489 0.1089982215
| 13> H -1.0603139406 1.5892925161 -0.5773848695
| 14> H -1.9388672781 -1.0215277301 0.7601344597
| 15> H -0.8587761849 0.1689453294 1.4948150952
| 16> H -0.1465735783 -1.1359853736 -0.9948986141
| 17> H 1.3898257123 -0.3730345047 1.363239236
| 18> H 2.0082620035 -1.2363711243 -0.0494632182
| 19> H 2.720173866 1.0688891038 -0.2251968837
| 20> H 1.4831800354 0.8135410282 -1.458951032
| 21> H 1.0890374271 1.6803637949 0.033157894
| 22> *
| 23>
| 24>                          ****END OF INPUT****

CARTESIAN COORDINATES (ANGSTROEM)
---------------------------------
  C     -1.769079    0.793246   -0.367256
  C     -1.162763   -0.276973    0.544756
  N     -0.024050   -1.001151    0.003136
  C      1.297128   -0.471672    0.277737
  C      1.665775    0.860275   -0.387003
  H     -2.077647    0.347684   -1.311116
  H     -2.644209    1.227957    0.108998
  H     -1.060314    1.589293   -0.577385
  H     -1.938867   -1.021528    0.760134
  H     -0.858776    0.168945    1.494815
  H     -0.146574   -1.135985   -0.994899
  H      1.389826   -0.373035    1.363239
  H      2.008262   -1.236371   -0.049463
  H      2.720174    1.068889   -0.225197
  H      1.483180    0.813541   -1.458951
  H      1.089037    1.680364    0.033158

 Total Charge           Charge          ....    0
 Multiplicity           Mult            ....    1
 Number of Electrons    NEL             ....   42
 Basis Dimension        Dim             ....  155

ORBITAL ENERGIES
----------------

  NO   OCC          E(Eh)            E(eV)
   0   2.0000     -14.133277      -384.5860
   1   2.0000     -10.047959      -273.4189
   2   2.0000     -10.047844      -273.4157
   3   2.0000     -10.015961      -272.5482
   4   2.0000     -10.014640      -272.5122
   5   2.0000      -0.864006       -23.5108
   6   2.0000      -0.721618       -19.6362
   7   2.0000      -0.680519       -18.5179
   8   2.0000      -0.588880       -16.0242
   9   2.0000      -0.559785       -15.2325
  10   2.0000      -0.456289       -12.4163
  11   2.0000      -0.423326       -11.5193
  12   2.0000      -0.394403       -10.7322
  13   2.0000      -0.381057       -10.3691
  14   2.0000      -0.379880       -10.3371
  15   2.0000      -0.349464        -9.5094
  16   2.0000      -0.343665        -9.3516
  17   2.0000      -0.322805        -8.7840
  18   2.0000      -0.309884        -8.4324
  19   2.0000      -0.294342        -8.0095
  20   2.0000      -0.179302        -4.8791
  21   0.0000       0.083472         2.2714
  22   0.0000       0.107578         2.9273
  23   0.0000       0.113298         3.0830
  24   0.0000       0.124654         3.3920
  25   0.0000       0.127958         3.4819

MULLIKEN ATOMIC CHARGES
-----------------------
   0 C :   -0.454092
   1 C :   -0.207307
   2 N :   -0.301683
   3 C :   -0.253209
   4 C :   -0.441890
   5 H :    0.139429
   6 H :    0.143730
   7 H :    0.145019
   8 H :    0.152548
   9 H :    0.128278
  10 H :    0.224368
  11 H :    0.148637
  12 H :    0.149087
  13 H :    0.141797
  14 H :    0.140854
  15 H :    0.144434
Sum of atomic charges:   -0.0000000

LOEWDIN ATOMIC CHARGES
----------------------
   0 C :   -0.415187
   1 C :   -0.076733
   2 N :   -0.841842
   3 C :   -0.077143
   4 C :   -0.421697
   5 H :    0.148569
   6 H :    0.151958
   7 H :    0.150576
   8 H :    0.169051
   9 H :    0.173737
  10 H :    0.243870
  11 H :    0.172725
  12 H :    0.172846
  13 H :    0.151222
  14 H :    0.149787
  15 H :    0.148262

  Mayer bond orders larger than 0.100000
B(  0-C ,  1-C ) :   0.9086 B(  0-C ,  5-H ) :   0.9788 B(  0-C ,  6-H ) :   0.9731
B(  0-C ,  7-H ) :   0.9685 B(  1-C ,  2-N ) :   0.9153 B(  1-C ,  8-H ) :   0.9822
B(  1-C ,  9-H ) :   0.9676 B(  2-N ,  3-C ) :   0.9583 B(  2-N , 10-H ) :   0.9114
B(  3-C ,  4-C ) :   0.8416 B(  3-C , 11-H ) :   1.0017 B(  3-C , 12-H ) :   0.9872
B(  4-C , 13-H ) :   0.9658 B(  4-C , 14-H ) :   0.9732 B(  4-C , 15-H ) :   0.9783

Dispersion correction           -0.003577711
FINAL SINGLE POINT ENERGY      -213.709675217154

DIPOLE MOMENT
-------------

Method             : SCF
Type of density    : Electron Density
Multiplicity       :   1
Irrep              :   0
Energy             :  -213.7183523085472530 Eh
Relativity type    :
Basis              : AO
                                X                 Y                 Z
Electronic contribution:      0.040531035      -2.613757209       0.626283076
Nuclear contribution   :     -0.033820780       2.930730666      -0.803681632
                        -----------------------------------------
Total Dipole Moment    :      0.006710254       0.316973458      -0.177398556
                        -----------------------------------------
Magnitude (a.u.)       :      0.363300768
Magnitude (Debye)      :      0.923437166

Rotational constants in cm-1:             0.260647             0.109429             0.087009
Rotational constants in MHz :          7814.013498          3280.585367          2608.465710

                             ****ORCA TERMINATED NORMALLY****
TOTAL RUN TIME: 0 days 0 hours 0 minutes 15 seconds 239 msec
