                         Program Version 6.0.0  -   RELEASE  -
|  1> ! r2scan-3c def2/J RI DEFGRID2 scfconv6 printgap
|  2> %output
|  3>     printlevel normal
|  4> end
|  5> %cpcm
|  6>     smd true
|  7>     smdsolvent "water"
|  8> end
|  9> * xyz 0 1
| 10> C -1.7690794767 0.7932460493 -0.3672562806
| 11> C -1.1627633036 -0.2769731724 0.5447555448
| 12> N -0.0240503241 -1.0011508208 0.0031364699
| 13> C 1.2971281649 -0.4716724866 0.2777374494
| 14> C 1.6657751083 0.8602746865 -0.3870030518
| 15> H -2.0776473718 0.3476843618 -1.3111158156
| 16> H -2.6442091752 1.2279568489 0.1089982215
| 17> H -1.0603139406 1.5892925161 -0.5773848695
| 18> H -1.9388672781 -1.0215277301 0.7601344597
| 19> H -0.8587761849 0.1689453294 1.4948150952
| 20> H -0.1465735783 -1.1359853736 -0.9948986141
| 21> H 1.3898257123 -0.3730345047 1.363239236
| 22> H 2.0082620035 -1.2363711243 -0.0494632182
| 23> H 2.720173866 1.0688891038 -0.2251968837
| 24> H 1.4831800354 0.8135410282 -1.458951032
| 25> H 1.0890374271 1.6803637949 0.033157894
| 26> *
| 27>
| 28>                          ****END OF INPUT****

CARTESIAN COORDINATES (ANGSTROEM)
---------------------------------
  C     -1.769079    0.793246   -0.367256
  C     -1.162763   -0.276973    0.544756
  N     -0.024050   -1.001151    0.003136
  C      1.297128   -0.471672    0.277737
  C      1.665775    0.860275   -0.387003
  H     -2.077647    0.347684   -1.311116
  H     -2.644209    1.227957    0.108998
  H     -1.060314    1.589293   -0.577385
  H     -1.938867   -1.021528    0.760134
  H     -0.858776    0.168945    1.494815
  H     -0.146574   -1.135985   -0.994899
  H      1.389826   -0.373035    1.363239
  H      2.008262   -1.236371   -0.049463
  H      2.720174    1.068889   -0.225197
  H      1.483180    0.813541   -1.458951
  H      1.089037    1.680364    0.033158

 Total Charge           Charge          ....    0
 Multiplicity           Mult            ....    1
 Number of Electrons    NEL             ....   42
 Basis Dimension        Dim             ....  155

ORBITAL ENERGIES
----------------

  NO   OCC          E(Eh)            E(eV)
   0   2.0000     -14.128466      -384.4551
   1   2.0000     -10.041285      -273.2372
   2   2.0000     -10.041170      -273.2341
   3   2.0000     -10.006188      -272.2822
   4   2.0000     -10.005014      -272.2503
   5   2.0000      -0.858794       -23.3690
   6   2.0000      -0.713868       -19.4253
   7   2.0000      -0.672267       -18.2933
   8   2.0000      -0.581886       -15.8339
   9   2.0000      -0.552429       -15.0324
  10   2.0000      -0.449154       -12.2221
  11   2.0000      -0.415525       -11.3070
  12   2.0000      -0.387878       -10.5547
  13   2.0000      -0.372239       -10.1291
  14   2.0000      -0.371496       -10.1089
  15   2.0000      -0.341611        -9.2957
  16   2.0000      -0.336074        -9.1450
  17   2.0000      -0.314351        -8.5539
  18   2.0000      -0.301054        -8.1921
  19   2.0000      -0.286620        -7.7993
  20   2.0000      -0.178840        -4.8665
  21   0.0000       0.091720         2.4958
  22   0.0000       0.115790         3.1508
  23   0.0000       0.127147         3.4598
  24   0.0000       0.131048         3.5660
  25   0.0000       0.135681         3.6921

MULLIKEN ATOMIC CHARGES
-----------------------
   0 C :   -0.494893
   1 C :   -0.207022
   2 N :   -0.376719
   3 C :   -0.240659
   4 C :   -0.491225
   5 H :    0.155180
   6 H :    0.154525
   7 H :    0.155738
   8 H :    0.150149
   9 H :    0.145757
  10 H :    0.272360
  11 H :    0.157685
  12 H :    0.152670
  13 H :    0.152083
  14 H :    0.155112
  15 H :    0.159260
Sum of atomic charges:    0.0000000

LOEWDIN ATOMIC CHARGES
----------------------
   0 C :   -0.420671
   1 C :   -0.079942
   2 N :   -0.863570
   3 C :   -0.080491
   4 C :   -0.427166
   5 H :    0.153229
   6 H :    0.154888
   7 H :    0.153587
   8 H :    0.168151
   9 H :    0.178650
  10 H :    0.253767
  11 H :    0.175315
  12 H :    0.174054
  13 H :    0.153978
  14 H :    0.153699
  15 H :    0.152522

  Mayer bond orders larger than 0.100000
B(  0-C ,  1-C ) :   0.9055 B(  0-C ,  5-H ) :   0.9754 B(  0-C ,  6-H ) :   0.9704
B(  0-C ,  7-H ) :   0.9669 B(  1-C ,  2-N ) :   0.9192 B(  1-C ,  8-H ) :   0.9784
B(  1-C ,  9-H ) :   0.9659 B(  2-N ,  3-C ) :   0.9658 B(  2-N , 10-H ) :   0.8963
B(  3-C ,  4-C ) :   0.8479 B(  3-C , 11-H ) :   0.9935 B(  3-C , 12-H ) :   0.9809
B(  4-C , 13-H ) :   0.9631 B(  4-C , 14-H ) :   0.9720 B(  4-C , 15-H ) :   0.9753

Dispersion correction           -0.003577711
FINAL SINGLE POINT ENERGY      -213.715013597877

DIPOLE MOMENT
-------------

Method             : SCF
Type of density    : Electron Density
Multiplicity       :   1
Irrep              :   0
Energy             :  -213.7236906892706543 Eh
Relativity type    :
Basis              : AO
                                X                 Y                 Z
Electronic contribution:      0.040859721      -2.465387097       0.536005160
Nuclear contribution   :     -0.033820780       2.930730666      -0.803681632
                        -----------------------------------------
Total Dipole Moment    :      0.007038941       0.465343569      -0.267676472
                        -----------------------------------------
Magnitude (a.u.)       :      0.536884418
Magnitude (Debye)      :      1.364651739

Rotational constants in cm-1:             0.260647             0.109429             0.087009
Rotational constants in MHz :          7814.013498          3280.585367          2608.465710

                             ****ORCA TERMINATED NORMALLY****
TOTAL RUN TIME: 0 days 0 hours 0 minutes 20 seconds 152 msec
