                         Program Version 6.0.0  -   RELEASE  -
|  1> ! pbe def2-sv(p) def2/J RI DEFGRID1 loosescf d4 GCP(DFT/SV(P)) printgap
|  2> %output
|  3>     printlevel normal
|  4> end
|  5> * xyz 0 1
|  6> C 2.7738707694 -0.0807551336 -0.2638928729
|  7> C 1.3526672475 -0.0588652653 -0.8144486619
|  8> C 0.3138115938 -0.2151392093 0.3004660517
|  9> H 0.6270313348 -1.0544611168 0.9448934997
| 10> C -1.0935045525 -0.5436370877 -0.2476683619
| 11> C -2.0690975846 -0.8281469699 0.8960110522
| 12> C -1.6291634788 0.5831355222 -1.1285824178
| 13> O 0.3305243197 0.9826996382 1.0574772166
| 14> H 3.4918710282 0.0875654054 -1.0621212464
| 15> H 2.9895503063 -1.0402785811 0.2011995966
| 16> H 2.8910336798 0.7010874714 0.4822564217
| 17> H 1.1764674195 0.8948048345 -1.3120581747
| 18> H 1.2212716528 -0.8636836957 -1.538693509
| 19> H -0.9937584047 -1.454194918 -0.8478455161
| 20> H -1.6622799344 -1.5746865651 1.5752475963
| 21> H -2.2842842649 0.0803516534 1.4540886941
| 22> H -3.0078578554 -1.2051646991 0.4980771886
| 23> H -1.5514405646 1.5321970213 -0.6026463783
| 24> H -2.6727169294 0.4037892075 -1.3745927373
| 25> H -1.0656472359 0.655007162 -2.0544317789
| 26> H -0.2182075524 0.8641283977 1.8430166743
| 27> *
| 28>
| 29>                          ****END OF INPUT****

CARTESIAN COORDINATES (ANGSTROEM)
---------------------------------
  C      2.773871   -0.080755   -0.263893
  C      1.352667   -0.058865   -0.814449
  C      0.313812   -0.215139    0.300466
  H      0.627031   -1.054461    0.944893
  C     -1.093505   -0.543637   -0.247668
  C     -2.069098   -0.828147    0.896011
  C     -1.629163    0.583136   -1.128582
  O      0.330524    0.982700    1.057477
  H      3.491871    0.087565   -1.062121
  H      2.989550   -1.040279    0.201200
  H      2.891034    0.701087    0.482256
  H      1.176467    0.894805   -1.312058
  H      1.221272   -0.863684   -1.538694
  H     -0.993758   -1.454195   -0.847846
  H     -1.662280   -1.574687    1.575248
  H     -2.284284    0.080352    1.454089
  H     -3.007858   -1.205165    0.498077
  H     -1.551441    1.532197   -0.602646
  H     -2.672717    0.403789   -1.374593
  H     -1.065647    0.655007   -2.054432
  H     -0.218208    0.864128    1.843017

 Total Charge           Charge          ....    0
 Multiplicity           Mult            ....    1
 Number of Electrons    NEL             ....   58
 Basis Dimension        Dim             ....  126

ORBITAL ENERGIES
----------------

  NO   OCC          E(Eh)            E(eV)
   0   2.0000     -18.742275      -510.0032
   1   2.0000      -9.931768      -270.2572
   2   2.0000      -9.891879      -269.1717
   3   2.0000      -9.878283      -268.8017
   4   2.0000      -9.877836      -268.7896
   5   2.0000      -9.867322      -268.5035
   6   2.0000      -9.865563      -268.4556
   7   2.0000      -0.919712       -25.0266
   8   2.0000      -0.723404       -19.6848
   9   2.0000      -0.685319       -18.6485
  10   2.0000      -0.611893       -16.6504
  11   2.0000      -0.597174       -16.2499
  12   2.0000      -0.525006       -14.2861
  13   2.0000      -0.502717       -13.6796
  14   2.0000      -0.454419       -12.3654
  15   2.0000      -0.425213       -11.5706
  16   2.0000      -0.393942       -10.7197
  17   2.0000      -0.380650       -10.3580
  18   2.0000      -0.375037       -10.2053
  19   2.0000      -0.351722        -9.5708
  20   2.0000      -0.340505        -9.2656
  21   2.0000      -0.326343        -8.8802
  22   2.0000      -0.314922        -8.5695
  23   2.0000      -0.302291        -8.2258
  24   2.0000      -0.295478        -8.0404
  25   2.0000      -0.291465        -7.9312
  26   2.0000      -0.283800        -7.7226
  27   2.0000      -0.259170        -7.0524
  28   2.0000      -0.213064        -5.7978
  29   0.0000       0.019910         0.5418
  30   0.0000       0.052637         1.4323
  31   0.0000       0.065954         1.7947
  32   0.0000       0.070693         1.9237
  33   0.0000       0.088709         2.4139

MULLIKEN ATOMIC CHARGES
-----------------------
   0 C :   -0.260534
   1 C :   -0.159427
   2 C :    0.031557
   3 H :    0.047761
   4 C :   -0.155354
   5 C :   -0.263535
   6 C :   -0.246028
   7 O :   -0.422750
   8 H :    0.098787
   9 H :    0.089571
  10 H :    0.109773
  11 H :    0.096056
  12 H :    0.081312
  13 H :    0.065784
  14 H :    0.096885
  15 H :    0.086960
  16 H :    0.106886
  17 H :    0.099616
  18 H :    0.094328
  19 H :    0.104113
  20 H :    0.298237
Sum of atomic charges:   -0.0000000

LOEWDIN ATOMIC CHARGES
----------------------
   0 C :   -0.340505
   1 C :   -0.235838
   2 C :   -0.043566
   3 H :    0.092090
   4 C :   -0.171343
   5 C :   -0.338030
   6 C :   -0.333512
   7 O :   -0.323823
   8 H :    0.117254
   9 H :    0.113431
  10 H :    0.122623
  11 H :    0.123279
  12 H :    0.117238
  13 H :    0.115955
  14 H :    0.115205
  15 H :    0.110791
  16 H :    0.122950
  17 H :    0.118933
  18 H :    0.116129
  19 H :    0.118263
  20 H :    0.282478

  Mayer bond orders larger than 0.100000
B(  0-C ,  1-C ) :   1.1598 B(  0-C ,  8-H ) :   0.9534 B(  0-C ,  9-H ) :   0.9536
B(  0-C , 10-H ) :   0.9484 B(  1-C ,  2-C ) :   1.0848 B(  1-C , 11-H ) :   0.9046
B(  1-C , 12-H ) :   0.9229 B(  2-C ,  3-H ) :   0.9025 B(  2-C ,  4-C ) :   1.0100
B(  2-C ,  7-O ) :   1.0422 B(  4-C ,  5-C ) :   1.1116 B(  4-C ,  6-C ) :   1.0968
B(  4-C , 13-H ) :   0.8900 B(  5-C , 14-H ) :   0.9488 B(  5-C , 15-H ) :   0.9408
B(  5-C , 16-H ) :   0.9485 B(  6-C , 17-H ) :   0.9394 B(  6-C , 18-H ) :   0.9518
B(  6-C , 19-H ) :   0.9473 B(  7-O , 20-H ) :   0.8452

Dispersion correction           -0.016582793
FINAL SINGLE POINT ENERGY      -311.518882257429

DIPOLE MOMENT
-------------

Method             : SCF
Type of density    : Electron Density
Multiplicity       :   1
Irrep              :   0
Energy             :  -311.5989432841085431 Eh
Relativity type    :
Basis              : AO
                                X                 Y                 Z
Electronic contribution:      0.670520463       1.426574629       1.848109084
Nuclear contribution   :     -0.988579301      -1.836917784      -1.667005429
                        -----------------------------------------
Total Dipole Moment    :     -0.318058838      -0.410343155       0.181103655
                        -----------------------------------------
Magnitude (a.u.)       :      0.549855857
Magnitude (Debye)      :      1.397622518

Rotational constants in cm-1:             0.142161             0.051952             0.047623
Rotational constants in MHz :          4261.888011          1557.495950          1427.702596

                             ****ORCA TERMINATED NORMALLY****
TOTAL RUN TIME: 0 days 0 hours 0 minutes 9 seconds 114 msec
