                         Program Version 6.0.0  -   RELEASE  -
|  1> ! pbe def2-sv(p) def2/J RI DEFGRID1 loosescf d4 GCP(DFT/SV(P)) printgap
|  2> %output
|  3>     printlevel normal
|  4> end
|  5> * xyz 0 1
|  6> C -2.0798436713 -0.5485945727 -0.0147316093
|  7> O -1.2821552139 0.5906449427 -0.279481339
|  8> C -0.0149163987 0.5810262791 0.3372584026
|  9> C 0.9822933385 -0.3873468746 -0.3113365031
| 10> O 2.2466954977 -0.1417522 0.2641013541
| 11> H -1.6830290254 -1.4414627594 -0.5054595495
| 12> H -3.0637767901 -0.3207028283 -0.4174492866
| 13> H -2.1532072926 -0.7282615978 1.0624582859
| 14> H 0.3725237117 1.5969162976 0.232153674
| 15> H -0.1034996437 0.3468341779 1.4068576781
| 16> H 0.9969271299 -0.2028379328 -1.3934507056
| 17> H 0.6753705634 -1.4252725665 -0.1291718906
| 18> H 2.9044768963 -0.7214389873 -0.1451509534
| 19> *
| 20>
| 21>                          ****END OF INPUT****

CARTESIAN COORDINATES (ANGSTROEM)
---------------------------------
  C     -2.079844   -0.548595   -0.014732
  O     -1.282155    0.590645   -0.279481
  C     -0.014916    0.581026    0.337258
  C      0.982293   -0.387347   -0.311337
  O      2.246695   -0.141752    0.264101
  H     -1.683029   -1.441463   -0.505460
  H     -3.063777   -0.320703   -0.417449
  H     -2.153207   -0.728262    1.062458
  H      0.372524    1.596916    0.232154
  H     -0.103500    0.346834    1.406858
  H      0.996927   -0.202838   -1.393451
  H      0.675371   -1.425273   -0.129172
  H      2.904477   -0.721439   -0.145151

 Total Charge           Charge          ....    0
 Multiplicity           Mult            ....    1
 Number of Electrons    NEL             ....   42
 Basis Dimension        Dim             ....   86

ORBITAL ENERGIES
----------------

  NO   OCC          E(Eh)            E(eV)
   0   2.0000     -18.751510      -510.2545
   1   2.0000     -18.747313      -510.1403
   2   2.0000      -9.929575      -270.1975
   3   2.0000      -9.925796      -270.0946
   4   2.0000      -9.925014      -270.0733
   5   2.0000      -0.932936       -25.3865
   6   2.0000      -0.919532       -25.0217
   7   2.0000      -0.671870       -18.2825
   8   2.0000      -0.609626       -16.5888
   9   2.0000      -0.529746       -14.4151
  10   2.0000      -0.472048       -12.8451
  11   2.0000      -0.439775       -11.9669
  12   2.0000      -0.414578       -11.2812
  13   2.0000      -0.404008       -10.9936
  14   2.0000      -0.383757       -10.4426
  15   2.0000      -0.351961        -9.5774
  16   2.0000      -0.322310        -8.7705
  17   2.0000      -0.288810        -7.8589
  18   2.0000      -0.259099        -7.0504
  19   2.0000      -0.218113        -5.9352
  20   2.0000      -0.203411        -5.5351
  21   0.0000       0.023324         0.6347
  22   0.0000       0.039987         1.0881
  23   0.0000       0.082026         2.2321
  24   0.0000       0.086511         2.3541
  25   0.0000       0.097249         2.6463

MULLIKEN ATOMIC CHARGES
-----------------------
   0 C :   -0.107727
   1 O :   -0.339337
   2 C :    0.001215
   3 C :   -0.033303
   4 O :   -0.439279
   5 H :    0.092667
   6 H :    0.115350
   7 H :    0.085423
   8 H :    0.097932
   9 H :    0.074051
  10 H :    0.077852
  11 H :    0.073392
  12 H :    0.301764
Sum of atomic charges:   -0.0000000

LOEWDIN ATOMIC CHARGES
----------------------
   0 C :   -0.207516
   1 O :   -0.177918
   2 C :   -0.125160
   3 C :   -0.144059
   4 O :   -0.346848
   5 H :    0.095118
   6 H :    0.116364
   7 H :    0.098384
   8 H :    0.116601
   9 H :    0.097794
  10 H :    0.097279
  11 H :    0.092595
  12 H :    0.287368

  Mayer bond orders larger than 0.100000
B(  0-C ,  1-O ) :   1.0176 B(  0-C ,  5-H ) :   0.9418 B(  0-C ,  6-H ) :   0.9638
B(  0-C ,  7-H ) :   0.9400 B(  1-O ,  2-C ) :   1.0402 B(  2-C ,  3-C ) :   1.0926
B(  2-C ,  8-H ) :   0.9286 B(  2-C ,  9-H ) :   0.9155 B(  3-C ,  4-O ) :   1.0813
B(  3-C , 10-H ) :   0.9183 B(  3-C , 11-H ) :   0.9198 B(  4-O , 12-H ) :   0.8518

Dispersion correction           -0.007343382
FINAL SINGLE POINT ENERGY      -268.931148734732

DIPOLE MOMENT
-------------

Method             : SCF
Type of density    : Electron Density
Multiplicity       :   1
Irrep              :   0
Energy             :  -268.9913281196598973 Eh
Relativity type    :
Basis              : AO
                                X                 Y                 Z
Electronic contribution:      2.039473769       1.908737466      -0.281015481
Nuclear contribution   :     -1.912870860      -2.710488033       0.103708969
                        -----------------------------------------
Total Dipole Moment    :      0.126602910      -0.801750567      -0.177306512
                        -----------------------------------------
Magnitude (a.u.)       :      0.830824812
Magnitude (Debye)      :      2.111788845

Rotational constants in cm-1:             0.507256             0.081061             0.075907
Rotational constants in MHz :         15207.156306          2430.133989          2275.620779

                             ****ORCA TERMINATED NORMALLY****
TOTAL RUN TIME: 0 days 0 hours 0 minutes 6 seconds 246 msec
