                         Program Version 6.0.0  -   RELEASE  -
|  1> ! pbe def2-sv(p) def2/J RI DEFGRID1 loosescf d4 GCP(DFT/SV(P)) printgap
|  2> %output
|  3>     printlevel normal
|  4> end
|  5> * xyz 0 1
|  6> C 2.2782371114 -0.3395852152 -0.7485988293
|  7> C 1.5260837029 -0.5928171107 0.553508493
|  8> C 0.3600689929 0.3708217685 0.776249631
|  9> C -0.7654009572 0.2838446746 -0.2638293075
| 10> H -0.3664965698 0.5214545919 -1.2624391305
| 11> C -1.4211772783 -1.0922954056 -0.3064172137
| 12> O -1.7942624222 1.217079265 0.0443112951
| 13> H 2.6106633587 0.6946875443 -0.8021303955
| 14> H 1.6489191562 -0.5448664635 -1.6105119225
| 15> H 3.1522835744 -0.9835791515 -0.8067249773
| 16> H 1.1645074571 -1.6213426137 0.5731836734
| 17> H 2.2197825378 -0.4746311636 1.3889853101
| 18> H -0.0803834342 0.1794438618 1.7578984307
| 19> H 0.7486632429 1.393344315 0.7796919463
| 20> H -2.2999727807 -1.0469002112 -0.9443025506
| 21> H -0.733907759 -1.8321700566 -0.7024600724
| 22> H -1.7355888092 -1.3830682472 0.6924278939
| 23> H -1.4156538118 2.1041836137 0.1029385376
| 24> *
| 25>
| 26>                          ****END OF INPUT****

CARTESIAN COORDINATES (ANGSTROEM)
---------------------------------
  C      2.278237   -0.339585   -0.748599
  C      1.526084   -0.592817    0.553508
  C      0.360069    0.370822    0.776250
  C     -0.765401    0.283845   -0.263829
  H     -0.366497    0.521455   -1.262439
  C     -1.421177   -1.092295   -0.306417
  O     -1.794262    1.217079    0.044311
  H      2.610663    0.694688   -0.802130
  H      1.648919   -0.544866   -1.610512
  H      3.152284   -0.983579   -0.806725
  H      1.164507   -1.621343    0.573184
  H      2.219783   -0.474631    1.388985
  H     -0.080383    0.179444    1.757898
  H      0.748663    1.393344    0.779692
  H     -2.299973   -1.046900   -0.944303
  H     -0.733908   -1.832170   -0.702460
  H     -1.735589   -1.383068    0.692428
  H     -1.415654    2.104184    0.102939

 Total Charge           Charge          ....    0
 Multiplicity           Mult            ....    1
 Number of Electrons    NEL             ....   50
 Basis Dimension        Dim             ....  108

ORBITAL ENERGIES
----------------

  NO   OCC          E(Eh)            E(eV)
   0   2.0000     -18.733905      -509.7755
   1   2.0000      -9.933604      -270.3071
   2   2.0000      -9.886668      -269.0299
   3   2.0000      -9.881841      -268.8986
   4   2.0000      -9.875992      -268.7394
   5   2.0000      -9.869764      -268.5699
   6   2.0000      -0.910999       -24.7896
   7   2.0000      -0.720004       -19.5923
   8   2.0000      -0.664543       -18.0831
   9   2.0000      -0.610753       -16.6194
  10   2.0000      -0.546251       -14.8642
  11   2.0000      -0.501947       -13.6587
  12   2.0000      -0.459761       -12.5107
  13   2.0000      -0.425055       -11.5663
  14   2.0000      -0.386118       -10.5068
  15   2.0000      -0.373533       -10.1644
  16   2.0000      -0.371171       -10.1001
  17   2.0000      -0.338161        -9.2018
  18   2.0000      -0.332865        -9.0577
  19   2.0000      -0.317276        -8.6335
  20   2.0000      -0.305921        -8.3245
  21   2.0000      -0.291289        -7.9264
  22   2.0000      -0.287646        -7.8272
  23   2.0000      -0.264436        -7.1957
  24   2.0000      -0.206041        -5.6067
  25   0.0000       0.027440         0.7467
  26   0.0000       0.044983         1.2240
  27   0.0000       0.063679         1.7328
  28   0.0000       0.069588         1.8936
  29   0.0000       0.091761         2.4969

MULLIKEN ATOMIC CHARGES
-----------------------
   0 C :   -0.293234
   1 C :   -0.187855
   2 C :   -0.156893
   3 C :    0.006116
   4 H :    0.063575
   5 C :   -0.252547
   6 O :   -0.429823
   7 H :    0.096672
   8 H :    0.112043
   9 H :    0.104370
  10 H :    0.094582
  11 H :    0.085944
  12 H :    0.085130
  13 H :    0.065937
  14 H :    0.110107
  15 H :    0.105773
  16 H :    0.098536
  17 H :    0.291568
Sum of atomic charges:   -0.0000000

LOEWDIN ATOMIC CHARGES
----------------------
   0 C :   -0.344221
   1 C :   -0.235647
   2 C :   -0.241049
   3 C :   -0.057747
   4 H :    0.094545
   5 C :   -0.340708
   6 O :   -0.337396
   7 H :    0.116672
   8 H :    0.116038
   9 H :    0.120403
  10 H :    0.116237
  11 H :    0.118132
  12 H :    0.118355
  13 H :    0.107026
  14 H :    0.126753
  15 H :    0.121344
  16 H :    0.122054
  17 H :    0.279208

  Mayer bond orders larger than 0.100000
B(  0-C ,  1-C ) :   1.1488 B(  0-C ,  7-H ) :   0.9550 B(  0-C ,  8-H ) :   0.9485
B(  0-C ,  9-H ) :   0.9509 B(  1-C ,  2-C ) :   1.1099 B(  1-C , 10-H ) :   0.9223
B(  1-C , 11-H ) :   0.9212 B(  2-C ,  3-C ) :   1.0745 B(  2-C , 12-H ) :   0.9079
B(  2-C , 13-H ) :   0.9155 B(  3-C ,  4-H ) :   0.9084 B(  3-C ,  5-C ) :   1.1131
B(  3-C ,  6-O ) :   1.0494 B(  5-C , 14-H ) :   0.9426 B(  5-C , 15-H ) :   0.9397
B(  5-C , 16-H ) :   0.9447 B(  6-O , 17-H ) :   0.8533

Dispersion correction           -0.012861635
FINAL SINGLE POINT ENERGY      -272.304547711931

DIPOLE MOMENT
-------------

Method             : SCF
Type of density    : Electron Density
Multiplicity       :   1
Irrep              :   0
Energy             :  -272.3740866265065392 Eh
Relativity type    :
Basis              : AO
                                X                 Y                 Z
Electronic contribution:     -4.005154552       2.949528774       0.729344410
Nuclear contribution   :      4.582397771      -2.790278260      -0.781248550
                        -----------------------------------------
Total Dipole Moment    :      0.577243219       0.159250514      -0.051904139
                        -----------------------------------------
Magnitude (a.u.)       :      0.601052826
Magnitude (Debye)      :      1.527754871

Rotational constants in cm-1:             0.192483             0.066809             0.060457
Rotational constants in MHz :          5770.486744          2002.872395          1812.458142

                             ****ORCA TERMINATED NORMALLY****
TOTAL RUN TIME: 0 days 0 hours 0 minutes 7 seconds 423 msec
