                         Program Version 6.0.0  -   RELEASE  -
|  1> ! r2scan-3c def2/J RI DEFGRID2 scfconv6 printgap
|  2> %output
|  3>     printlevel normal
|  4> end
|  5> * xyz 0 1
|  6> C -2.777600885 -0.6656665299 -0.8506957474
|  7> C -2.028806295 0.4725456038 -0.1637337114
|  8> C -1.2262678154 0.0015463028 1.0583225558
|  9> C 0.2820283114 -0.155484117 0.8383261916
| 10> C 0.6952654676 -1.0410301908 -0.3404766079
| 11> C 2.1483356967 -0.6420314826 -0.5733729679
| 12> C 2.1107563924 0.8828924589 -0.4515794474
| 13> C 1.0178694973 1.1776587006 0.5910309576
| 14> H -3.504363097 -1.1045254415 -0.1703383754
| 15> H -3.3089969223 -0.296943251 -1.7255357667
| 16> H -2.0939802322 -1.4487081063 -1.1680085589
| 17> H -1.3650949514 0.9536187227 -0.8835560728
| 18> H -2.7584723896 1.2218476199 0.150378587
| 19> H -1.3598460253 0.7120349626 1.8774352001
| 20> H -1.6285588866 -0.9560967187 1.3956046074
| 21> H 0.6917588369 -0.6067857983 1.7493655952
| 22> H 0.5754376116 -2.1015760397 -0.1223886296
| 23> H 0.1099845786 -0.796769203 -1.2260596769
| 24> H 2.7794986751 -1.0669344189 0.2090038037
| 25> H 2.5284242875 -0.9723609566 -1.5392245397
| 26> H 3.0769757323 1.2924628819 -0.1602468261
| 27> H 1.8398064886 1.3189229533 -1.4140705641
| 28> H 1.4479880652 1.5520589915 1.5197448298
| 29> H 0.3288966833 1.937114962 0.2230063089
| 30> *
| 31>
| 32>                          ****END OF INPUT****

CARTESIAN COORDINATES (ANGSTROEM)
---------------------------------
  C     -2.777601   -0.665667   -0.850696
  C     -2.028806    0.472546   -0.163734
  C     -1.226268    0.001546    1.058323
  C      0.282028   -0.155484    0.838326
  C      0.695265   -1.041030   -0.340477
  C      2.148336   -0.642031   -0.573373
  C      2.110756    0.882892   -0.451579
  C      1.017869    1.177659    0.591031
  H     -3.504363   -1.104525   -0.170338
  H     -3.308997   -0.296943   -1.725536
  H     -2.093980   -1.448708   -1.168009
  H     -1.365095    0.953619   -0.883556
  H     -2.758472    1.221848    0.150379
  H     -1.359846    0.712035    1.877435
  H     -1.628559   -0.956097    1.395605
  H      0.691759   -0.606786    1.749366
  H      0.575438   -2.101576   -0.122389
  H      0.109985   -0.796769   -1.226060
  H      2.779499   -1.066934    0.209004
  H      2.528424   -0.972361   -1.539225
  H      3.076976    1.292463   -0.160247
  H      1.839806    1.318923   -1.414071
  H      1.447988    1.552059    1.519745
  H      0.328897    1.937115    0.223006

 Total Charge           Charge          ....    0
 Multiplicity           Mult            ....    1
 Number of Electrons    NEL             ....   64
 Basis Dimension        Dim             ....  232

ORBITAL ENERGIES
----------------

  NO   OCC          E(Eh)            E(eV)
   0   2.0000     -10.025062      -272.7958
   1   2.0000     -10.021262      -272.6924
   2   2.0000     -10.018226      -272.6098
   3   2.0000     -10.018149      -272.6077
   4   2.0000     -10.017897      -272.6008
   5   2.0000     -10.016316      -272.5578
   6   2.0000     -10.015610      -272.5386
   7   2.0000     -10.013220      -272.4736
   8   2.0000      -0.805128       -21.9087
   9   2.0000      -0.747509       -20.3408
  10   2.0000      -0.686734       -18.6870
  11   2.0000      -0.670861       -18.2551
  12   2.0000      -0.620143       -16.8750
  13   2.0000      -0.559421       -15.2226
  14   2.0000      -0.531690       -14.4680
  15   2.0000      -0.501647       -13.6505
  16   2.0000      -0.452485       -12.3127
  17   2.0000      -0.436283       -11.8719
  18   2.0000      -0.418359       -11.3841
  19   2.0000      -0.393795       -10.7157
  20   2.0000      -0.382985       -10.4215
  21   2.0000      -0.375469       -10.2170
  22   2.0000      -0.360625        -9.8131
  23   2.0000      -0.316847        -8.6218
  24   2.0000      -0.315426        -8.5832
  25   2.0000      -0.312557        -8.5051
  26   2.0000      -0.301731        -8.2105
  27   2.0000      -0.300450        -8.1757
  28   2.0000      -0.286065        -7.7842
  29   2.0000      -0.278893        -7.5891
  30   2.0000      -0.271659        -7.3922
  31   2.0000      -0.266812        -7.2603
  32   0.0000       0.081984         2.2309
  33   0.0000       0.095162         2.5895
  34   0.0000       0.098116         2.6699
  35   0.0000       0.105677         2.8756
  36   0.0000       0.125116         3.4046

MULLIKEN ATOMIC CHARGES
-----------------------
   0 C :   -0.492520
   1 C :   -0.267630
   2 C :   -0.280590
   3 C :   -0.027260
   4 C :   -0.367775
   5 C :   -0.261438
   6 C :   -0.302972
   7 C :   -0.410001
   8 H :    0.147446
   9 H :    0.144796
  10 H :    0.147021
  11 H :    0.146882
  12 H :    0.143701
  13 H :    0.149519
  14 H :    0.148782
  15 H :    0.156179
  16 H :    0.155605
  17 H :    0.159530
  18 H :    0.146197
  19 H :    0.149260
  20 H :    0.148369
  21 H :    0.150891
  22 H :    0.154406
  23 H :    0.161602
Sum of atomic charges:   -0.0000000

LOEWDIN ATOMIC CHARGES
----------------------
   0 C :   -0.427195
   1 C :   -0.324216
   2 C :   -0.298183
   3 C :   -0.222884
   4 C :   -0.300049
   5 C :   -0.302482
   6 C :   -0.305006
   7 C :   -0.303744
   8 H :    0.148967
   9 H :    0.149381
  10 H :    0.149844
  11 H :    0.152281
  12 H :    0.152756
  13 H :    0.158726
  14 H :    0.158144
  15 H :    0.160072
  16 H :    0.158311
  17 H :    0.159627
  18 H :    0.155024
  19 H :    0.154403
  20 H :    0.155251
  21 H :    0.154587
  22 H :    0.157483
  23 H :    0.158902

  Mayer bond orders larger than 0.100000
B(  0-C ,  1-C ) :   0.9026 B(  0-C ,  8-H ) :   0.9865 B(  0-C ,  9-H ) :   0.9753
B(  0-C , 10-H ) :   0.9771 B(  1-C ,  2-C ) :   0.8163 B(  1-C , 11-H ) :   0.9867
B(  1-C , 12-H ) :   0.9643 B(  2-C ,  3-C ) :   0.8762 B(  2-C , 13-H ) :   0.9839
B(  2-C , 14-H ) :   0.9919 B(  3-C ,  4-C ) :   0.9069 B(  3-C ,  7-C ) :   0.9487
B(  3-C , 15-H ) :   0.9595 B(  4-C ,  5-C ) :   0.8915 B(  4-C , 16-H ) :   0.9515
B(  4-C , 17-H ) :   0.9938 B(  5-C ,  6-C ) :   0.9279 B(  5-C , 18-H ) :   0.9870
B(  5-C , 19-H ) :   0.9556 B(  6-C ,  7-C ) :   0.9232 B(  6-C , 20-H ) :   0.9594
B(  6-C , 21-H ) :   0.9900 B(  7-C , 22-H ) :   0.9684 B(  7-C , 23-H ) :   0.9952

Dispersion correction           -0.007196671
FINAL SINGLE POINT ENERGY      -314.377961646837

DIPOLE MOMENT
-------------

Method             : SCF
Type of density    : Electron Density
Multiplicity       :   1
Irrep              :   0
Energy             :  -314.3811099115068828 Eh
Relativity type    :
Basis              : AO
                                X                 Y                 Z
Electronic contribution:      2.478826010       0.343225338       1.244952806
Nuclear contribution   :     -2.477258482      -0.340214357      -1.205436381
                        -----------------------------------------
Total Dipole Moment    :      0.001567527       0.003010982       0.039516425
                        -----------------------------------------
Magnitude (a.u.)       :      0.039661959
Magnitude (Debye)      :      0.100812688

Rotational constants in cm-1:             0.121106             0.040938             0.037154
Rotational constants in MHz :          3630.670439          1227.280064          1113.858267

                             ****ORCA TERMINATED NORMALLY****
TOTAL RUN TIME: 0 days 0 hours 0 minutes 25 seconds 267 msec
