                         Program Version 6.0.0  -   RELEASE  -
|  1> ! r2scan-3c def2/J RI DEFGRID2 scfconv6 printgap
|  2> %output
|  3>     printlevel normal
|  4> end
|  5> %cpcm
|  6>     smd true
|  7>     smdsolvent "water"
|  8> end
|  9> * xyz 0 1
| 10> C -2.777600885 -0.6656665299 -0.8506957474
| 11> C -2.028806295 0.4725456038 -0.1637337114
| 12> C -1.2262678154 0.0015463028 1.0583225558
| 13> C 0.2820283114 -0.155484117 0.8383261916
| 14> C 0.6952654676 -1.0410301908 -0.3404766079
| 15> C 2.1483356967 -0.6420314826 -0.5733729679
| 16> C 2.1107563924 0.8828924589 -0.4515794474
| 17> C 1.0178694973 1.1776587006 0.5910309576
| 18> H -3.504363097 -1.1045254415 -0.1703383754
| 19> H -3.3089969223 -0.296943251 -1.7255357667
| 20> H -2.0939802322 -1.4487081063 -1.1680085589
| 21> H -1.3650949514 0.9536187227 -0.8835560728
| 22> H -2.7584723896 1.2218476199 0.150378587
| 23> H -1.3598460253 0.7120349626 1.8774352001
| 24> H -1.6285588866 -0.9560967187 1.3956046074
| 25> H 0.6917588369 -0.6067857983 1.7493655952
| 26> H 0.5754376116 -2.1015760397 -0.1223886296
| 27> H 0.1099845786 -0.796769203 -1.2260596769
| 28> H 2.7794986751 -1.0669344189 0.2090038037
| 29> H 2.5284242875 -0.9723609566 -1.5392245397
| 30> H 3.0769757323 1.2924628819 -0.1602468261
| 31> H 1.8398064886 1.3189229533 -1.4140705641
| 32> H 1.4479880652 1.5520589915 1.5197448298
| 33> H 0.3288966833 1.937114962 0.2230063089
| 34> *
| 35>
| 36>                          ****END OF INPUT****

CARTESIAN COORDINATES (ANGSTROEM)
---------------------------------
  C     -2.777601   -0.665667   -0.850696
  C     -2.028806    0.472546   -0.163734
  C     -1.226268    0.001546    1.058323
  C      0.282028   -0.155484    0.838326
  C      0.695265   -1.041030   -0.340477
  C      2.148336   -0.642031   -0.573373
  C      2.110756    0.882892   -0.451579
  C      1.017869    1.177659    0.591031
  H     -3.504363   -1.104525   -0.170338
  H     -3.308997   -0.296943   -1.725536
  H     -2.093980   -1.448708   -1.168009
  H     -1.365095    0.953619   -0.883556
  H     -2.758472    1.221848    0.150379
  H     -1.359846    0.712035    1.877435
  H     -1.628559   -0.956097    1.395605
  H      0.691759   -0.606786    1.749366
  H      0.575438   -2.101576   -0.122389
  H      0.109985   -0.796769   -1.226060
  H      2.779499   -1.066934    0.209004
  H      2.528424   -0.972361   -1.539225
  H      3.076976    1.292463   -0.160247
  H      1.839806    1.318923   -1.414071
  H      1.447988    1.552059    1.519745
  H      0.328897    1.937115    0.223006

 Total Charge           Charge          ....    0
 Multiplicity           Mult            ....    1
 Number of Electrons    NEL             ....   64
 Basis Dimension        Dim             ....  232

ORBITAL ENERGIES
----------------

  NO   OCC          E(Eh)            E(eV)
   0   2.0000     -10.017769      -272.5974
   1   2.0000     -10.013683      -272.4862
   2   2.0000     -10.011433      -272.4250
   3   2.0000     -10.011250      -272.4200
   4   2.0000     -10.011145      -272.4171
   5   2.0000     -10.008701      -272.3506
   6   2.0000     -10.008610      -272.3481
   7   2.0000     -10.006308      -272.2855
   8   2.0000      -0.798140       -21.7185
   9   2.0000      -0.740612       -20.1531
  10   2.0000      -0.680083       -18.5060
  11   2.0000      -0.664171       -18.0730
  12   2.0000      -0.613597       -16.6968
  13   2.0000      -0.552553       -15.0357
  14   2.0000      -0.525093       -14.2885
  15   2.0000      -0.494797       -13.4641
  16   2.0000      -0.445309       -12.1175
  17   2.0000      -0.429547       -11.6886
  18   2.0000      -0.411367       -11.1939
  19   2.0000      -0.386952       -10.5295
  20   2.0000      -0.375673       -10.2226
  21   2.0000      -0.368608       -10.0303
  22   2.0000      -0.353762        -9.6263
  23   2.0000      -0.309893        -8.4326
  24   2.0000      -0.308322        -8.3899
  25   2.0000      -0.305448        -8.3117
  26   2.0000      -0.295026        -8.0281
  27   2.0000      -0.294109        -8.0031
  28   2.0000      -0.278745        -7.5850
  29   2.0000      -0.271839        -7.3971
  30   2.0000      -0.264690        -7.2026
  31   2.0000      -0.259392        -7.0584
  32   0.0000       0.089712         2.4412
  33   0.0000       0.102656         2.7934
  34   0.0000       0.104921         2.8550
  35   0.0000       0.112647         3.0653
  36   0.0000       0.130534         3.5520

MULLIKEN ATOMIC CHARGES
-----------------------
   0 C :   -0.527930
   1 C :   -0.274078
   2 C :   -0.305038
   3 C :   -0.021946
   4 C :   -0.382878
   5 C :   -0.284420
   6 C :   -0.319318
   7 C :   -0.425077
   8 H :    0.157415
   9 H :    0.153748
  10 H :    0.155069
  11 H :    0.157808
  12 H :    0.151140
  13 H :    0.156399
  14 H :    0.156202
  15 H :    0.163030
  16 H :    0.162333
  17 H :    0.170294
  18 H :    0.155233
  19 H :    0.156369
  20 H :    0.155762
  21 H :    0.159430
  22 H :    0.162473
  23 H :    0.167979
Sum of atomic charges:   -0.0000000

LOEWDIN ATOMIC CHARGES
----------------------
   0 C :   -0.435058
   1 C :   -0.326431
   2 C :   -0.301756
   3 C :   -0.222375
   4 C :   -0.303074
   5 C :   -0.307279
   6 C :   -0.309435
   7 C :   -0.307404
   8 H :    0.151004
   9 H :    0.151291
  10 H :    0.151570
  11 H :    0.155644
  12 H :    0.154157
  13 H :    0.160033
  14 H :    0.159405
  15 H :    0.161908
  16 H :    0.159663
  17 H :    0.162655
  18 H :    0.156928
  19 H :    0.155771
  20 H :    0.156593
  21 H :    0.156700
  22 H :    0.158915
  23 H :    0.160573

  Mayer bond orders larger than 0.100000
B(  0-C ,  1-C ) :   0.8931 B(  0-C ,  8-H ) :   0.9836 B(  0-C ,  9-H ) :   0.9732
B(  0-C , 10-H ) :   0.9761 B(  1-C ,  2-C ) :   0.8100 B(  1-C , 11-H ) :   0.9857
B(  1-C , 12-H ) :   0.9650 B(  2-C ,  3-C ) :   0.8712 B(  2-C , 13-H ) :   0.9841
B(  2-C , 14-H ) :   0.9917 B(  3-C ,  4-C ) :   0.9038 B(  3-C ,  7-C ) :   0.9473
B(  3-C , 15-H ) :   0.9601 B(  4-C ,  5-C ) :   0.8901 B(  4-C , 16-H ) :   0.9504
B(  4-C , 17-H ) :   0.9917 B(  5-C ,  6-C ) :   0.9237 B(  5-C , 18-H ) :   0.9860
B(  5-C , 19-H ) :   0.9543 B(  6-C ,  7-C ) :   0.9201 B(  6-C , 20-H ) :   0.9585
B(  6-C , 21-H ) :   0.9881 B(  7-C , 22-H ) :   0.9681 B(  7-C , 23-H ) :   0.9931

Dispersion correction           -0.007196671
FINAL SINGLE POINT ENERGY      -314.375312908510

DIPOLE MOMENT
-------------

Method             : SCF
Type of density    : Electron Density
Multiplicity       :   1
Irrep              :   0
Energy             :  -314.3784611731791756 Eh
Relativity type    :
Basis              : AO
                                X                 Y                 Z
Electronic contribution:      2.472038138       0.347758834       1.244435523
Nuclear contribution   :     -2.477258482      -0.340214357      -1.205436381
                        -----------------------------------------
Total Dipole Moment    :     -0.005220345       0.007544477       0.038999142
                        -----------------------------------------
Magnitude (a.u.)       :      0.040063752
Magnitude (Debye)      :      0.101833965

Rotational constants in cm-1:             0.121106             0.040938             0.037154
Rotational constants in MHz :          3630.670439          1227.280064          1113.858267

                             ****ORCA TERMINATED NORMALLY****
TOTAL RUN TIME: 0 days 0 hours 0 minutes 31 seconds 74 msec
