                         Program Version 6.0.0  -   RELEASE  -
|  1> ! pbe def2-sv(p) def2/J RI DEFGRID1 loosescf d4 GCP(DFT/SV(P)) printgap
|  2> %output
|  3>     printlevel normal
|  4> end
|  5> * xyz 0 1
|  6> C 1.7298297054 -0.7849988476 0.1244950848
|  7> O 1.1528975382 0.3908621393 -0.4036498851
|  8> C 0.0637889481 0.9261488894 0.3363983449
|  9> C -1.3200320074 0.4883383209 -0.1841754052
| 10> N -1.7126224511 -0.8847044643 0.0781327542
| 11> H 1.0445221032 -1.6369599116 0.0859091931
| 12> H 2.051252377 -0.6305833896 1.1604951153
| 13> H 2.5970222675 -0.9943143624 -0.4978677009
| 14> H 0.1695379474 0.6702161653 1.3985142488
| 15> H 0.1452904652 2.0114739013 0.2265740714
| 16> H -2.0667656925 1.1387719816 0.2796246591
| 17> H -1.3471134028 0.6455902184 -1.2644935322
| 18> H -1.6227443123 -1.0900229724 1.0675661312
| 19> H -1.1154589484 -1.5253530432 -0.4322066352
| 20> *
| 21>
| 22>                          ****END OF INPUT****

CARTESIAN COORDINATES (ANGSTROEM)
---------------------------------
  C      1.729830   -0.784999    0.124495
  O      1.152898    0.390862   -0.403650
  C      0.063789    0.926149    0.336398
  C     -1.320032    0.488338   -0.184175
  N     -1.712622   -0.884704    0.078133
  H      1.044522   -1.636960    0.085909
  H      2.051252   -0.630583    1.160495
  H      2.597022   -0.994314   -0.497868
  H      0.169538    0.670216    1.398514
  H      0.145290    2.011474    0.226574
  H     -2.066766    1.138772    0.279625
  H     -1.347113    0.645590   -1.264494
  H     -1.622744   -1.090023    1.067566
  H     -1.115459   -1.525353   -0.432207

 Total Charge           Charge          ....    0
 Multiplicity           Mult            ....    1
 Number of Electrons    NEL             ....   42
 Basis Dimension        Dim             ....   88

ORBITAL ENERGIES
----------------

  NO   OCC          E(Eh)            E(eV)
   0   2.0000     -18.749706      -510.2054
   1   2.0000     -13.965054      -380.0084
   2   2.0000      -9.927706      -270.1466
   3   2.0000      -9.926636      -270.1175
   4   2.0000      -9.906047      -269.5573
   5   2.0000      -0.928561       -25.2674
   6   2.0000      -0.795817       -21.6553
   7   2.0000      -0.664789       -18.0898
   8   2.0000      -0.596849       -16.2411
   9   2.0000      -0.534871       -14.5546
  10   2.0000      -0.459957       -12.5161
  11   2.0000      -0.427177       -11.6241
  12   2.0000      -0.421560       -11.4712
  13   2.0000      -0.411438       -11.1958
  14   2.0000      -0.374786       -10.1985
  15   2.0000      -0.360617        -9.8129
  16   2.0000      -0.320925        -8.7328
  17   2.0000      -0.317542        -8.6408
  18   2.0000      -0.263735        -7.1766
  19   2.0000      -0.220640        -6.0039
  20   2.0000      -0.175222        -4.7680
  21   0.0000       0.025498         0.6938
  22   0.0000       0.062841         1.7100
  23   0.0000       0.066329         1.8049
  24   0.0000       0.080020         2.1774
  25   0.0000       0.093089         2.5331

MULLIKEN ATOMIC CHARGES
-----------------------
   0 C :   -0.107879
   1 O :   -0.345021
   2 C :    0.004346
   3 C :   -0.094215
   4 N :   -0.451726
   5 H :    0.064998
   6 H :    0.088901
   7 H :    0.115137
   8 H :    0.055709
   9 H :    0.081081
  10 H :    0.082968
  11 H :    0.095352
  12 H :    0.197080
  13 H :    0.213270
Sum of atomic charges:   -0.0000000

LOEWDIN ATOMIC CHARGES
----------------------
   0 C :   -0.209850
   1 O :   -0.189148
   2 C :   -0.132648
   3 C :   -0.199778
   4 N :   -0.405160
   5 H :    0.083002
   6 H :    0.096939
   7 H :    0.116254
   8 H :    0.092235
   9 H :    0.110485
  10 H :    0.113493
  11 H :    0.119898
  12 H :    0.200128
  13 H :    0.204151

  Mayer bond orders larger than 0.100000
B(  0-C ,  1-O ) :   1.0262 B(  0-C ,  5-H ) :   0.9293 B(  0-C ,  6-H ) :   0.9433
B(  0-C ,  7-H ) :   0.9623 B(  1-O ,  2-C ) :   1.0167 B(  2-C ,  3-C ) :   1.0756
B(  2-C ,  8-H ) :   0.9082 B(  2-C ,  9-H ) :   0.9185 B(  3-C ,  4-N ) :   1.1463
B(  3-C , 10-H ) :   0.9219 B(  3-C , 11-H ) :   0.9249 B(  4-N , 12-H ) :   0.9115
B(  4-N , 13-H ) :   0.9043

Dispersion correction           -0.008574796
FINAL SINGLE POINT ENERGY      -249.090700288408

DIPOLE MOMENT
-------------

Method             : SCF
Type of density    : Electron Density
Multiplicity       :   1
Irrep              :   0
Energy             :  -249.1516052099738943 Eh
Relativity type    :
Basis              : AO
                                X                 Y                 Z
Electronic contribution:      0.436723655       1.078425563      -1.374303045
Nuclear contribution   :     -0.127809855      -1.322990194       1.893395245
                        -----------------------------------------
Total Dipole Moment    :      0.308913799      -0.244564631       0.519092200
                        -----------------------------------------
Magnitude (a.u.)       :      0.651687276
Magnitude (Debye)      :      1.656457415

Rotational constants in cm-1:             0.285007             0.110394             0.088948
Rotational constants in MHz :          8544.280132          3309.534417          2666.599026

                             ****ORCA TERMINATED NORMALLY****
TOTAL RUN TIME: 0 days 0 hours 0 minutes 5 seconds 993 msec
