                         Program Version 6.0.0  -   RELEASE  -
|  1> ! pbe def2-sv(p) def2/J RI DEFGRID1 loosescf d4 GCP(DFT/SV(P)) printgap
|  2> %output
|  3>     printlevel normal
|  4> end
|  5> * xyz 0 1
|  6> C -2.127346559 1.1649236256 0.1701085927
|  7> C -1.0850164321 0.047268609 0.2084019109
|  8> C -1.7741868357 -1.3019040187 0.0069397046
|  9> C 0.0049467141 0.2861448873 -0.8532392109
| 10> C 1.4542482729 0.0713213789 -0.3891307891
| 11> C 1.8734501199 1.1060439564 0.6542781546
| 12> C 1.7010412607 -1.3435135997 0.1292237048
| 13> H -1.6659025544 2.128103777 0.3757347314
| 14> H -2.5989783241 1.2092722969 -0.8095435731
| 15> H -2.9013592651 0.9907913713 0.9146140646
| 16> H -0.6287141408 0.0518126225 1.2023767098
| 17> H -2.2898882947 -1.3216842529 -0.9513038607
| 18> H -1.0544069484 -2.1152059642 0.0266763063
| 19> H -2.5077828547 -1.4748694268 0.7918536576
| 20> H -0.0704922583 1.3139814983 -1.2152474914
| 21> H -0.1842744601 -0.367490146 -1.707627191
| 22> H 2.0885592976 0.2179345761 -1.2724607202
| 23> H 1.300255491 0.9935541126 1.571078885
| 24> H 2.9267556786 0.988191131 0.8984642801
| 25> H 1.7197645852 2.113869559 0.275374843
| 26> H 1.4167694283 -2.0796188072 -0.6192384214
| 27> H 2.7559370551 -1.4795593606 0.3578382196
| 28> H 1.1320381566 -1.5299830759 1.0363205492
| 29> *
| 30>
| 31>                          ****END OF INPUT****

CARTESIAN COORDINATES (ANGSTROEM)
---------------------------------
  C     -2.127347    1.164924    0.170109
  C     -1.085016    0.047269    0.208402
  C     -1.774187   -1.301904    0.006940
  C      0.004947    0.286145   -0.853239
  C      1.454248    0.071321   -0.389131
  C      1.873450    1.106044    0.654278
  C      1.701041   -1.343514    0.129224
  H     -1.665903    2.128104    0.375735
  H     -2.598978    1.209272   -0.809544
  H     -2.901359    0.990791    0.914614
  H     -0.628714    0.051813    1.202377
  H     -2.289888   -1.321684   -0.951304
  H     -1.054407   -2.115206    0.026676
  H     -2.507783   -1.474869    0.791854
  H     -0.070492    1.313981   -1.215247
  H     -0.184274   -0.367490   -1.707627
  H      2.088559    0.217935   -1.272461
  H      1.300255    0.993554    1.571079
  H      2.926756    0.988191    0.898464
  H      1.719765    2.113870    0.275375
  H      1.416769   -2.079619   -0.619238
  H      2.755937   -1.479559    0.357838
  H      1.132038   -1.529983    1.036321

 Total Charge           Charge          ....    0
 Multiplicity           Mult            ....    1
 Number of Electrons    NEL             ....   58
 Basis Dimension        Dim             ....  130

ORBITAL ENERGIES
----------------

  NO   OCC          E(Eh)            E(eV)
   0   2.0000      -9.890555      -269.1357
   1   2.0000      -9.888730      -269.0860
   2   2.0000      -9.874304      -268.6935
   3   2.0000      -9.868899      -268.5464
   4   2.0000      -9.868742      -268.5421
   5   2.0000      -9.867955      -268.5207
   6   2.0000      -9.867520      -268.5089
   7   2.0000      -0.738390       -20.0926
   8   2.0000      -0.695861       -18.9354
   9   2.0000      -0.611215       -16.6320
  10   2.0000      -0.602473       -16.3941
  11   2.0000      -0.601560       -16.3693
  12   2.0000      -0.515230       -14.0201
  13   2.0000      -0.477033       -12.9807
  14   2.0000      -0.419607       -11.4181
  15   2.0000      -0.400471       -10.8974
  16   2.0000      -0.393941       -10.7197
  17   2.0000      -0.377051       -10.2601
  18   2.0000      -0.368152       -10.0179
  19   2.0000      -0.352485        -9.5916
  20   2.0000      -0.336315        -9.1516
  21   2.0000      -0.332343        -9.0435
  22   2.0000      -0.312900        -8.5144
  23   2.0000      -0.310335        -8.4447
  24   2.0000      -0.297107        -8.0847
  25   2.0000      -0.287999        -7.8368
  26   2.0000      -0.271768        -7.3952
  27   2.0000      -0.266429        -7.2499
  28   2.0000      -0.259361        -7.0576
  29   0.0000       0.030577         0.8321
  30   0.0000       0.055196         1.5020
  31   0.0000       0.062799         1.7089
  32   0.0000       0.072341         1.9685
  33   0.0000       0.091048         2.4775

MULLIKEN ATOMIC CHARGES
-----------------------
   0 C :   -0.251385
   1 C :   -0.195790
   2 C :   -0.253496
   3 C :   -0.087507
   4 C :   -0.181877
   5 C :   -0.248841
   6 C :   -0.251092
   7 H :    0.099122
   8 H :    0.095281
   9 H :    0.093612
  10 H :    0.084925
  11 H :    0.094028
  12 H :    0.101666
  13 H :    0.093949
  14 H :    0.072886
  15 H :    0.073017
  16 H :    0.067547
  17 H :    0.099176
  18 H :    0.096963
  19 H :    0.096264
  20 H :    0.100966
  21 H :    0.096665
  22 H :    0.103923
Sum of atomic charges:    0.0000000

LOEWDIN ATOMIC CHARGES
----------------------
   0 C :   -0.328258
   1 C :   -0.159754
   2 C :   -0.329823
   3 C :   -0.207924
   4 C :   -0.154902
   5 C :   -0.331555
   6 C :   -0.331680
   7 H :    0.115162
   8 H :    0.115667
   9 H :    0.114585
  10 H :    0.111545
  11 H :    0.115144
  12 H :    0.115750
  13 H :    0.115307
  14 H :    0.113102
  15 H :    0.114116
  16 H :    0.114234
  17 H :    0.115341
  18 H :    0.117463
  19 H :    0.116119
  20 H :    0.116380
  21 H :    0.117402
  22 H :    0.116580

  Mayer bond orders larger than 0.100000
B(  0-C ,  1-C ) :   1.1168 B(  0-C ,  7-H ) :   0.9495 B(  0-C ,  8-H ) :   0.9495
B(  0-C ,  9-H ) :   0.9513 B(  1-C ,  2-C ) :   1.1172 B(  1-C ,  3-C ) :   1.0355
B(  1-C , 10-H ) :   0.9060 B(  2-C , 11-H ) :   0.9468 B(  2-C , 12-H ) :   0.9449
B(  2-C , 13-H ) :   0.9500 B(  3-C ,  4-C ) :   1.0969 B(  3-C , 14-H ) :   0.9225
B(  3-C , 15-H ) :   0.9138 B(  4-C ,  5-C ) :   1.1145 B(  4-C ,  6-C ) :   1.1127
B(  4-C , 16-H ) :   0.8992 B(  5-C , 17-H ) :   0.9424 B(  5-C , 18-H ) :   0.9502
B(  5-C , 19-H ) :   0.9506 B(  6-C , 20-H ) :   0.9465 B(  6-C , 21-H ) :   0.9480
B(  6-C , 22-H ) :   0.9407

Dispersion correction           -0.018958543
FINAL SINGLE POINT ENERGY      -275.659310575281

DIPOLE MOMENT
-------------

Method             : SCF
Type of density    : Electron Density
Multiplicity       :   1
Irrep              :   0
Energy             :  -275.7367017722539231 Eh
Relativity type    :
Basis              : AO
                                X                 Y                 Z
Electronic contribution:      0.592419157       0.342505296      -0.822616786
Nuclear contribution   :     -0.526983487      -0.338582546       0.820807750
                        -----------------------------------------
Total Dipole Moment    :      0.065435670       0.003922750      -0.001809037
                        -----------------------------------------
Magnitude (a.u.)       :      0.065578103
Magnitude (Debye)      :      0.166686290

Rotational constants in cm-1:             0.121188             0.056115             0.044783
Rotational constants in MHz :          3633.138632          1682.289769          1342.575246

                             ****ORCA TERMINATED NORMALLY****
TOTAL RUN TIME: 0 days 0 hours 0 minutes 10 seconds 848 msec
