                         Program Version 6.0.0  -   RELEASE  -
|  1> ! r2scan-3c def2/J RI DEFGRID2 scfconv6 printgap
|  2> %output
|  3>     printlevel normal
|  4> end
|  5> * xyz 0 1
|  6> C -2.5047004331 0.6417736076 0.519518638
|  7> C -1.2633096115 -0.2518057064 0.4770457959
|  8> C -1.6242278005 -1.533053632 -0.2772959108
|  9> C -0.0482960333 0.4540221613 -0.1667945412
| 10> C 0.1490646558 1.8527832982 0.4211476894
| 11> C 1.2194981675 -0.4448347397 -0.0697745641
| 12> C 1.6269813178 -0.9419780913 -1.4583651018
| 13> C 2.4373029812 0.2021069276 0.5926370397
| 14> H -3.3636653971 0.062125373 0.8508671405
| 15> H -2.3789288243 1.4716624738 1.2080985317
| 16> H -2.722954944 1.0356390394 -0.4710071065
| 17> H -0.9968191965 -0.5151034074 1.5077758434
| 18> H -2.4696165298 -2.0230885625 0.2010122341
| 19> H -0.7985324862 -2.2380393893 -0.2990478071
| 20> H -1.903229301 -1.296507033 -1.3022388544
| 21> H -0.2791004935 0.5884223074 -1.2297830409
| 22> H 1.0437631378 2.3164755945 0.0177265682
| 23> H 0.231949273 1.816067382 1.5046679745
| 24> H -0.6912078062 2.4902281156 0.1620720706
| 25> H 0.9677727823 -1.3168793377 0.542908189
| 26> H 2.4688898707 -1.6275859403 -1.3860914158
| 27> H 0.8055156393 -1.4604536205 -1.9459146494
| 28> H 1.9238674849 -0.1030675182 -2.0847727047
| 29> H 3.2251039036 -0.5426643574 0.6892631403
| 30> H 2.2016494676 0.5714536367 1.5861050049
| 31> H 2.8271453905 1.0214044828 -0.0059003241
| 32> *
| 33>
| 34>                          ****END OF INPUT****

CARTESIAN COORDINATES (ANGSTROEM)
---------------------------------
  C     -2.504700    0.641774    0.519519
  C     -1.263310   -0.251806    0.477046
  C     -1.624228   -1.533054   -0.277296
  C     -0.048296    0.454022   -0.166795
  C      0.149065    1.852783    0.421148
  C      1.219498   -0.444835   -0.069775
  C      1.626981   -0.941978   -1.458365
  C      2.437303    0.202107    0.592637
  H     -3.363665    0.062125    0.850867
  H     -2.378929    1.471662    1.208099
  H     -2.722955    1.035639   -0.471007
  H     -0.996819   -0.515103    1.507776
  H     -2.469617   -2.023089    0.201012
  H     -0.798532   -2.238039   -0.299048
  H     -1.903229   -1.296507   -1.302239
  H     -0.279100    0.588422   -1.229783
  H      1.043763    2.316476    0.017727
  H      0.231949    1.816067    1.504668
  H     -0.691208    2.490228    0.162072
  H      0.967773   -1.316879    0.542908
  H      2.468890   -1.627586   -1.386091
  H      0.805516   -1.460454   -1.945915
  H      1.923867   -0.103068   -2.084773
  H      3.225104   -0.542664    0.689263
  H      2.201649    0.571454    1.586105
  H      2.827145    1.021404   -0.005900

 Total Charge           Charge          ....    0
 Multiplicity           Mult            ....    1
 Number of Electrons    NEL             ....   66
 Basis Dimension        Dim             ....  242

ORBITAL ENERGIES
----------------

  NO   OCC          E(Eh)            E(eV)
   0   2.0000     -10.029950      -272.9288
   1   2.0000     -10.028782      -272.8970
   2   2.0000     -10.026947      -272.8471
   3   2.0000     -10.012047      -272.4416
   4   2.0000     -10.011778      -272.4343
   5   2.0000     -10.011757      -272.4338
   6   2.0000     -10.011725      -272.4329
   7   2.0000     -10.010572      -272.4015
   8   2.0000      -0.793029       -21.5794
   9   2.0000      -0.742586       -20.2068
  10   2.0000      -0.689490       -18.7620
  11   2.0000      -0.648561       -17.6482
  12   2.0000      -0.643133       -17.5005
  13   2.0000      -0.598293       -16.2804
  14   2.0000      -0.534466       -14.5436
  15   2.0000      -0.510482       -13.8909
  16   2.0000      -0.439034       -11.9467
  17   2.0000      -0.424669       -11.5558
  18   2.0000      -0.405683       -11.0392
  19   2.0000      -0.396071       -10.7776
  20   2.0000      -0.388208       -10.5637
  21   2.0000      -0.366931        -9.9847
  22   2.0000      -0.356550        -9.7022
  23   2.0000      -0.354569        -9.6483
  24   2.0000      -0.348271        -9.4769
  25   2.0000      -0.330262        -8.9869
  26   2.0000      -0.324755        -8.8370
  27   2.0000      -0.320967        -8.7339
  28   2.0000      -0.300544        -8.1782
  29   2.0000      -0.296625        -8.0716
  30   2.0000      -0.277782        -7.5588
  31   2.0000      -0.270664        -7.3651
  32   2.0000      -0.264600        -7.2001
  33   0.0000       0.081515         2.2181
  34   0.0000       0.103713         2.8222
  35   0.0000       0.105390         2.8678
  36   0.0000       0.109201         2.9715
  37   0.0000       0.119460         3.2507

MULLIKEN ATOMIC CHARGES
-----------------------
   0 C :   -0.522221
   1 C :   -0.044491
   2 C :   -0.532224
   3 C :   -0.048136
   4 C :   -0.557771
   5 C :   -0.056218
   6 C :   -0.506908
   7 C :   -0.521227
   8 H :    0.142066
   9 H :    0.157716
  10 H :    0.158287
  11 H :    0.161425
  12 H :    0.145253
  13 H :    0.155025
  14 H :    0.159612
  15 H :    0.176191
  16 H :    0.143789
  17 H :    0.169445
  18 H :    0.159058
  19 H :    0.157548
  20 H :    0.143501
  21 H :    0.153915
  22 H :    0.152709
  23 H :    0.147778
  24 H :    0.146153
  25 H :    0.159723
Sum of atomic charges:    0.0000000

LOEWDIN ATOMIC CHARGES
----------------------
   0 C :   -0.418699
   1 C :   -0.237352
   2 C :   -0.418419
   3 C :   -0.223155
   4 C :   -0.409695
   5 C :   -0.240070
   6 C :   -0.416876
   7 C :   -0.414649
   8 H :    0.153050
   9 H :    0.153586
  10 H :    0.155174
  11 H :    0.156969
  12 H :    0.152087
  13 H :    0.153359
  14 H :    0.154132
  15 H :    0.162542
  16 H :    0.154370
  17 H :    0.154339
  18 H :    0.154953
  19 H :    0.158516
  20 H :    0.151083
  21 H :    0.153177
  22 H :    0.152475
  23 H :    0.153442
  24 H :    0.153790
  25 H :    0.151872

  Mayer bond orders larger than 0.100000
B(  0-C ,  1-C ) :   0.8726 B(  0-C ,  8-H ) :   0.9750 B(  0-C ,  9-H ) :   0.9713
B(  0-C , 10-H ) :   0.9903 B(  1-C ,  2-C ) :   0.8847 B(  1-C ,  3-C ) :   0.8520
B(  1-C , 11-H ) :   0.9668 B(  2-C , 12-H ) :   0.9735 B(  2-C , 13-H ) :   0.9666
B(  2-C , 14-H ) :   0.9929 B(  3-C ,  4-C ) :   0.8408 B(  3-C ,  5-C ) :   0.8369
B(  3-C , 15-H ) :   1.0030 B(  4-C , 16-H ) :   0.9624 B(  4-C , 17-H ) :   1.0024
B(  4-C , 18-H ) :   0.9693 B(  5-C ,  6-C ) :   0.8964 B(  5-C ,  7-C ) :   0.8943
B(  5-C , 19-H ) :   0.9709 B(  6-C , 20-H ) :   0.9775 B(  6-C , 21-H ) :   0.9698
B(  6-C , 22-H ) :   0.9874 B(  7-C , 23-H ) :   0.9723 B(  7-C , 24-H ) :   0.9670
B(  7-C , 25-H ) :   1.0006

Dispersion correction           -0.008015228
FINAL SINGLE POINT ENERGY      -315.579937509082

DIPOLE MOMENT
-------------

Method             : SCF
Type of density    : Electron Density
Multiplicity       :   1
Irrep              :   0
Energy             :  -315.5848374368488862 Eh
Relativity type    :
Basis              : AO
                                X                 Y                 Z
Electronic contribution:     -0.093966331      -0.250826397       0.461975825
Nuclear contribution   :      0.085937455       0.234624129      -0.426168558
                        -----------------------------------------
Total Dipole Moment    :     -0.008028876      -0.016202268       0.035807267
                        -----------------------------------------
Magnitude (a.u.)       :      0.040114047
Magnitude (Debye)      :      0.101961804

Rotational constants in cm-1:             0.090014             0.046525             0.035486
Rotational constants in MHz :          2698.539212          1394.785787          1063.835058

                             ****ORCA TERMINATED NORMALLY****
TOTAL RUN TIME: 0 days 0 hours 0 minutes 27 seconds 759 msec
