                         Program Version 6.0.0  -   RELEASE  -
|  1> ! r2scan-3c def2/J RI DEFGRID2 scfconv6 printgap
|  2> %output
|  3>     printlevel normal
|  4> end
|  5> %cpcm
|  6>     smd true
|  7>     smdsolvent "water"
|  8> end
|  9> * xyz 0 1
| 10> C -2.5047004331 0.6417736076 0.519518638
| 11> C -1.2633096115 -0.2518057064 0.4770457959
| 12> C -1.6242278005 -1.533053632 -0.2772959108
| 13> C -0.0482960333 0.4540221613 -0.1667945412
| 14> C 0.1490646558 1.8527832982 0.4211476894
| 15> C 1.2194981675 -0.4448347397 -0.0697745641
| 16> C 1.6269813178 -0.9419780913 -1.4583651018
| 17> C 2.4373029812 0.2021069276 0.5926370397
| 18> H -3.3636653971 0.062125373 0.8508671405
| 19> H -2.3789288243 1.4716624738 1.2080985317
| 20> H -2.722954944 1.0356390394 -0.4710071065
| 21> H -0.9968191965 -0.5151034074 1.5077758434
| 22> H -2.4696165298 -2.0230885625 0.2010122341
| 23> H -0.7985324862 -2.2380393893 -0.2990478071
| 24> H -1.903229301 -1.296507033 -1.3022388544
| 25> H -0.2791004935 0.5884223074 -1.2297830409
| 26> H 1.0437631378 2.3164755945 0.0177265682
| 27> H 0.231949273 1.816067382 1.5046679745
| 28> H -0.6912078062 2.4902281156 0.1620720706
| 29> H 0.9677727823 -1.3168793377 0.542908189
| 30> H 2.4688898707 -1.6275859403 -1.3860914158
| 31> H 0.8055156393 -1.4604536205 -1.9459146494
| 32> H 1.9238674849 -0.1030675182 -2.0847727047
| 33> H 3.2251039036 -0.5426643574 0.6892631403
| 34> H 2.2016494676 0.5714536367 1.5861050049
| 35> H 2.8271453905 1.0214044828 -0.0059003241
| 36> *
| 37>
| 38>                          ****END OF INPUT****

CARTESIAN COORDINATES (ANGSTROEM)
---------------------------------
  C     -2.504700    0.641774    0.519519
  C     -1.263310   -0.251806    0.477046
  C     -1.624228   -1.533054   -0.277296
  C     -0.048296    0.454022   -0.166795
  C      0.149065    1.852783    0.421148
  C      1.219498   -0.444835   -0.069775
  C      1.626981   -0.941978   -1.458365
  C      2.437303    0.202107    0.592637
  H     -3.363665    0.062125    0.850867
  H     -2.378929    1.471662    1.208099
  H     -2.722955    1.035639   -0.471007
  H     -0.996819   -0.515103    1.507776
  H     -2.469617   -2.023089    0.201012
  H     -0.798532   -2.238039   -0.299048
  H     -1.903229   -1.296507   -1.302239
  H     -0.279100    0.588422   -1.229783
  H      1.043763    2.316476    0.017727
  H      0.231949    1.816067    1.504668
  H     -0.691208    2.490228    0.162072
  H      0.967773   -1.316879    0.542908
  H      2.468890   -1.627586   -1.386091
  H      0.805516   -1.460454   -1.945915
  H      1.923867   -0.103068   -2.084773
  H      3.225104   -0.542664    0.689263
  H      2.201649    0.571454    1.586105
  H      2.827145    1.021404   -0.005900

 Total Charge           Charge          ....    0
 Multiplicity           Mult            ....    1
 Number of Electrons    NEL             ....   66
 Basis Dimension        Dim             ....  242

ORBITAL ENERGIES
----------------

  NO   OCC          E(Eh)            E(eV)
   0   2.0000     -10.021837      -272.7081
   1   2.0000     -10.020667      -272.6762
   2   2.0000     -10.018649      -272.6213
   3   2.0000     -10.004183      -272.2277
   4   2.0000     -10.003774      -272.2165
   5   2.0000     -10.003727      -272.2153
   6   2.0000     -10.003521      -272.2096
   7   2.0000     -10.002241      -272.1748
   8   2.0000      -0.784843       -21.3567
   9   2.0000      -0.734714       -19.9926
  10   2.0000      -0.681683       -18.5495
  11   2.0000      -0.641081       -17.4447
  12   2.0000      -0.635781       -17.3005
  13   2.0000      -0.590660       -16.0727
  14   2.0000      -0.526858       -14.3365
  15   2.0000      -0.502226       -13.6663
  16   2.0000      -0.430783       -11.7222
  17   2.0000      -0.416935       -11.3454
  18   2.0000      -0.397997       -10.8300
  19   2.0000      -0.388154       -10.5622
  20   2.0000      -0.380212       -10.3461
  21   2.0000      -0.359250        -9.7757
  22   2.0000      -0.348754        -9.4901
  23   2.0000      -0.346669        -9.4333
  24   2.0000      -0.340442        -9.2639
  25   2.0000      -0.322354        -8.7717
  26   2.0000      -0.316839        -8.6216
  27   2.0000      -0.312955        -8.5159
  28   2.0000      -0.292684        -7.9643
  29   2.0000      -0.288487        -7.8501
  30   2.0000      -0.269638        -7.3372
  31   2.0000      -0.262499        -7.1430
  32   2.0000      -0.256604        -6.9825
  33   0.0000       0.090312         2.4575
  34   0.0000       0.112006         3.0478
  35   0.0000       0.113414         3.0862
  36   0.0000       0.117086         3.1861
  37   0.0000       0.125645         3.4190

MULLIKEN ATOMIC CHARGES
-----------------------
   0 C :   -0.559652
   1 C :   -0.033678
   2 C :   -0.570971
   3 C :   -0.043630
   4 C :   -0.595601
   5 C :   -0.034647
   6 C :   -0.550523
   7 C :   -0.567950
   8 H :    0.153131
   9 H :    0.165103
  10 H :    0.168180
  11 H :    0.167626
  12 H :    0.156307
  13 H :    0.164166
  14 H :    0.168552
  15 H :    0.180468
  16 H :    0.155655
  17 H :    0.180107
  18 H :    0.165723
  19 H :    0.165445
  20 H :    0.153651
  21 H :    0.161088
  22 H :    0.163316
  23 H :    0.157905
  24 H :    0.157411
  25 H :    0.172817
Sum of atomic charges:    0.0000000

LOEWDIN ATOMIC CHARGES
----------------------
   0 C :   -0.426688
   1 C :   -0.235635
   2 C :   -0.426358
   3 C :   -0.221784
   4 C :   -0.417527
   5 C :   -0.237798
   6 C :   -0.425171
   7 C :   -0.423634
   8 H :    0.154953
   9 H :    0.155213
  10 H :    0.157459
  11 H :    0.158794
  12 H :    0.154040
  13 H :    0.155687
  14 H :    0.156102
  15 H :    0.163764
  16 H :    0.156445
  17 H :    0.157118
  18 H :    0.156070
  19 H :    0.160899
  20 H :    0.152871
  21 H :    0.154508
  22 H :    0.154693
  23 H :    0.155087
  24 H :    0.155950
  25 H :    0.154942

  Mayer bond orders larger than 0.100000
B(  0-C ,  1-C ) :   0.8670 B(  0-C ,  8-H ) :   0.9739 B(  0-C ,  9-H ) :   0.9689
B(  0-C , 10-H ) :   0.9875 B(  1-C ,  2-C ) :   0.8788 B(  1-C ,  3-C ) :   0.8524
B(  1-C , 11-H ) :   0.9674 B(  2-C , 12-H ) :   0.9721 B(  2-C , 13-H ) :   0.9645
B(  2-C , 14-H ) :   0.9904 B(  3-C ,  4-C ) :   0.8317 B(  3-C ,  5-C ) :   0.8384
B(  3-C , 15-H ) :   1.0040 B(  4-C , 16-H ) :   0.9636 B(  4-C , 17-H ) :   0.9979
B(  4-C , 18-H ) :   0.9673 B(  5-C ,  6-C ) :   0.8858 B(  5-C ,  7-C ) :   0.8779
B(  5-C , 19-H ) :   0.9726 B(  6-C , 20-H ) :   0.9769 B(  6-C , 21-H ) :   0.9689
B(  6-C , 22-H ) :   0.9849 B(  7-C , 23-H ) :   0.9708 B(  7-C , 24-H ) :   0.9670
B(  7-C , 25-H ) :   0.9974

Dispersion correction           -0.008015228
FINAL SINGLE POINT ENERGY      -315.575742978096

DIPOLE MOMENT
-------------

Method             : SCF
Type of density    : Electron Density
Multiplicity       :   1
Irrep              :   0
Energy             :  -315.5806429058637832 Eh
Relativity type    :
Basis              : AO
                                X                 Y                 Z
Electronic contribution:     -0.093064077      -0.257338893       0.472681997
Nuclear contribution   :      0.085937455       0.234624129      -0.426168558
                        -----------------------------------------
Total Dipole Moment    :     -0.007126622      -0.022714764       0.046513439
                        -----------------------------------------
Magnitude (a.u.)       :      0.052251787
Magnitude (Debye)      :      0.132813487

Rotational constants in cm-1:             0.090014             0.046525             0.035486
Rotational constants in MHz :          2698.539212          1394.785787          1063.835058

                             ****ORCA TERMINATED NORMALLY****
TOTAL RUN TIME: 0 days 0 hours 0 minutes 33 seconds 259 msec
