                         Program Version 6.0.0  -   RELEASE  -
|  1> ! pbe def2-sv(p) def2/J RI DEFGRID1 loosescf d4 GCP(DFT/SV(P)) printgap
|  2> %output
|  3>     printlevel normal
|  4> end
|  5> * xyz 0 1
|  6> C 2.7205031297 -0.0811628082 -0.5698470273
|  7> C 1.7348681571 -0.5645446624 0.4879151649
|  8> C 0.5797411457 0.4138481656 0.7052620378
|  9> C -0.3891971904 0.462257373 -0.4782707312
| 10> S -2.0724450991 -0.1344581907 -0.0612451997
| 11> H 3.5245871341 -0.8021777243 -0.6941183711
| 12> H 3.1554872908 0.8709344816 -0.2744367009
| 13> H 2.2304667466 0.0516615193 -1.5313880399
| 14> H 2.2650732346 -0.6929363998 1.4336982242
| 15> H 1.3313559828 -1.5382914849 0.2008634912
| 16> H 0.9854681538 1.4114374785 0.8827524389
| 17> H 0.0361576994 0.114479343 1.603351948
| 18> H -0.5015295864 1.464959487 -0.8852092749
| 19> H -0.0735986127 -0.2055947914 -1.278737563
| 20> H -2.3857332476 0.8574861504 0.763022119
| 21> *
| 22>
| 23>                          ****END OF INPUT****

CARTESIAN COORDINATES (ANGSTROEM)
---------------------------------
  C      2.720503   -0.081163   -0.569847
  C      1.734868   -0.564545    0.487915
  C      0.579741    0.413848    0.705262
  C     -0.389197    0.462257   -0.478271
  S     -2.072445   -0.134458   -0.061245
  H      3.524587   -0.802178   -0.694118
  H      3.155487    0.870934   -0.274437
  H      2.230467    0.051662   -1.531388
  H      2.265073   -0.692936    1.433698
  H      1.331356   -1.538291    0.200863
  H      0.985468    1.411437    0.882752
  H      0.036158    0.114479    1.603352
  H     -0.501530    1.464959   -0.885209
  H     -0.073599   -0.205595   -1.278738
  H     -2.385733    0.857486    0.763022

 Total Charge           Charge          ....    0
 Multiplicity           Mult            ....    1
 Number of Electrons    NEL             ....   50
 Basis Dimension        Dim             ....   94

ORBITAL ENERGIES
----------------

  NO   OCC          E(Eh)            E(eV)
   0   2.0000     -88.011867     -2394.9247
   1   2.0000      -9.915983      -269.8276
   2   2.0000      -9.887955      -269.0649
   3   2.0000      -9.887077      -269.0411
   4   2.0000      -9.876357      -268.7493
   5   2.0000      -7.658420      -208.3962
   6   2.0000      -5.686943      -154.7496
   7   2.0000      -5.682881      -154.6390
   8   2.0000      -5.674506      -154.4112
   9   2.0000      -0.737163       -20.0592
  10   2.0000      -0.687851       -18.7174
  11   2.0000      -0.618774       -16.8377
  12   2.0000      -0.561340       -15.2748
  13   2.0000      -0.512060       -13.9339
  14   2.0000      -0.425475       -11.5778
  15   2.0000      -0.407642       -11.0925
  16   2.0000      -0.399052       -10.8587
  17   2.0000      -0.352647        -9.5960
  18   2.0000      -0.348770        -9.4905
  19   2.0000      -0.340510        -9.2657
  20   2.0000      -0.305667        -8.3176
  21   2.0000      -0.294121        -8.0034
  22   2.0000      -0.289804        -7.8860
  23   2.0000      -0.272900        -7.4260
  24   2.0000      -0.191763        -5.2181
  25   0.0000       0.007729         0.2103
  26   0.0000       0.032406         0.8818
  27   0.0000       0.044868         1.2209
  28   0.0000       0.061526         1.6742
  29   0.0000       0.071413         1.9432

MULLIKEN ATOMIC CHARGES
-----------------------
   0 C :   -0.285561
   1 C :   -0.207626
   2 C :   -0.109990
   3 C :   -0.309041
   4 S :   -0.178510
   5 H :    0.107513
   6 H :    0.099034
   7 H :    0.103610
   8 H :    0.089673
   9 H :    0.095748
  10 H :    0.083447
  11 H :    0.092727
  12 H :    0.133596
  13 H :    0.144350
  14 H :    0.141031
Sum of atomic charges:   -0.0000000

LOEWDIN ATOMIC CHARGES
----------------------
   0 C :   -0.342969
   1 C :   -0.233482
   2 C :   -0.250642
   3 C :   -0.335035
   4 S :    0.016476
   5 H :    0.120825
   6 H :    0.117209
   7 H :    0.115414
   8 H :    0.117363
   9 H :    0.116484
  10 H :    0.116773
  11 H :    0.116041
  12 H :    0.123798
  13 H :    0.126401
  14 H :    0.075343

  Mayer bond orders larger than 0.100000
B(  0-C ,  1-C ) :   1.1510 B(  0-C ,  5-H ) :   0.9537 B(  0-C ,  6-H ) :   0.9542
B(  0-C ,  7-H ) :   0.9524 B(  1-C ,  2-C ) :   1.1228 B(  1-C ,  8-H ) :   0.9269
B(  1-C ,  9-H ) :   0.9277 B(  2-C ,  3-C ) :   1.0365 B(  2-C , 10-H ) :   0.9228
B(  2-C , 11-H ) :   0.9272 B(  3-C ,  4-S ) :   1.0765 B(  3-C , 12-H ) :   0.9317
B(  3-C , 13-H ) :   0.9284 B(  4-S , 14-H ) :   0.9099

Dispersion correction           -0.010977690
FINAL SINGLE POINT ENERGY      -555.907086297745

DIPOLE MOMENT
-------------

Method             : SCF
Type of density    : Electron Density
Multiplicity       :   1
Irrep              :   0
Energy             :  -555.9591123731960352 Eh
Relativity type    :
Basis              : AO
                                X                 Y                 Z
Electronic contribution:     -9.499786573      -1.036070032      -0.091474875
Nuclear contribution   :      9.973174180       1.441056906       0.207946827
                        -----------------------------------------
Total Dipole Moment    :      0.473387607       0.404986874       0.116471951
                        -----------------------------------------
Magnitude (a.u.)       :      0.633779070
Magnitude (Debye)      :      1.610938373

Rotational constants in cm-1:             0.373970             0.051368             0.049907
Rotational constants in MHz :         11211.328952          1539.985478          1496.184333

                             ****ORCA TERMINATED NORMALLY****
TOTAL RUN TIME: 0 days 0 hours 0 minutes 5 seconds 404 msec
