                         Program Version 6.0.0  -   RELEASE  -
|  1> ! r2scan-3c def2/J RI DEFGRID2 scfconv6 printgap
|  2> %output
|  3>     printlevel normal
|  4> end
|  5> * xyz 0 1
|  6> C -2.2042252962 0.8558948335 0.7517641832
|  7> C -1.8007168049 0.4074840981 -0.6476164
|  8> C -0.9099960265 -0.8412508539 -0.6102798459
|  9> C 0.40626206 -0.5504828283 0.0631272642
| 10> O 0.7825251037 -1.0573091603 1.1002040428
| 11> O 1.11420992 0.3380848118 -0.6226518385
| 12> C 2.3910976563 0.748170981 -0.1258116089
| 13> H -2.7624575327 0.0714168758 1.2572808832
| 14> H -1.3252400518 1.0828567296 1.3523469063
| 15> H -2.8262766176 1.7454968322 0.700893208
| 16> H -1.2627571425 1.2099596056 -1.1541975091
| 17> H -2.6952733709 0.1767255227 -1.2268764335
| 18> H -0.7006964297 -1.1665296892 -1.629683823
| 19> H -1.4011726528 -1.6452861207 -0.0625683314
| 20> H 2.3484424496 1.8195962915 0.0620039523
| 21> H 3.1293368276 0.5282291212 -0.8945042137
| 22> H 2.6222101678 0.2082375786 0.7931475392
| 23> *
| 24>
| 25>                          ****END OF INPUT****

CARTESIAN COORDINATES (ANGSTROEM)
---------------------------------
  C     -2.204225    0.855895    0.751764
  C     -1.800717    0.407484   -0.647616
  C     -0.909996   -0.841251   -0.610280
  C      0.406262   -0.550483    0.063127
  O      0.782525   -1.057309    1.100204
  O      1.114210    0.338085   -0.622652
  C      2.391098    0.748171   -0.125812
  H     -2.762458    0.071417    1.257281
  H     -1.325240    1.082857    1.352347
  H     -2.826277    1.745497    0.700893
  H     -1.262757    1.209960   -1.154198
  H     -2.695273    0.176726   -1.226876
  H     -0.700696   -1.166530   -1.629684
  H     -1.401173   -1.645286   -0.062568
  H      2.348442    1.819596    0.062004
  H      3.129337    0.528229   -0.894504
  H      2.622210    0.208238    0.793148

 Total Charge           Charge          ....    0
 Multiplicity           Mult            ....    1
 Number of Electrons    NEL             ....   56
 Basis Dimension        Dim             ....  193

ORBITAL ENERGIES
----------------

  NO   OCC          E(Eh)            E(eV)
   0   2.0000     -18.999601      -517.0054
   1   2.0000     -18.928517      -515.0711
   2   2.0000     -10.153217      -276.2831
   3   2.0000     -10.085706      -274.4460
   4   2.0000     -10.041968      -273.2558
   5   2.0000     -10.037715      -273.1401
   6   2.0000     -10.020079      -272.6602
   7   2.0000      -1.073199       -29.2032
   8   2.0000      -0.976110       -26.5613
   9   2.0000      -0.774556       -21.0767
  10   2.0000      -0.710025       -19.3208
  11   2.0000      -0.661112       -17.9898
  12   2.0000      -0.575121       -15.6498
  13   2.0000      -0.533219       -14.5096
  14   2.0000      -0.471205       -12.8221
  15   2.0000      -0.456649       -12.4261
  16   2.0000      -0.440534       -11.9875
  17   2.0000      -0.418728       -11.3942
  18   2.0000      -0.416726       -11.3397
  19   2.0000      -0.382757       -10.4153
  20   2.0000      -0.363541        -9.8924
  21   2.0000      -0.361831        -9.8459
  22   2.0000      -0.328385        -8.9358
  23   2.0000      -0.314115        -8.5475
  24   2.0000      -0.313360        -8.5270
  25   2.0000      -0.310582        -8.4514
  26   2.0000      -0.271997        -7.4014
  27   2.0000      -0.234829        -6.3900
  28   0.0000      -0.015554        -0.4233
  29   0.0000       0.063887         1.7385
  30   0.0000       0.094453         2.5702
  31   0.0000       0.113894         3.0992
  32   0.0000       0.122882         3.3438

MULLIKEN ATOMIC CHARGES
-----------------------
   0 C :   -0.479499
   1 C :   -0.230974
   2 C :   -0.305261
   3 C :    0.375876
   4 O :   -0.430365
   5 O :   -0.192329
   6 C :   -0.300114
   7 H :    0.149058
   8 H :    0.155173
   9 H :    0.147395
  10 H :    0.152564
  11 H :    0.145993
  12 H :    0.157782
  13 H :    0.167474
  14 H :    0.147934
  15 H :    0.148065
  16 H :    0.191226
Sum of atomic charges:   -0.0000000

LOEWDIN ATOMIC CHARGES
----------------------
   0 C :   -0.414746
   1 C :   -0.292713
   2 C :   -0.229821
   3 C :    0.351370
   4 O :   -0.437207
   5 O :   -0.606097
   6 C :   -0.046051
   7 H :    0.153413
   8 H :    0.156437
   9 H :    0.151699
  10 H :    0.163408
  11 H :    0.153410
  12 H :    0.179431
  13 H :    0.177372
  14 H :    0.172620
  15 H :    0.173471
  16 H :    0.194004

  Mayer bond orders larger than 0.100000
B(  0-C ,  1-C ) :   0.9139 B(  0-C ,  7-H ) :   0.9781 B(  0-C ,  8-H ) :   0.9703
B(  0-C ,  9-H ) :   0.9703 B(  1-C ,  2-C ) :   0.8817 B(  1-C , 10-H ) :   0.9741
B(  1-C , 11-H ) :   0.9642 B(  2-C ,  3-C ) :   0.9716 B(  2-C , 12-H ) :   0.9450
B(  2-C , 13-H ) :   0.9995 B(  3-C ,  4-O ) :   1.8583 B(  3-C ,  5-O ) :   1.0383
B(  5-O ,  6-C ) :   0.8400 B(  6-C , 14-H ) :   0.9635 B(  6-C , 15-H ) :   0.9656
B(  6-C , 16-H ) :   0.9681

Dispersion correction           -0.004161583
FINAL SINGLE POINT ENERGY      -346.929841111041

DIPOLE MOMENT
-------------

Method             : SCF
Type of density    : Electron Density
Multiplicity       :   1
Irrep              :   0
Energy             :  -346.9364826528259869 Eh
Relativity type    :
Basis              : AO
                                X                 Y                 Z
Electronic contribution:      4.503318971      -3.226988494       0.092529243
Nuclear contribution   :     -4.544397153       3.770809783      -0.745477895
                        -----------------------------------------
Total Dipole Moment    :     -0.041078182       0.543821289      -0.652948652
                        -----------------------------------------
Magnitude (a.u.)       :      0.850747291
Magnitude (Debye)      :      2.162427764

Rotational constants in cm-1:             0.146029             0.055071             0.051398
Rotational constants in MHz :          4377.850605          1651.001588          1540.875716

                             ****ORCA TERMINATED NORMALLY****
TOTAL RUN TIME: 0 days 0 hours 0 minutes 23 seconds 296 msec
