                         Program Version 6.0.0  -   RELEASE  -
|  1> ! r2scan-3c def2/J RI DEFGRID2 scfconv6 printgap
|  2> %output
|  3>     printlevel normal
|  4> end
|  5> %cpcm
|  6>     smd true
|  7>     smdsolvent "water"
|  8> end
|  9> * xyz 0 1
| 10> C -2.2042252962 0.8558948335 0.7517641832
| 11> C -1.8007168049 0.4074840981 -0.6476164
| 12> C -0.9099960265 -0.8412508539 -0.6102798459
| 13> C 0.40626206 -0.5504828283 0.0631272642
| 14> O 0.7825251037 -1.0573091603 1.1002040428
| 15> O 1.11420992 0.3380848118 -0.6226518385
| 16> C 2.3910976563 0.748170981 -0.1258116089
| 17> H -2.7624575327 0.0714168758 1.2572808832
| 18> H -1.3252400518 1.0828567296 1.3523469063
| 19> H -2.8262766176 1.7454968322 0.700893208
| 20> H -1.2627571425 1.2099596056 -1.1541975091
| 21> H -2.6952733709 0.1767255227 -1.2268764335
| 22> H -0.7006964297 -1.1665296892 -1.629683823
| 23> H -1.4011726528 -1.6452861207 -0.0625683314
| 24> H 2.3484424496 1.8195962915 0.0620039523
| 25> H 3.1293368276 0.5282291212 -0.8945042137
| 26> H 2.6222101678 0.2082375786 0.7931475392
| 27> *
| 28>
| 29>                          ****END OF INPUT****

CARTESIAN COORDINATES (ANGSTROEM)
---------------------------------
  C     -2.204225    0.855895    0.751764
  C     -1.800717    0.407484   -0.647616
  C     -0.909996   -0.841251   -0.610280
  C      0.406262   -0.550483    0.063127
  O      0.782525   -1.057309    1.100204
  O      1.114210    0.338085   -0.622652
  C      2.391098    0.748171   -0.125812
  H     -2.762458    0.071417    1.257281
  H     -1.325240    1.082857    1.352347
  H     -2.826277    1.745497    0.700893
  H     -1.262757    1.209960   -1.154198
  H     -2.695273    0.176726   -1.226876
  H     -0.700696   -1.166530   -1.629684
  H     -1.401173   -1.645286   -0.062568
  H      2.348442    1.819596    0.062004
  H      3.129337    0.528229   -0.894504
  H      2.622210    0.208238    0.793148

 Total Charge           Charge          ....    0
 Multiplicity           Mult            ....    1
 Number of Electrons    NEL             ....   56
 Basis Dimension        Dim             ....  193

ORBITAL ENERGIES
----------------

  NO   OCC          E(Eh)            E(eV)
   0   2.0000     -19.003996      -517.1250
   1   2.0000     -18.943307      -515.4736
   2   2.0000     -10.162795      -276.5437
   3   2.0000     -10.075044      -274.1559
   4   2.0000     -10.035721      -273.0858
   5   2.0000     -10.028939      -272.9013
   6   2.0000     -10.011704      -272.4323
   7   2.0000      -1.079094       -29.3636
   8   2.0000      -0.988926       -26.9100
   9   2.0000      -0.768766       -20.9192
  10   2.0000      -0.704470       -19.1696
  11   2.0000      -0.654149       -17.8003
  12   2.0000      -0.568569       -15.4716
  13   2.0000      -0.530360       -14.4318
  14   2.0000      -0.469314       -12.7707
  15   2.0000      -0.457678       -12.4541
  16   2.0000      -0.450883       -12.2692
  17   2.0000      -0.412517       -11.2252
  18   2.0000      -0.408610       -11.1188
  19   2.0000      -0.381721       -10.3872
  20   2.0000      -0.362125        -9.8539
  21   2.0000      -0.356285        -9.6950
  22   2.0000      -0.323802        -8.8111
  23   2.0000      -0.313871        -8.5409
  24   2.0000      -0.307416        -8.3652
  25   2.0000      -0.302663        -8.2359
  26   2.0000      -0.277510        -7.5514
  27   2.0000      -0.249415        -6.7869
  28   0.0000      -0.022818        -0.6209
  29   0.0000       0.070120         1.9081
  30   0.0000       0.102594         2.7917
  31   0.0000       0.123287         3.3548
  32   0.0000       0.130678         3.5559

MULLIKEN ATOMIC CHARGES
-----------------------
   0 C :   -0.527990
   1 C :   -0.222677
   2 C :   -0.326350
   3 C :    0.408287
   4 O :   -0.515395
   5 O :   -0.207135
   6 C :   -0.313705
   7 H :    0.163137
   8 H :    0.161200
   9 H :    0.161835
  10 H :    0.156211
  11 H :    0.163602
  12 H :    0.186414
  13 H :    0.176852
  14 H :    0.175594
  15 H :    0.174942
  16 H :    0.185178
Sum of atomic charges:   -0.0000000

LOEWDIN ATOMIC CHARGES
----------------------
   0 C :   -0.423194
   1 C :   -0.289291
   2 C :   -0.228271
   3 C :    0.360128
   4 O :   -0.498888
   5 O :   -0.606613
   6 C :   -0.040264
   7 H :    0.156150
   8 H :    0.156053
   9 H :    0.156399
  10 H :    0.164499
  11 H :    0.160392
  12 H :    0.190591
  13 H :    0.181191
  14 H :    0.184163
  15 H :    0.184671
  16 H :    0.192283

  Mayer bond orders larger than 0.100000
B(  0-C ,  1-C ) :   0.8973 B(  0-C ,  7-H ) :   0.9772 B(  0-C ,  8-H ) :   0.9696
B(  0-C ,  9-H ) :   0.9663 B(  1-C ,  2-C ) :   0.8738 B(  1-C , 10-H ) :   0.9732
B(  1-C , 11-H ) :   0.9613 B(  2-C ,  3-C ) :   0.9717 B(  2-C , 12-H ) :   0.9360
B(  2-C , 13-H ) :   0.9944 B(  3-C ,  4-O ) :   1.7879 B(  3-C ,  5-O ) :   1.0676
B(  5-O ,  6-C ) :   0.8276 B(  6-C , 14-H ) :   0.9543 B(  6-C , 15-H ) :   0.9562
B(  6-C , 16-H ) :   0.9648

Dispersion correction           -0.004161583
FINAL SINGLE POINT ENERGY      -346.934316835836

DIPOLE MOMENT
-------------

Method             : SCF
Type of density    : Electron Density
Multiplicity       :   1
Irrep              :   0
Energy             :  -346.9409583776209729 Eh
Relativity type    :
Basis              : AO
                                X                 Y                 Z
Electronic contribution:      4.465114191      -3.028712954      -0.216877192
Nuclear contribution   :     -4.544397153       3.770809783      -0.745477895
                        -----------------------------------------
Total Dipole Moment    :     -0.079282962       0.742096830      -0.962355086
                        -----------------------------------------
Magnitude (a.u.)       :      1.217834474
Magnitude (Debye)      :      3.095489230

Rotational constants in cm-1:             0.146029             0.055071             0.051398
Rotational constants in MHz :          4377.850605          1651.001588          1540.875716

                             ****ORCA TERMINATED NORMALLY****
TOTAL RUN TIME: 0 days 0 hours 0 minutes 33 seconds 615 msec
