                         Program Version 6.0.0  -   RELEASE  -
|  1> ! r2scan-3c def2/J RI DEFGRID2 scfconv6 printgap
|  2> %output
|  3>     printlevel normal
|  4> end
|  5> * xyz 0 1
|  6> C 1.4617430931 -1.2214569216 -0.6592273087
|  7> C 1.0768243877 -0.2377461457 0.4444816945
|  8> C 1.2784547806 1.1997531823 -0.0299193423
|  9> C -0.3509912097 -0.4788013944 0.9604104638
| 10> C -1.4728960108 -0.3729304903 -0.0772857294
| 11> O -1.7401288029 0.9382953599 -0.5298623237
| 12> H 1.2451917613 -2.2436866989 -0.3575774602
| 13> H 2.5252261163 -1.1436021912 -0.8723926987
| 14> H 0.9198303179 -1.0048791929 -1.5762516378
| 15> H 1.7463246258 -0.4119319761 1.2963472093
| 16> H 0.6004409725 1.4280737691 -0.8480208045
| 17> H 2.2996202298 1.3410826763 -0.3765167778
| 18> H 1.0930054352 1.900864095 0.7807352954
| 19> H -0.5540521329 0.2292409724 1.7681209319
| 20> H -0.399066609 -1.4847747001 1.3823480714
| 21> H -1.2241599671 -0.9425266982 -0.973934208
| 22> H -2.3883754505 -0.8046096409 0.3526183681
| 23> H -1.9930935525 1.4840473867 0.2271220535
| 24> *
| 25>
| 26>                          ****END OF INPUT****

CARTESIAN COORDINATES (ANGSTROEM)
---------------------------------
  C      1.461743   -1.221457   -0.659227
  C      1.076824   -0.237746    0.444482
  C      1.278455    1.199753   -0.029919
  C     -0.350991   -0.478801    0.960410
  C     -1.472896   -0.372930   -0.077286
  O     -1.740129    0.938295   -0.529862
  H      1.245192   -2.243687   -0.357577
  H      2.525226   -1.143602   -0.872393
  H      0.919830   -1.004879   -1.576252
  H      1.746325   -0.411932    1.296347
  H      0.600441    1.428074   -0.848021
  H      2.299620    1.341083   -0.376517
  H      1.093005    1.900864    0.780735
  H     -0.554052    0.229241    1.768121
  H     -0.399067   -1.484775    1.382348
  H     -1.224160   -0.942527   -0.973934
  H     -2.388375   -0.804610    0.352618
  H     -1.993094    1.484047    0.227122

 Total Charge           Charge          ....    0
 Multiplicity           Mult            ....    1
 Number of Electrons    NEL             ....   50
 Basis Dimension        Dim             ....  179

ORBITAL ENERGIES
----------------

  NO   OCC          E(Eh)            E(eV)
   0   2.0000     -18.946281      -515.5545
   1   2.0000     -10.073343      -274.1096
   2   2.0000     -10.032438      -272.9965
   3   2.0000     -10.026659      -272.8393
   4   2.0000     -10.013952      -272.4935
   5   2.0000     -10.005982      -272.2766
   6   2.0000      -0.983798       -26.7705
   7   2.0000      -0.773786       -21.0558
   8   2.0000      -0.690141       -18.7797
   9   2.0000      -0.645961       -17.5775
  10   2.0000      -0.600979       -16.3535
  11   2.0000      -0.521920       -14.2022
  12   2.0000      -0.462713       -12.5911
  13   2.0000      -0.439303       -11.9540
  14   2.0000      -0.423711       -11.5298
  15   2.0000      -0.393552       -10.7091
  16   2.0000      -0.376008       -10.2317
  17   2.0000      -0.372982       -10.1493
  18   2.0000      -0.346507        -9.4289
  19   2.0000      -0.327644        -8.9156
  20   2.0000      -0.309678        -8.4268
  21   2.0000      -0.299499        -8.1498
  22   2.0000      -0.294146        -8.0041
  23   2.0000      -0.278411        -7.5760
  24   2.0000      -0.228843        -6.2271
  25   0.0000       0.059487         1.6187
  26   0.0000       0.092630         2.5206
  27   0.0000       0.115789         3.1508
  28   0.0000       0.119188         3.2433
  29   0.0000       0.130844         3.5604

MULLIKEN ATOMIC CHARGES
-----------------------
   0 C :   -0.517838
   1 C :    0.004590
   2 C :   -0.517089
   3 C :   -0.272481
   4 C :   -0.208249
   5 O :   -0.407791
   6 H :    0.147289
   7 H :    0.148575
   8 H :    0.155395
   9 H :    0.146641
  10 H :    0.190975
  11 H :    0.137906
  12 H :    0.139105
  13 H :    0.138300
  14 H :    0.147313
  15 H :    0.145136
  16 H :    0.129135
  17 H :    0.293086
Sum of atomic charges:    0.0000000

LOEWDIN ATOMIC CHARGES
----------------------
   0 C :   -0.418972
   1 C :   -0.245216
   2 C :   -0.418582
   3 C :   -0.298336
   4 C :   -0.001046
   5 O :   -0.623642
   6 H :    0.152921
   7 H :    0.154776
   8 H :    0.153174
   9 H :    0.154049
  10 H :    0.171066
  11 H :    0.149461
  12 H :    0.151194
  13 H :    0.158147
  14 H :    0.162970
  15 H :    0.177154
  16 H :    0.156971
  17 H :    0.263909

  Mayer bond orders larger than 0.100000
B(  0-C ,  1-C ) :   0.9061 B(  0-C ,  6-H ) :   0.9764 B(  0-C ,  7-H ) :   0.9690
B(  0-C ,  8-H ) :   0.9801 B(  1-C ,  2-C ) :   0.9131 B(  1-C ,  3-C ) :   0.8868
B(  1-C ,  9-H ) :   0.9654 B(  2-C , 10-H ) :   0.9733 B(  2-C , 11-H ) :   0.9707
B(  2-C , 12-H ) :   0.9766 B(  3-C ,  4-C ) :   0.9109 B(  3-C , 13-H ) :   0.9798
B(  3-C , 14-H ) :   0.9659 B(  4-C ,  5-O ) :   0.9555 B(  4-C , 15-H ) :   0.9814
B(  4-C , 16-H ) :   0.9697 B(  5-O , 17-H ) :   0.8965

Dispersion correction           -0.004511260
FINAL SINGLE POINT ENERGY      -272.895991025356

DIPOLE MOMENT
-------------

Method             : SCF
Type of density    : Electron Density
Multiplicity       :   1
Irrep              :   0
Energy             :  -272.9015096387363997 Eh
Relativity type    :
Basis              : AO
                                X                 Y                 Z
Electronic contribution:     -3.608104123       1.363665017      -0.147206533
Nuclear contribution   :      3.605705548      -1.536580364       0.745105177
                        -----------------------------------------
Total Dipole Moment    :     -0.002398574      -0.172915347       0.597898644
                        -----------------------------------------
Magnitude (a.u.)       :      0.622405221
Magnitude (Debye)      :      1.582028346

Rotational constants in cm-1:             0.159976             0.081156             0.069791
Rotational constants in MHz :          4795.953701          2432.982606          2092.267867

                             ****ORCA TERMINATED NORMALLY****
TOTAL RUN TIME: 0 days 0 hours 0 minutes 24 seconds 922 msec
