                         Program Version 6.0.0  -   RELEASE  -
|  1> ! r2scan-3c def2/J RI DEFGRID2 scfconv6 printgap
|  2> %output
|  3>     printlevel normal
|  4> end
|  5> %cpcm
|  6>     smd true
|  7>     smdsolvent "water"
|  8> end
|  9> * xyz 0 1
| 10> C 1.4617430931 -1.2214569216 -0.6592273087
| 11> C 1.0768243877 -0.2377461457 0.4444816945
| 12> C 1.2784547806 1.1997531823 -0.0299193423
| 13> C -0.3509912097 -0.4788013944 0.9604104638
| 14> C -1.4728960108 -0.3729304903 -0.0772857294
| 15> O -1.7401288029 0.9382953599 -0.5298623237
| 16> H 1.2451917613 -2.2436866989 -0.3575774602
| 17> H 2.5252261163 -1.1436021912 -0.8723926987
| 18> H 0.9198303179 -1.0048791929 -1.5762516378
| 19> H 1.7463246258 -0.4119319761 1.2963472093
| 20> H 0.6004409725 1.4280737691 -0.8480208045
| 21> H 2.2996202298 1.3410826763 -0.3765167778
| 22> H 1.0930054352 1.900864095 0.7807352954
| 23> H -0.5540521329 0.2292409724 1.7681209319
| 24> H -0.399066609 -1.4847747001 1.3823480714
| 25> H -1.2241599671 -0.9425266982 -0.973934208
| 26> H -2.3883754505 -0.8046096409 0.3526183681
| 27> H -1.9930935525 1.4840473867 0.2271220535
| 28> *
| 29>
| 30>                          ****END OF INPUT****

CARTESIAN COORDINATES (ANGSTROEM)
---------------------------------
  C      1.461743   -1.221457   -0.659227
  C      1.076824   -0.237746    0.444482
  C      1.278455    1.199753   -0.029919
  C     -0.350991   -0.478801    0.960410
  C     -1.472896   -0.372930   -0.077286
  O     -1.740129    0.938295   -0.529862
  H      1.245192   -2.243687   -0.357577
  H      2.525226   -1.143602   -0.872393
  H      0.919830   -1.004879   -1.576252
  H      1.746325   -0.411932    1.296347
  H      0.600441    1.428074   -0.848021
  H      2.299620    1.341083   -0.376517
  H      1.093005    1.900864    0.780735
  H     -0.554052    0.229241    1.768121
  H     -0.399067   -1.484775    1.382348
  H     -1.224160   -0.942527   -0.973934
  H     -2.388375   -0.804610    0.352618
  H     -1.993094    1.484047    0.227122

 Total Charge           Charge          ....    0
 Multiplicity           Mult            ....    1
 Number of Electrons    NEL             ....   50
 Basis Dimension        Dim             ....  179

ORBITAL ENERGIES
----------------

  NO   OCC          E(Eh)            E(eV)
   0   2.0000     -18.946615      -515.5636
   1   2.0000     -10.065541      -273.8973
   2   2.0000     -10.024503      -272.7806
   3   2.0000     -10.014960      -272.5209
   4   2.0000     -10.005381      -272.2603
   5   2.0000     -10.002385      -272.1787
   6   2.0000      -0.983045       -26.7500
   7   2.0000      -0.765718       -20.8363
   8   2.0000      -0.682162       -18.5626
   9   2.0000      -0.640149       -17.4193
  10   2.0000      -0.593974       -16.1629
  11   2.0000      -0.515069       -14.0157
  12   2.0000      -0.456603       -12.4248
  13   2.0000      -0.431656       -11.7460
  14   2.0000      -0.417066       -11.3490
  15   2.0000      -0.386827       -10.5261
  16   2.0000      -0.370583       -10.0841
  17   2.0000      -0.367021        -9.9871
  18   2.0000      -0.342814        -9.3284
  19   2.0000      -0.319164        -8.6849
  20   2.0000      -0.306960        -8.3528
  21   2.0000      -0.294023        -8.0008
  22   2.0000      -0.286400        -7.7933
  23   2.0000      -0.272254        -7.4084
  24   2.0000      -0.228567        -6.2196
  25   0.0000       0.074227         2.0198
  26   0.0000       0.104261         2.8371
  27   0.0000       0.126535         3.4432
  28   0.0000       0.128829         3.5056
  29   0.0000       0.137929         3.7532

MULLIKEN ATOMIC CHARGES
-----------------------
   0 C :   -0.555098
   1 C :    0.011038
   2 C :   -0.553583
   3 C :   -0.283263
   4 C :   -0.205977
   5 O :   -0.489577
   6 H :    0.159507
   7 H :    0.158425
   8 H :    0.163114
   9 H :    0.154665
  10 H :    0.174965
  11 H :    0.150078
  12 H :    0.156518
  13 H :    0.156926
  14 H :    0.159756
  15 H :    0.155949
  16 H :    0.138839
  17 H :    0.347719
Sum of atomic charges:    0.0000000

LOEWDIN ATOMIC CHARGES
----------------------
   0 C :   -0.427088
   1 C :   -0.243660
   2 C :   -0.427032
   3 C :   -0.296276
   4 C :   -0.001554
   5 O :   -0.658442
   6 H :    0.156739
   7 H :    0.156093
   8 H :    0.154756
   9 H :    0.157078
  10 H :    0.163960
  11 H :    0.151717
  12 H :    0.155669
  13 H :    0.165388
  14 H :    0.167979
  15 H :    0.179388
  16 H :    0.163319
  17 H :    0.281967

  Mayer bond orders larger than 0.100000
B(  0-C ,  1-C ) :   0.9020 B(  0-C ,  6-H ) :   0.9730 B(  0-C ,  7-H ) :   0.9678
B(  0-C ,  8-H ) :   0.9777 B(  1-C ,  2-C ) :   0.9048 B(  1-C ,  3-C ) :   0.8895
B(  1-C ,  9-H ) :   0.9644 B(  2-C , 10-H ) :   0.9778 B(  2-C , 11-H ) :   0.9707
B(  2-C , 12-H ) :   0.9727 B(  3-C ,  4-C ) :   0.9164 B(  3-C , 13-H ) :   0.9764
B(  3-C , 14-H ) :   0.9629 B(  4-C ,  5-O ) :   0.9436 B(  4-C , 15-H ) :   0.9792
B(  4-C , 16-H ) :   0.9612 B(  5-O , 17-H ) :   0.8692

Dispersion correction           -0.004511260
FINAL SINGLE POINT ENERGY      -272.901299646378

DIPOLE MOMENT
-------------

Method             : SCF
Type of density    : Electron Density
Multiplicity       :   1
Irrep              :   0
Energy             :  -272.9068182597590067 Eh
Relativity type    :
Basis              : AO
                                X                 Y                 Z
Electronic contribution:     -3.614768193       1.274511133       0.142600332
Nuclear contribution   :      3.605705548      -1.536580364       0.745105177
                        -----------------------------------------
Total Dipole Moment    :     -0.009062645      -0.262069231       0.887705509
                        -----------------------------------------
Magnitude (a.u.)       :      0.925625996
Magnitude (Debye)      :      2.352754304

Rotational constants in cm-1:             0.159976             0.081156             0.069791
Rotational constants in MHz :          4795.953701          2432.982606          2092.267867

                             ****ORCA TERMINATED NORMALLY****
TOTAL RUN TIME: 0 days 0 hours 0 minutes 28 seconds 123 msec
