                         Program Version 6.0.0  -   RELEASE  -
|  1> ! r2scan-3c def2/J RI DEFGRID2 scfconv6 printgap
|  2> %output
|  3>     printlevel normal
|  4> end
|  5> * xyz 0 1
|  6> C 0.2205883197 -3.376903423 0.1200535564
|  7> C 0.6808396032 -1.9552478261 0.0656985159
|  8> C 2.0226985447 -1.5891197357 -0.0788820931
|  9> N 2.4148693775 -0.3239622483 -0.1231848186
| 10> C 1.4817218642 0.631897493 -0.0267611896
| 11> N 0.1640206685 0.3847892674 0.107065386
| 12> C -0.2028641808 -0.8808093054 0.1541992701
| 13> O -1.5444064176 -1.1248052138 0.2667366055
| 14> C -2.2955936571 -0.0004452733 0.6192213235
| 15> O -2.4766835762 0.2530505037 1.7960743827
| 16> N -2.80628363 0.6671763892 -0.4061481769
| 17> C -3.5719213833 1.8735009463 -0.169026093
| 18> C -2.543946221 0.3528842647 -1.7937559511
| 19> N 1.8684557969 1.9116112747 -0.0801190462
| 20> C 3.2518580767 2.2815199261 -0.2548056321
| 21> C 0.9276365388 2.998425284 0.0399444771
| 22> C 3.0927853786 -2.6248414518 -0.1924162656
| 23> H 0.4178989918 -3.8799318073 -0.8257116096
| 24> H 0.7447523101 -3.9167702892 0.9068122014
| 25> H -0.8469343085 -3.4082374053 0.3209629119
| 26> H -3.0733233748 2.7195414657 -0.6414621261
| 27> H -3.6379334892 2.0380010278 0.9035091815
| 28> H -4.5726190943 1.7607190951 -0.5847949592
| 29> H -2.2420868575 -0.6862967482 -1.8938207257
| 30> H -1.7500848988 0.9953619924 -2.1799194209
| 31> H -3.4555022627 0.5196449123 -2.3641653596
| 32> H 3.8424359868 1.3776404141 -0.3645713499
| 33> H 3.5997728583 2.8443105866 0.6133093406
| 34> H 3.3557883241 2.9031131873 -1.1455091259
| 35> H -0.0459177347 2.594452192 0.3029501363
| 36> H 0.858753101 3.5425981981 -0.9043255161
| 37> H 1.2600215537 3.6839114598 0.8206346999
| 38> H 4.0538476497 -2.139211581 -0.3240085657
| 39> H 3.1142367606 -3.2360200748 0.7073688675
| 40> H 2.891057314 -3.2777526375 -1.038414597
| 41> *
| 42>
| 43>                          ****END OF INPUT****

CARTESIAN COORDINATES (ANGSTROEM)
---------------------------------
  C      0.220588   -3.376903    0.120054
  C      0.680840   -1.955248    0.065699
  C      2.022699   -1.589120   -0.078882
  N      2.414869   -0.323962   -0.123185
  C      1.481722    0.631897   -0.026761
  N      0.164021    0.384789    0.107065
  C     -0.202864   -0.880809    0.154199
  O     -1.544406   -1.124805    0.266737
  C     -2.295594   -0.000445    0.619221
  O     -2.476684    0.253051    1.796074
  N     -2.806284    0.667176   -0.406148
  C     -3.571921    1.873501   -0.169026
  C     -2.543946    0.352884   -1.793756
  N      1.868456    1.911611   -0.080119
  C      3.251858    2.281520   -0.254806
  C      0.927637    2.998425    0.039944
  C      3.092785   -2.624841   -0.192416
  H      0.417899   -3.879932   -0.825712
  H      0.744752   -3.916770    0.906812
  H     -0.846934   -3.408237    0.320963
  H     -3.073323    2.719541   -0.641462
  H     -3.637933    2.038001    0.903509
  H     -4.572619    1.760719   -0.584795
  H     -2.242087   -0.686297   -1.893821
  H     -1.750085    0.995362   -2.179919
  H     -3.455502    0.519645   -2.364165
  H      3.842436    1.377640   -0.364571
  H      3.599773    2.844311    0.613309
  H      3.355788    2.903113   -1.145509
  H     -0.045918    2.594452    0.302950
  H      0.858753    3.542598   -0.904326
  H      1.260022    3.683911    0.820635
  H      4.053848   -2.139212   -0.324009
  H      3.114237   -3.236020    0.707369
  H      2.891057   -3.277753   -1.038415

 Total Charge           Charge          ....    0
 Multiplicity           Mult            ....    1
 Number of Electrons    NEL             ....  128
 Basis Dimension        Dim             ....  443

ORBITAL ENERGIES
----------------

  NO   OCC          E(Eh)            E(eV)
   0   2.0000     -18.996121      -516.9107
   1   2.0000     -18.910731      -514.5872
   2   2.0000     -14.203153      -386.4874
   3   2.0000     -14.188121      -386.0784
   4   2.0000     -14.143264      -384.8578
   5   2.0000     -14.134929      -384.6310
   6   2.0000     -10.168459      -276.6978
   7   2.0000     -10.129588      -275.6401
   8   2.0000     -10.123178      -275.4657
   9   2.0000     -10.076744      -274.2021
  10   2.0000     -10.069994      -274.0185
  11   2.0000     -10.066072      -273.9117
  12   2.0000     -10.057042      -273.6660
  13   2.0000     -10.054789      -273.6047
  14   2.0000     -10.031063      -272.9591
  15   2.0000     -10.025683      -272.8127
  16   2.0000     -10.025197      -272.7995
  17   2.0000      -1.076521       -29.2936
  18   2.0000      -0.985273       -26.8107
  19   2.0000      -0.965479       -26.2720
  20   2.0000      -0.917840       -24.9757
  21   2.0000      -0.896582       -24.3972
  22   2.0000      -0.846378       -23.0311
  23   2.0000      -0.772384       -21.0176
  24   2.0000      -0.709750       -19.3133
  25   2.0000      -0.699660       -19.0387
  26   2.0000      -0.692289       -18.8381
  27   2.0000      -0.686582       -18.6828
  28   2.0000      -0.676965       -18.4212
  29   2.0000      -0.630129       -17.1467
  30   2.0000      -0.603272       -16.4159
  31   2.0000      -0.557628       -15.1738
  32   2.0000      -0.541145       -14.7253
  33   2.0000      -0.513440       -13.9714
  34   2.0000      -0.500063       -13.6074
  35   2.0000      -0.472100       -12.8465
  36   2.0000      -0.456558       -12.4236
  37   2.0000      -0.455321       -12.3899
  38   2.0000      -0.447911       -12.1883
  39   2.0000      -0.428359       -11.6562
  40   2.0000      -0.419271       -11.4089
  41   2.0000      -0.411371       -11.1940
  42   2.0000      -0.395240       -10.7550
  43   2.0000      -0.386681       -10.5221
  44   2.0000      -0.382793       -10.4163
  45   2.0000      -0.381472       -10.3804
  46   2.0000      -0.377480       -10.2717
  47   2.0000      -0.376813       -10.2536
  48   2.0000      -0.372508       -10.1365
  49   2.0000      -0.370758       -10.0888
  50   2.0000      -0.360624        -9.8131
  51   2.0000      -0.359074        -9.7709
  52   2.0000      -0.353605        -9.6221
  53   2.0000      -0.352156        -9.5826
  54   2.0000      -0.343702        -9.3526
  55   2.0000      -0.335581        -9.1316
  56   2.0000      -0.321146        -8.7388
  57   2.0000      -0.274386        -7.4664
  58   2.0000      -0.265917        -7.2360
  59   2.0000      -0.253462        -6.8971
  60   2.0000      -0.228518        -6.2183
  61   2.0000      -0.221936        -6.0392
  62   2.0000      -0.209441        -5.6992
  63   2.0000      -0.180314        -4.9066
  64   0.0000      -0.037856        -1.0301
  65   0.0000      -0.007490        -0.2038
  66   0.0000       0.011216         0.3052
  67   0.0000       0.056102         1.5266
  68   0.0000       0.075717         2.0604

MULLIKEN ATOMIC CHARGES
-----------------------
   0 C :   -0.614130
   1 C :   -0.230070
   2 C :    0.276871
   3 N :   -0.241179
   4 C :    0.008581
   5 N :   -0.278592
   6 C :    0.447379
   7 O :   -0.128430
   8 C :    0.129108
   9 O :   -0.414809
  10 N :    0.149997
  11 C :   -0.405640
  12 C :   -0.416064
  13 N :    0.166667
  14 C :   -0.383785
  15 C :   -0.385631
  16 C :   -0.628770
  17 H :    0.161983
  18 H :    0.153314
  19 H :    0.182982
  20 H :    0.145772
  21 H :    0.203372
  22 H :    0.149875
  23 H :    0.180378
  24 H :    0.173009
  25 H :    0.142685
  26 H :    0.198813
  27 H :    0.143704
  28 H :    0.136728
  29 H :    0.196797
  30 H :    0.144241
  31 H :    0.138844
  32 H :    0.176809
  33 H :    0.164032
  34 H :    0.155156
Sum of atomic charges:   -0.0000000

LOEWDIN ATOMIC CHARGES
----------------------
   0 C :   -0.373206
   1 C :   -0.077288
   2 C :    0.176623
   3 N :   -0.577603
   4 C :    0.437177
   5 N :   -0.508887
   6 C :    0.402185
   7 O :   -0.459938
   8 C :    0.464668
   9 O :   -0.382259
  10 N :   -0.777139
  11 C :   -0.099705
  12 C :   -0.100092
  13 N :   -0.794038
  14 C :   -0.104594
  15 C :   -0.104517
  16 C :   -0.353867
  17 H :    0.160723
  18 H :    0.162440
  19 H :    0.178947
  20 H :    0.174614
  21 H :    0.209951
  22 H :    0.174372
  23 H :    0.199681
  24 H :    0.177180
  25 H :    0.176954
  26 H :    0.210918
  27 H :    0.171032
  28 H :    0.170225
  29 H :    0.210443
  30 H :    0.168713
  31 H :    0.173485
  32 H :    0.175335
  33 H :    0.169564
  34 H :    0.167901

  Mayer bond orders larger than 0.100000
B(  0-C ,  1-C ) :   0.7172 B(  0-C , 17-H ) :   0.9907 B(  0-C , 18-H ) :   0.9757
B(  0-C , 19-H ) :   0.9919 B(  1-C ,  2-C ) :   1.3440 B(  1-C ,  6-C ) :   1.3816
B(  2-C ,  3-N ) :   1.3523 B(  2-C , 16-C ) :   0.7752 B(  3-N ,  4-C ) :   1.3443
B(  4-C ,  5-N ) :   1.3767 B(  4-C , 13-N ) :   1.3289 B(  5-N ,  6-C ) :   1.2416
B(  6-C ,  7-O ) :   1.0708 B(  7-O ,  8-C ) :   0.9144 B(  8-C ,  9-O ) :   1.9480
B(  8-C , 10-N ) :   1.2838 B( 10-N , 11-C ) :   0.9163 B( 10-N , 12-C ) :   0.8992
B( 11-C , 20-H ) :   0.9481 B( 11-C , 21-H ) :   0.9540 B( 11-C , 22-H ) :   0.9623
B( 12-C , 23-H ) :   0.9611 B( 12-C , 24-H ) :   0.9520 B( 12-C , 25-H ) :   0.9553
B( 13-N , 14-C ) :   0.9128 B( 13-N , 15-C ) :   0.9072 B( 14-C , 26-H ) :   0.9534
B( 14-C , 27-H ) :   0.9580 B( 14-C , 28-H ) :   0.9555 B( 15-C , 29-H ) :   0.9557
B( 15-C , 30-H ) :   0.9594 B( 15-C , 31-H ) :   0.9535 B( 16-C , 32-H ) :   1.0131
B( 16-C , 33-H ) :   0.9750 B( 16-C , 34-H ) :   0.9677

Dispersion correction           -0.014259154
FINAL SINGLE POINT ENERGY      -799.295111924434

DIPOLE MOMENT
-------------

Method             : SCF
Type of density    : Electron Density
Multiplicity       :   1
Irrep              :   0
Energy             :  -799.3185337739384977 Eh
Relativity type    :
Basis              : AO
                                X                 Y                 Z
Electronic contribution:     -3.984140565      -3.586156189       5.692865297
Nuclear contribution   :      4.184467350       4.162412019      -7.187796093
                        -----------------------------------------
Total Dipole Moment    :      0.200326784       0.576255830      -1.494930795
                        -----------------------------------------
Magnitude (a.u.)       :      1.614626794
Magnitude (Debye)      :      4.104055157

Rotational constants in cm-1:             0.020093             0.012998             0.008904
Rotational constants in MHz :           602.378438           389.678986           266.939574

                             ****ORCA TERMINATED NORMALLY****
TOTAL RUN TIME: 0 days 0 hours 1 minutes 28 seconds 809 msec
