                         Program Version 6.0.0  -   RELEASE  -
|  1> ! r2scan-3c def2/J RI DEFGRID2 scfconv6 printgap
|  2> %output
|  3>     printlevel normal
|  4> end
|  5> %cpcm
|  6>     smd true
|  7>     smdsolvent "water"
|  8> end
|  9> * xyz 0 1
| 10> C 0.2205883197 -3.376903423 0.1200535564
| 11> C 0.6808396032 -1.9552478261 0.0656985159
| 12> C 2.0226985447 -1.5891197357 -0.0788820931
| 13> N 2.4148693775 -0.3239622483 -0.1231848186
| 14> C 1.4817218642 0.631897493 -0.0267611896
| 15> N 0.1640206685 0.3847892674 0.107065386
| 16> C -0.2028641808 -0.8808093054 0.1541992701
| 17> O -1.5444064176 -1.1248052138 0.2667366055
| 18> C -2.2955936571 -0.0004452733 0.6192213235
| 19> O -2.4766835762 0.2530505037 1.7960743827
| 20> N -2.80628363 0.6671763892 -0.4061481769
| 21> C -3.5719213833 1.8735009463 -0.169026093
| 22> C -2.543946221 0.3528842647 -1.7937559511
| 23> N 1.8684557969 1.9116112747 -0.0801190462
| 24> C 3.2518580767 2.2815199261 -0.2548056321
| 25> C 0.9276365388 2.998425284 0.0399444771
| 26> C 3.0927853786 -2.6248414518 -0.1924162656
| 27> H 0.4178989918 -3.8799318073 -0.8257116096
| 28> H 0.7447523101 -3.9167702892 0.9068122014
| 29> H -0.8469343085 -3.4082374053 0.3209629119
| 30> H -3.0733233748 2.7195414657 -0.6414621261
| 31> H -3.6379334892 2.0380010278 0.9035091815
| 32> H -4.5726190943 1.7607190951 -0.5847949592
| 33> H -2.2420868575 -0.6862967482 -1.8938207257
| 34> H -1.7500848988 0.9953619924 -2.1799194209
| 35> H -3.4555022627 0.5196449123 -2.3641653596
| 36> H 3.8424359868 1.3776404141 -0.3645713499
| 37> H 3.5997728583 2.8443105866 0.6133093406
| 38> H 3.3557883241 2.9031131873 -1.1455091259
| 39> H -0.0459177347 2.594452192 0.3029501363
| 40> H 0.858753101 3.5425981981 -0.9043255161
| 41> H 1.2600215537 3.6839114598 0.8206346999
| 42> H 4.0538476497 -2.139211581 -0.3240085657
| 43> H 3.1142367606 -3.2360200748 0.7073688675
| 44> H 2.891057314 -3.2777526375 -1.038414597
| 45> *
| 46>
| 47>                          ****END OF INPUT****

CARTESIAN COORDINATES (ANGSTROEM)
---------------------------------
  C      0.220588   -3.376903    0.120054
  C      0.680840   -1.955248    0.065699
  C      2.022699   -1.589120   -0.078882
  N      2.414869   -0.323962   -0.123185
  C      1.481722    0.631897   -0.026761
  N      0.164021    0.384789    0.107065
  C     -0.202864   -0.880809    0.154199
  O     -1.544406   -1.124805    0.266737
  C     -2.295594   -0.000445    0.619221
  O     -2.476684    0.253051    1.796074
  N     -2.806284    0.667176   -0.406148
  C     -3.571921    1.873501   -0.169026
  C     -2.543946    0.352884   -1.793756
  N      1.868456    1.911611   -0.080119
  C      3.251858    2.281520   -0.254806
  C      0.927637    2.998425    0.039944
  C      3.092785   -2.624841   -0.192416
  H      0.417899   -3.879932   -0.825712
  H      0.744752   -3.916770    0.906812
  H     -0.846934   -3.408237    0.320963
  H     -3.073323    2.719541   -0.641462
  H     -3.637933    2.038001    0.903509
  H     -4.572619    1.760719   -0.584795
  H     -2.242087   -0.686297   -1.893821
  H     -1.750085    0.995362   -2.179919
  H     -3.455502    0.519645   -2.364165
  H      3.842436    1.377640   -0.364571
  H      3.599773    2.844311    0.613309
  H      3.355788    2.903113   -1.145509
  H     -0.045918    2.594452    0.302950
  H      0.858753    3.542598   -0.904326
  H      1.260022    3.683911    0.820635
  H      4.053848   -2.139212   -0.324009
  H      3.114237   -3.236020    0.707369
  H      2.891057   -3.277753   -1.038415

 Total Charge           Charge          ....    0
 Multiplicity           Mult            ....    1
 Number of Electrons    NEL             ....  128
 Basis Dimension        Dim             ....  443

ORBITAL ENERGIES
----------------

  NO   OCC          E(Eh)            E(eV)
   0   2.0000     -19.007301      -517.2149
   1   2.0000     -18.934805      -515.2422
   2   2.0000     -14.208440      -386.6313
   3   2.0000     -14.187508      -386.0617
   4   2.0000     -14.148514      -385.0006
   5   2.0000     -14.140539      -384.7836
   6   2.0000     -10.185290      -277.1558
   7   2.0000     -10.136433      -275.8264
   8   2.0000     -10.127350      -275.5792
   9   2.0000     -10.081261      -274.3250
  10   2.0000     -10.056898      -273.6621
  11   2.0000     -10.055738      -273.6305
  12   2.0000     -10.047202      -273.3983
  13   2.0000     -10.046221      -273.3716
  14   2.0000     -10.034659      -273.0570
  15   2.0000     -10.020925      -272.6832
  16   2.0000     -10.019569      -272.6463
  17   2.0000      -1.090367       -29.6704
  18   2.0000      -1.004123       -27.3236
  19   2.0000      -0.970416       -26.4064
  20   2.0000      -0.922878       -25.1128
  21   2.0000      -0.897726       -24.4284
  22   2.0000      -0.852758       -23.2047
  23   2.0000      -0.774315       -21.0702
  24   2.0000      -0.708588       -19.2817
  25   2.0000      -0.693422       -18.8690
  26   2.0000      -0.688704       -18.7406
  27   2.0000      -0.682587       -18.5741
  28   2.0000      -0.673144       -18.3172
  29   2.0000      -0.629367       -17.1260
  30   2.0000      -0.607089       -16.5197
  31   2.0000      -0.557991       -15.1837
  32   2.0000      -0.544310       -14.8114
  33   2.0000      -0.509778       -13.8718
  34   2.0000      -0.501145       -13.6368
  35   2.0000      -0.474324       -12.9070
  36   2.0000      -0.462087       -12.5740
  37   2.0000      -0.454112       -12.3570
  38   2.0000      -0.445720       -12.1287
  39   2.0000      -0.426418       -11.6034
  40   2.0000      -0.416623       -11.3369
  41   2.0000      -0.413793       -11.2599
  42   2.0000      -0.398729       -10.8500
  43   2.0000      -0.392248       -10.6736
  44   2.0000      -0.382458       -10.4072
  45   2.0000      -0.372787       -10.1440
  46   2.0000      -0.371337       -10.1046
  47   2.0000      -0.369895       -10.0654
  48   2.0000      -0.368015       -10.0142
  49   2.0000      -0.360149        -9.8002
  50   2.0000      -0.359203        -9.7744
  51   2.0000      -0.354436        -9.6447
  52   2.0000      -0.349824        -9.5192
  53   2.0000      -0.349038        -9.4978
  54   2.0000      -0.342899        -9.3308
  55   2.0000      -0.338923        -9.2226
  56   2.0000      -0.333940        -9.0870
  57   2.0000      -0.281174        -7.6511
  58   2.0000      -0.271809        -7.3963
  59   2.0000      -0.266624        -7.2552
  60   2.0000      -0.244814        -6.6617
  61   2.0000      -0.230023        -6.2592
  62   2.0000      -0.216812        -5.8998
  63   2.0000      -0.181584        -4.9412
  64   0.0000      -0.043625        -1.1871
  65   0.0000      -0.012044        -0.3277
  66   0.0000      -0.003500        -0.0952
  67   0.0000       0.056318         1.5325
  68   0.0000       0.079097         2.1524

MULLIKEN ATOMIC CHARGES
-----------------------
   0 C :   -0.644730
   1 C :   -0.231363
   2 C :    0.271966
   3 N :   -0.278154
   4 C :    0.007496
   5 N :   -0.296526
   6 C :    0.446475
   7 O :   -0.141296
   8 C :    0.141204
   9 O :   -0.513924
  10 N :    0.152959
  11 C :   -0.419229
  12 C :   -0.438013
  13 N :    0.167113
  14 C :   -0.414252
  15 C :   -0.411047
  16 C :   -0.657467
  17 H :    0.185519
  18 H :    0.176058
  19 H :    0.183620
  20 H :    0.178367
  21 H :    0.191668
  22 H :    0.180673
  23 H :    0.193211
  24 H :    0.189600
  25 H :    0.174771
  26 H :    0.193197
  27 H :    0.167938
  28 H :    0.163987
  29 H :    0.191956
  30 H :    0.171030
  31 H :    0.163564
  32 H :    0.181267
  33 H :    0.189847
  34 H :    0.182515
Sum of atomic charges:   -0.0000000

LOEWDIN ATOMIC CHARGES
----------------------
   0 C :   -0.376607
   1 C :   -0.077790
   2 C :    0.178598
   3 N :   -0.600905
   4 C :    0.431400
   5 N :   -0.525263
   6 C :    0.395732
   7 O :   -0.469053
   8 C :    0.459819
   9 O :   -0.463817
  10 N :   -0.760963
  11 C :   -0.094171
  12 C :   -0.092707
  13 N :   -0.792237
  14 C :   -0.105113
  15 C :   -0.103165
  16 C :   -0.357015
  17 H :    0.170571
  18 H :    0.170130
  19 H :    0.177489
  20 H :    0.189289
  21 H :    0.204621
  22 H :    0.188284
  23 H :    0.203751
  24 H :    0.185805
  25 H :    0.191546
  26 H :    0.206700
  27 H :    0.180406
  28 H :    0.181139
  29 H :    0.207036
  30 H :    0.180404
  31 H :    0.182558
  32 H :    0.175530
  33 H :    0.179464
  34 H :    0.178533

  Mayer bond orders larger than 0.100000
B(  0-C ,  1-C ) :   0.7265 B(  0-C , 17-H ) :   0.9776 B(  0-C , 18-H ) :   0.9700
B(  0-C , 19-H ) :   0.9933 B(  1-C ,  2-C ) :   1.3415 B(  1-C ,  6-C ) :   1.3613
B(  2-C ,  3-N ) :   1.3604 B(  2-C , 16-C ) :   0.7907 B(  3-N ,  4-C ) :   1.3428
B(  4-C ,  5-N ) :   1.3707 B(  4-C , 13-N ) :   1.3503 B(  5-N ,  6-C ) :   1.2408
B(  6-C ,  7-O ) :   1.0522 B(  7-O ,  8-C ) :   0.9221 B(  8-C ,  9-O ) :   1.8602
B(  8-C , 10-N ) :   1.3474 B( 10-N , 11-C ) :   0.9095 B( 10-N , 12-C ) :   0.8921
B( 11-C , 20-H ) :   0.9378 B( 11-C , 21-H ) :   0.9542 B( 11-C , 22-H ) :   0.9511
B( 12-C , 23-H ) :   0.9544 B( 12-C , 24-H ) :   0.9409 B( 12-C , 25-H ) :   0.9467
B( 13-N , 14-C ) :   0.9001 B( 13-N , 15-C ) :   0.8951 B( 14-C , 26-H ) :   0.9555
B( 14-C , 27-H ) :   0.9508 B( 14-C , 28-H ) :   0.9489 B( 15-C , 29-H ) :   0.9558
B( 15-C , 30-H ) :   0.9500 B( 15-C , 31-H ) :   0.9488 B( 16-C , 32-H ) :   1.0082
B( 16-C , 33-H ) :   0.9623 B( 16-C , 34-H ) :   0.9559

Dispersion correction           -0.014259154
FINAL SINGLE POINT ENERGY      -799.307994765522

DIPOLE MOMENT
-------------

Method             : SCF
Type of density    : Electron Density
Multiplicity       :   1
Irrep              :   0
Energy             :  -799.3314166150261144 Eh
Relativity type    :
Basis              : AO
                                X                 Y                 Z
Electronic contribution:     -3.922260696      -3.344224282       4.864634867
Nuclear contribution   :      4.184467350       4.162412019      -7.187796093
                        -----------------------------------------
Total Dipole Moment    :      0.262206653       0.818187737      -2.323161226
                        -----------------------------------------
Magnitude (a.u.)       :      2.476946019
Magnitude (Debye)      :      6.295896438

Rotational constants in cm-1:             0.020093             0.012998             0.008904
Rotational constants in MHz :           602.378438           389.678986           266.939574

                             ****ORCA TERMINATED NORMALLY****
TOTAL RUN TIME: 0 days 0 hours 1 minutes 59 seconds 719 msec
