                         Program Version 6.0.0  -   RELEASE  -
|  1> ! r2scan-3c def2/J RI DEFGRID2 scfconv6 printgap
|  2> %output
|  3>     printlevel normal
|  4> end
|  5> * xyz 0 1
|  6> C 1.8762833627 1.2373735281 0.1093135653
|  7> C 1.1505117502 -0.1054597105 0.124757401
|  8> C 2.1034132428 -1.2243719135 -0.2896832394
|  9> C -0.0891689494 -0.0793586914 -0.8092351175
| 10> C -1.3483417418 -0.0588411789 0.018354489
| 11> O -1.9590983084 -1.0787347439 0.2803236704
| 12> C -1.7760375434 1.2846721977 0.5280178505
| 13> H 2.7095491211 1.2201602551 0.8076892867
| 14> H 2.2667686099 1.4395759889 -0.8852880151
| 15> H 1.2130851725 2.0503812792 0.3921836692
| 16> H 0.8128805427 -0.3133739743 1.1472559499
| 17> H 2.4504134829 -1.069002826 -1.308527875
| 18> H 1.6061916339 -2.1898980521 -0.2331522723
| 19> H 2.9677705389 -1.2464363916 0.3698050355
| 20> H -0.1014379156 -0.9801901095 -1.4231417209
| 21> H -0.0466676738 0.7947499399 -1.4558931766
| 22> H -2.6480118216 1.1866183908 1.1688224565
| 23> H -0.9600496033 1.7421992155 1.0813040812
| 24> H -2.0123387407 1.9285099909 -0.3156924954
| 25> *
| 26>
| 27>                          ****END OF INPUT****

CARTESIAN COORDINATES (ANGSTROEM)
---------------------------------
  C      1.876283    1.237374    0.109314
  C      1.150512   -0.105460    0.124757
  C      2.103413   -1.224372   -0.289683
  C     -0.089169   -0.079359   -0.809235
  C     -1.348342   -0.058841    0.018354
  O     -1.959098   -1.078735    0.280324
  C     -1.776038    1.284672    0.528018
  H      2.709549    1.220160    0.807689
  H      2.266769    1.439576   -0.885288
  H      1.213085    2.050381    0.392184
  H      0.812881   -0.313374    1.147256
  H      2.450413   -1.069003   -1.308528
  H      1.606192   -2.189898   -0.233152
  H      2.967771   -1.246436    0.369805
  H     -0.101438   -0.980190   -1.423142
  H     -0.046668    0.794750   -1.455893
  H     -2.648012    1.186618    1.168822
  H     -0.960050    1.742199    1.081304
  H     -2.012339    1.928510   -0.315692

 Total Charge           Charge          ....    0
 Multiplicity           Mult            ....    1
 Number of Electrons    NEL             ....   56
 Basis Dimension        Dim             ....  198

ORBITAL ENERGIES
----------------

  NO   OCC          E(Eh)            E(eV)
   0   2.0000     -18.934043      -515.2215
   1   2.0000     -10.116726      -275.2901
   2   2.0000     -10.052305      -273.5371
   3   2.0000     -10.034213      -273.0448
   4   2.0000     -10.034083      -273.0413
   5   2.0000     -10.027408      -272.8596
   6   2.0000     -10.023617      -272.7565
   7   2.0000      -0.999468       -27.1969
   8   2.0000      -0.790343       -21.5063
   9   2.0000      -0.725586       -19.7442
  10   2.0000      -0.669818       -18.2267
  11   2.0000      -0.659776       -17.9534
  12   2.0000      -0.547580       -14.9004
  13   2.0000      -0.504554       -13.7296
  14   2.0000      -0.446493       -12.1497
  15   2.0000      -0.430642       -11.7184
  16   2.0000      -0.428494       -11.6599
  17   2.0000      -0.405705       -11.0398
  18   2.0000      -0.396479       -10.7887
  19   2.0000      -0.384051       -10.4506
  20   2.0000      -0.365585        -9.9481
  21   2.0000      -0.360902        -9.8206
  22   2.0000      -0.338587        -9.2134
  23   2.0000      -0.332385        -9.0447
  24   2.0000      -0.308512        -8.3950
  25   2.0000      -0.305571        -8.3150
  26   2.0000      -0.302158        -8.2221
  27   2.0000      -0.210003        -5.7145
  28   0.0000      -0.042923        -1.1680
  29   0.0000       0.068222         1.8564
  30   0.0000       0.095414         2.5963
  31   0.0000       0.098884         2.6908
  32   0.0000       0.111579         3.0362

MULLIKEN ATOMIC CHARGES
-----------------------
   0 C :   -0.481686
   1 C :   -0.021214
   2 C :   -0.498962
   3 C :   -0.288944
   4 C :    0.262555
   5 O :   -0.337796
   6 C :   -0.516710
   7 H :    0.149855
   8 H :    0.155559
   9 H :    0.137427
  10 H :    0.157098
  11 H :    0.152969
  12 H :    0.160363
  13 H :    0.145658
  14 H :    0.171581
  15 H :    0.152033
  16 H :    0.177548
  17 H :    0.158430
  18 H :    0.164236
Sum of atomic charges:    0.0000000

LOEWDIN ATOMIC CHARGES
----------------------
   0 C :   -0.414195
   1 C :   -0.225566
   2 C :   -0.410154
   3 C :   -0.273026
   4 C :    0.214695
   5 O :   -0.465557
   6 C :   -0.385842
   7 H :    0.155133
   8 H :    0.154867
   9 H :    0.150072
  10 H :    0.161437
  11 H :    0.154499
  12 H :    0.158659
  13 H :    0.154042
  14 H :    0.182538
  15 H :    0.168973
  16 H :    0.174014
  17 H :    0.171602
  18 H :    0.173807

  Mayer bond orders larger than 0.100000
B(  0-C ,  1-C ) :   0.9102 B(  0-C ,  7-H ) :   0.9738 B(  0-C ,  8-H ) :   0.9852
B(  0-C ,  9-H ) :   0.9655 B(  1-C ,  2-C ) :   0.9049 B(  1-C ,  3-C ) :   0.8073
B(  1-C , 10-H ) :   0.9589 B(  2-C , 11-H ) :   0.9848 B(  2-C , 12-H ) :   0.9723
B(  2-C , 13-H ) :   0.9750 B(  3-C ,  4-C ) :   0.8808 B(  3-C , 14-H ) :   0.9656
B(  3-C , 15-H ) :   0.9581 B(  4-C ,  5-O ) :   1.9818 B(  4-C ,  6-C ) :   0.9089
B(  6-C , 16-H ) :   0.9797 B(  6-C , 17-H ) :   0.9487 B(  6-C , 18-H ) :   0.9442

Dispersion correction           -0.005075505
FINAL SINGLE POINT ENERGY      -310.999841792804

DIPOLE MOMENT
-------------

Method             : SCF
Type of density    : Electron Density
Multiplicity       :   1
Irrep              :   0
Energy             :  -311.0036560275128750 Eh
Relativity type    :
Basis              : AO
                                X                 Y                 Z
Electronic contribution:     -6.973548463      -3.326979737       0.419761331
Nuclear contribution   :      7.718449884       4.265120884      -0.609997412
                        -----------------------------------------
Total Dipole Moment    :      0.744901420       0.938141148      -0.190236081
                        -----------------------------------------
Magnitude (a.u.)       :      1.212920734
Magnitude (Debye)      :      3.082999495

Rotational constants in cm-1:             0.137410             0.056103             0.044081
Rotational constants in MHz :          4119.443696          1681.916653          1321.510343

                             ****ORCA TERMINATED NORMALLY****
TOTAL RUN TIME: 0 days 0 hours 0 minutes 24 seconds 664 msec
