                         Program Version 6.0.0  -   RELEASE  -
|  1> ! r2scan-3c def2/J RI DEFGRID2 scfconv6 printgap
|  2> %output
|  3>     printlevel normal
|  4> end
|  5> %cpcm
|  6>     smd true
|  7>     smdsolvent "water"
|  8> end
|  9> * xyz 0 1
| 10> C 1.8762833627 1.2373735281 0.1093135653
| 11> C 1.1505117502 -0.1054597105 0.124757401
| 12> C 2.1034132428 -1.2243719135 -0.2896832394
| 13> C -0.0891689494 -0.0793586914 -0.8092351175
| 14> C -1.3483417418 -0.0588411789 0.018354489
| 15> O -1.9590983084 -1.0787347439 0.2803236704
| 16> C -1.7760375434 1.2846721977 0.5280178505
| 17> H 2.7095491211 1.2201602551 0.8076892867
| 18> H 2.2667686099 1.4395759889 -0.8852880151
| 19> H 1.2130851725 2.0503812792 0.3921836692
| 20> H 0.8128805427 -0.3133739743 1.1472559499
| 21> H 2.4504134829 -1.069002826 -1.308527875
| 22> H 1.6061916339 -2.1898980521 -0.2331522723
| 23> H 2.9677705389 -1.2464363916 0.3698050355
| 24> H -0.1014379156 -0.9801901095 -1.4231417209
| 25> H -0.0466676738 0.7947499399 -1.4558931766
| 26> H -2.6480118216 1.1866183908 1.1688224565
| 27> H -0.9600496033 1.7421992155 1.0813040812
| 28> H -2.0123387407 1.9285099909 -0.3156924954
| 29> *
| 30>
| 31>                          ****END OF INPUT****

CARTESIAN COORDINATES (ANGSTROEM)
---------------------------------
  C      1.876283    1.237374    0.109314
  C      1.150512   -0.105460    0.124757
  C      2.103413   -1.224372   -0.289683
  C     -0.089169   -0.079359   -0.809235
  C     -1.348342   -0.058841    0.018354
  O     -1.959098   -1.078735    0.280324
  C     -1.776038    1.284672    0.528018
  H      2.709549    1.220160    0.807689
  H      2.266769    1.439576   -0.885288
  H      1.213085    2.050381    0.392184
  H      0.812881   -0.313374    1.147256
  H      2.450413   -1.069003   -1.308528
  H      1.606192   -2.189898   -0.233152
  H      2.967771   -1.246436    0.369805
  H     -0.101438   -0.980190   -1.423142
  H     -0.046668    0.794750   -1.455893
  H     -2.648012    1.186618    1.168822
  H     -0.960050    1.742199    1.081304
  H     -2.012339    1.928510   -0.315692

 Total Charge           Charge          ....    0
 Multiplicity           Mult            ....    1
 Number of Electrons    NEL             ....   56
 Basis Dimension        Dim             ....  198

ORBITAL ENERGIES
----------------

  NO   OCC          E(Eh)            E(eV)
   0   2.0000     -18.944707      -515.5117
   1   2.0000     -10.123661      -275.4788
   2   2.0000     -10.039375      -273.1853
   3   2.0000     -10.024669      -272.7851
   4   2.0000     -10.022111      -272.7155
   5   2.0000     -10.010228      -272.3922
   6   2.0000     -10.009515      -272.3727
   7   2.0000      -1.012891       -27.5622
   8   2.0000      -0.778210       -21.1762
   9   2.0000      -0.716382       -19.4937
  10   2.0000      -0.659043       -17.9335
  11   2.0000      -0.645033       -17.5522
  12   2.0000      -0.534993       -14.5579
  13   2.0000      -0.500587       -13.6217
  14   2.0000      -0.440540       -11.9877
  15   2.0000      -0.428534       -11.6610
  16   2.0000      -0.419621       -11.4185
  17   2.0000      -0.395468       -10.7612
  18   2.0000      -0.384442       -10.4612
  19   2.0000      -0.380587       -10.3563
  20   2.0000      -0.352470        -9.5912
  21   2.0000      -0.350503        -9.5377
  22   2.0000      -0.336668        -9.1612
  23   2.0000      -0.321405        -8.7459
  24   2.0000      -0.299081        -8.1384
  25   2.0000      -0.292756        -7.9663
  26   2.0000      -0.291797        -7.9402
  27   2.0000      -0.221362        -6.0236
  28   0.0000      -0.046068        -1.2536
  29   0.0000       0.082309         2.2397
  30   0.0000       0.107548         2.9265
  31   0.0000       0.113930         3.1002
  32   0.0000       0.125077         3.4035

MULLIKEN ATOMIC CHARGES
-----------------------
   0 C :   -0.529457
   1 C :    0.003707
   2 C :   -0.534150
   3 C :   -0.301690
   4 C :    0.295338
   5 O :   -0.450165
   6 C :   -0.543770
   7 H :    0.159744
   8 H :    0.166378
   9 H :    0.158241
  10 H :    0.165659
  11 H :    0.166525
  12 H :    0.161530
  13 H :    0.159307
  14 H :    0.176514
  15 H :    0.180823
  16 H :    0.176475
  17 H :    0.192680
  18 H :    0.196312
Sum of atomic charges:    0.0000000

LOEWDIN ATOMIC CHARGES
----------------------
   0 C :   -0.419186
   1 C :   -0.219243
   2 C :   -0.417566
   3 C :   -0.269472
   4 C :    0.231826
   5 O :   -0.546444
   6 C :   -0.382782
   7 H :    0.157246
   8 H :    0.157844
   9 H :    0.156926
  10 H :    0.164367
  11 H :    0.158269
  12 H :    0.157445
  13 H :    0.157481
  14 H :    0.182977
  15 H :    0.182009
  16 H :    0.172883
  17 H :    0.187186
  18 H :    0.188233

  Mayer bond orders larger than 0.100000
B(  0-C ,  1-C ) :   0.9048 B(  0-C ,  7-H ) :   0.9724 B(  0-C ,  8-H ) :   0.9823
B(  0-C ,  9-H ) :   0.9627 B(  1-C ,  2-C ) :   0.8906 B(  1-C ,  3-C ) :   0.7922
B(  1-C , 10-H ) :   0.9599 B(  2-C , 11-H ) :   0.9816 B(  2-C , 12-H ) :   0.9715
B(  2-C , 13-H ) :   0.9734 B(  3-C ,  4-C ) :   0.9003 B(  3-C , 14-H ) :   0.9645
B(  3-C , 15-H ) :   0.9484 B(  4-C ,  5-O ) :   1.8979 B(  4-C ,  6-C ) :   0.9347
B(  6-C , 16-H ) :   0.9755 B(  6-C , 17-H ) :   0.9334 B(  6-C , 18-H ) :   0.9300

Dispersion correction           -0.005075505
FINAL SINGLE POINT ENERGY      -311.006596845396

DIPOLE MOMENT
-------------

Method             : SCF
Type of density    : Electron Density
Multiplicity       :   1
Irrep              :   0
Energy             :  -311.0104110801045181 Eh
Relativity type    :
Basis              : AO
                                X                 Y                 Z
Electronic contribution:     -6.690401201      -2.822977395       0.321856685
Nuclear contribution   :      7.718449884       4.265120884      -0.609997412
                        -----------------------------------------
Total Dipole Moment    :      1.028048683       1.442143490      -0.288140727
                        -----------------------------------------
Magnitude (a.u.)       :      1.794348633
Magnitude (Debye)      :      4.560871767

Rotational constants in cm-1:             0.137410             0.056103             0.044081
Rotational constants in MHz :          4119.443696          1681.916653          1321.510343

                             ****ORCA TERMINATED NORMALLY****
TOTAL RUN TIME: 0 days 0 hours 0 minutes 31 seconds 210 msec
