                         Program Version 6.0.0  -   RELEASE  -
|  1> ! r2scan-3c def2/J RI DEFGRID2 scfconv6 printgap
|  2> %output
|  3>     printlevel normal
|  4> end
|  5> * xyz 0 1
|  6> C -3.2493954448 0.8797625108 0.2668080072
|  7> C -3.0120398588 -0.3075531014 0.9374457039
|  8> C -1.8631784088 -1.0351195239 0.6760483475
|  9> C -0.946615414 -0.5846183012 -0.2629587379
| 10> C -1.1903184789 0.6086295533 -0.9323415126
| 11> C -2.3355829622 1.3375517786 -0.6684755347
| 12> C 0.323875163 -1.3529310333 -0.5412554702
| 13> N 1.4793614072 -0.5699413534 -0.1736170666
| 14> C 1.8652707015 -0.2597539977 1.0982815667
| 15> C 2.9551341297 0.5520737112 0.975362847
| 16> N 3.2414359197 0.7512335942 -0.3404673336
| 17> C 2.3354885734 0.070765373 -0.995464668
| 18> H -4.1431459321 1.4487249001 0.4725129576
| 19> H -3.7201195165 -0.6669939915 1.6685970108
| 20> H -1.6812100896 -1.9599128369 1.2037536015
| 21> H -0.4752814839 0.9691490916 -1.6579026676
| 22> H -2.5154260247 2.2635651809 -1.1931234541
| 23> H 0.3312162794 -2.2867437347 0.0269476776
| 24> H 0.4013836006 -1.5836286475 -1.6067771211
| 25> H 1.3477829038 -0.6316434568 1.9574511897
| 26> H 3.5528556976 1.0037244078 1.7414151705
| 27> H 2.2802986315 0.0110906298 -2.0640784266
| 28> *
| 29>
| 30>                          ****END OF INPUT****

CARTESIAN COORDINATES (ANGSTROEM)
---------------------------------
  C     -3.249395    0.879763    0.266808
  C     -3.012040   -0.307553    0.937446
  C     -1.863178   -1.035120    0.676048
  C     -0.946615   -0.584618   -0.262959
  C     -1.190318    0.608630   -0.932342
  C     -2.335583    1.337552   -0.668476
  C      0.323875   -1.352931   -0.541255
  N      1.479361   -0.569941   -0.173617
  C      1.865271   -0.259754    1.098282
  C      2.955134    0.552074    0.975363
  N      3.241436    0.751234   -0.340467
  C      2.335489    0.070765   -0.995465
  H     -4.143146    1.448725    0.472513
  H     -3.720120   -0.666994    1.668597
  H     -1.681210   -1.959913    1.203754
  H     -0.475281    0.969149   -1.657903
  H     -2.515426    2.263565   -1.193123
  H      0.331216   -2.286744    0.026948
  H      0.401384   -1.583629   -1.606777
  H      1.347783   -0.631643    1.957451
  H      3.552856    1.003724    1.741415
  H      2.280299    0.011091   -2.064078

 Total Charge           Charge          ....    0
 Multiplicity           Mult            ....    1
 Number of Electrons    NEL             ....   84
 Basis Dimension        Dim             ....  288

ORBITAL ENERGIES
----------------

  NO   OCC          E(Eh)            E(eV)
   0   2.0000     -14.222476      -387.0133
   1   2.0000     -14.131293      -384.5320
   2   2.0000     -10.096653      -274.7439
   3   2.0000     -10.074200      -274.1329
   4   2.0000     -10.058176      -273.6969
   5   2.0000     -10.050913      -273.4992
   6   2.0000     -10.048264      -273.4272
   7   2.0000     -10.046700      -273.3846
   8   2.0000     -10.046435      -273.3774
   9   2.0000     -10.045945      -273.3641
  10   2.0000     -10.045116      -273.3415
  11   2.0000     -10.036549      -273.1084
  12   2.0000      -0.992852       -27.0169
  13   2.0000      -0.865205       -23.5434
  14   2.0000      -0.836195       -22.7540
  15   2.0000      -0.752987       -20.4898
  16   2.0000      -0.729505       -19.8508
  17   2.0000      -0.712561       -19.3898
  18   2.0000      -0.676312       -18.4034
  19   2.0000      -0.591638       -16.0993
  20   2.0000      -0.578574       -15.7438
  21   2.0000      -0.565615       -15.3912
  22   2.0000      -0.544338       -14.8122
  23   2.0000      -0.513130       -13.9630
  24   2.0000      -0.494935       -13.4679
  25   2.0000      -0.455311       -12.3896
  26   2.0000      -0.442652       -12.0452
  27   2.0000      -0.419827       -11.4241
  28   2.0000      -0.412123       -11.2144
  29   2.0000      -0.402814       -10.9611
  30   2.0000      -0.401193       -10.9170
  31   2.0000      -0.382957       -10.4208
  32   2.0000      -0.375819       -10.2266
  33   2.0000      -0.370600       -10.0845
  34   2.0000      -0.351998        -9.5784
  35   2.0000      -0.328821        -8.9477
  36   2.0000      -0.322793        -8.7836
  37   2.0000      -0.256034        -6.9670
  38   2.0000      -0.250500        -6.8165
  39   2.0000      -0.239425        -6.5151
  40   2.0000      -0.232304        -6.3213
  41   2.0000      -0.207617        -5.6495
  42   0.0000      -0.048833        -1.3288
  43   0.0000      -0.043728        -1.1899
  44   0.0000      -0.000507        -0.0138
  45   0.0000       0.034856         0.9485
  46   0.0000       0.065739         1.7888

MULLIKEN ATOMIC CHARGES
-----------------------
   0 C :   -0.133623
   1 C :   -0.155056
   2 C :   -0.211097
   3 C :    0.218350
   4 C :   -0.168252
   5 C :   -0.174239
   6 C :   -0.416226
   7 N :    0.236180
   8 C :   -0.180807
   9 C :   -0.129980
  10 N :   -0.184993
  11 C :   -0.176779
  12 H :    0.148408
  13 H :    0.147245
  14 H :    0.145246
  15 H :    0.149262
  16 H :    0.147770
  17 H :    0.164937
  18 H :    0.174366
  19 H :    0.135281
  20 H :    0.132893
  21 H :    0.131113
Sum of atomic charges:   -0.0000000

LOEWDIN ATOMIC CHARGES
----------------------
   0 C :   -0.160632
   1 C :   -0.157210
   2 C :   -0.159865
   3 C :   -0.066151
   4 C :   -0.139791
   5 C :   -0.152740
   6 C :    0.018944
   7 N :   -0.773214
   8 C :    0.068955
   9 C :    0.056710
  10 N :   -0.566746
  11 C :    0.215824
  12 H :    0.168605
  13 H :    0.168645
  14 H :    0.169419
  15 H :    0.175605
  16 H :    0.169488
  17 H :    0.193421
  18 H :    0.200848
  19 H :    0.189308
  20 H :    0.181579
  21 H :    0.198998

  Mayer bond orders larger than 0.100000
B(  0-C ,  1-C ) :   1.4369 B(  0-C ,  5-C ) :   1.4072 B(  0-C , 12-H ) :   0.9478
B(  1-C ,  2-C ) :   1.4245 B(  1-C , 13-H ) :   0.9465 B(  2-C ,  3-C ) :   1.4046
B(  2-C , 14-H ) :   0.9410 B(  3-C ,  4-C ) :   1.3969 B(  3-C ,  6-C ) :   0.8340
B(  4-C ,  5-C ) :   1.4511 B(  4-C , 15-H ) :   0.9409 B(  5-C , 16-H ) :   0.9517
B(  6-C ,  7-N ) :   0.9186 B(  6-C , 17-H ) :   0.9876 B(  6-C , 18-H ) :   0.9672
B(  7-N ,  8-C ) :   1.2370 B(  7-N , 11-C ) :   1.2277 B(  8-C ,  9-C ) :   1.4763
B(  8-C , 11-C ) :   0.1056 B(  8-C , 19-H ) :   0.9490 B(  9-C , 10-N ) :   1.3083
B(  9-C , 20-H ) :   0.9769 B( 10-N , 11-C ) :   1.6144 B( 11-C , 21-H ) :   0.9590

Dispersion correction           -0.008595343
FINAL SINGLE POINT ENERGY      -496.441326787941

DIPOLE MOMENT
-------------

Method             : SCF
Type of density    : Electron Density
Multiplicity       :   1
Irrep              :   0
Energy             :  -496.4456321991020786 Eh
Relativity type    :
Basis              : AO
                                X                 Y                 Z
Electronic contribution:      2.919067849       0.575613123      -0.426860770
Nuclear contribution   :     -4.309980070      -1.343092169       0.512042420
                        -----------------------------------------
Total Dipole Moment    :     -1.390912221      -0.767479045       0.085181651
                        -----------------------------------------
Magnitude (a.u.)       :      1.590885541
Magnitude (Debye)      :      4.043709686

Rotational constants in cm-1:             0.079173             0.018562             0.017715
Rotational constants in MHz :          2373.541958           556.473079           531.085215

                             ****ORCA TERMINATED NORMALLY****
TOTAL RUN TIME: 0 days 0 hours 0 minutes 43 seconds 489 msec
