                         Program Version 6.0.0  -   RELEASE  -
|  1> ! r2scan-3c def2/J RI DEFGRID2 scfconv6 printgap
|  2> %output
|  3>     printlevel normal
|  4> end
|  5> %cpcm
|  6>     smd true
|  7>     smdsolvent "water"
|  8> end
|  9> * xyz 0 1
| 10> C -3.2493954448 0.8797625108 0.2668080072
| 11> C -3.0120398588 -0.3075531014 0.9374457039
| 12> C -1.8631784088 -1.0351195239 0.6760483475
| 13> C -0.946615414 -0.5846183012 -0.2629587379
| 14> C -1.1903184789 0.6086295533 -0.9323415126
| 15> C -2.3355829622 1.3375517786 -0.6684755347
| 16> C 0.323875163 -1.3529310333 -0.5412554702
| 17> N 1.4793614072 -0.5699413534 -0.1736170666
| 18> C 1.8652707015 -0.2597539977 1.0982815667
| 19> C 2.9551341297 0.5520737112 0.975362847
| 20> N 3.2414359197 0.7512335942 -0.3404673336
| 21> C 2.3354885734 0.070765373 -0.995464668
| 22> H -4.1431459321 1.4487249001 0.4725129576
| 23> H -3.7201195165 -0.6669939915 1.6685970108
| 24> H -1.6812100896 -1.9599128369 1.2037536015
| 25> H -0.4752814839 0.9691490916 -1.6579026676
| 26> H -2.5154260247 2.2635651809 -1.1931234541
| 27> H 0.3312162794 -2.2867437347 0.0269476776
| 28> H 0.4013836006 -1.5836286475 -1.6067771211
| 29> H 1.3477829038 -0.6316434568 1.9574511897
| 30> H 3.5528556976 1.0037244078 1.7414151705
| 31> H 2.2802986315 0.0110906298 -2.0640784266
| 32> *
| 33>
| 34>                          ****END OF INPUT****

CARTESIAN COORDINATES (ANGSTROEM)
---------------------------------
  C     -3.249395    0.879763    0.266808
  C     -3.012040   -0.307553    0.937446
  C     -1.863178   -1.035120    0.676048
  C     -0.946615   -0.584618   -0.262959
  C     -1.190318    0.608630   -0.932342
  C     -2.335583    1.337552   -0.668476
  C      0.323875   -1.352931   -0.541255
  N      1.479361   -0.569941   -0.173617
  C      1.865271   -0.259754    1.098282
  C      2.955134    0.552074    0.975363
  N      3.241436    0.751234   -0.340467
  C      2.335489    0.070765   -0.995465
  H     -4.143146    1.448725    0.472513
  H     -3.720120   -0.666994    1.668597
  H     -1.681210   -1.959913    1.203754
  H     -0.475281    0.969149   -1.657903
  H     -2.515426    2.263565   -1.193123
  H      0.331216   -2.286744    0.026948
  H      0.401384   -1.583629   -1.606777
  H      1.347783   -0.631643    1.957451
  H      3.552856    1.003724    1.741415
  H      2.280299    0.011091   -2.064078

 Total Charge           Charge          ....    0
 Multiplicity           Mult            ....    1
 Number of Electrons    NEL             ....   84
 Basis Dimension        Dim             ....  288

ORBITAL ENERGIES
----------------

  NO   OCC          E(Eh)            E(eV)
   0   2.0000     -14.220467      -386.9586
   1   2.0000     -14.141866      -384.8197
   2   2.0000     -10.077167      -274.2136
   3   2.0000     -10.075905      -274.1793
   4   2.0000     -10.051032      -273.5025
   5   2.0000     -10.047269      -273.4001
   6   2.0000     -10.040455      -273.2147
   7   2.0000     -10.035259      -273.0733
   8   2.0000     -10.035228      -273.0724
   9   2.0000     -10.034682      -273.0576
  10   2.0000     -10.034525      -273.0533
  11   2.0000     -10.033737      -273.0319
  12   2.0000      -0.994090       -27.0506
  13   2.0000      -0.865018       -23.5383
  14   2.0000      -0.828610       -22.5476
  15   2.0000      -0.743654       -20.2358
  16   2.0000      -0.718632       -19.5550
  17   2.0000      -0.712044       -19.3757
  18   2.0000      -0.667161       -18.1544
  19   2.0000      -0.580047       -15.7839
  20   2.0000      -0.569518       -15.4974
  21   2.0000      -0.563724       -15.3397
  22   2.0000      -0.540748       -14.7145
  23   2.0000      -0.504844       -13.7375
  24   2.0000      -0.481959       -13.1148
  25   2.0000      -0.443629       -12.0717
  26   2.0000      -0.429645       -11.6912
  27   2.0000      -0.412113       -11.2142
  28   2.0000      -0.404808       -11.0154
  29   2.0000      -0.398575       -10.8458
  30   2.0000      -0.389147       -10.5892
  31   2.0000      -0.375114       -10.2074
  32   2.0000      -0.371889       -10.1196
  33   2.0000      -0.363836        -9.9005
  34   2.0000      -0.343730        -9.3534
  35   2.0000      -0.316935        -8.6242
  36   2.0000      -0.308396        -8.3919
  37   2.0000      -0.257170        -6.9980
  38   2.0000      -0.250664        -6.8209
  39   2.0000      -0.242183        -6.5901
  40   2.0000      -0.234177        -6.3723
  41   2.0000      -0.212583        -5.7847
  42   0.0000      -0.040165        -1.0929
  43   0.0000      -0.035013        -0.9528
  44   0.0000      -0.001472        -0.0401
  45   0.0000       0.028946         0.7877
  46   0.0000       0.083761         2.2793

MULLIKEN ATOMIC CHARGES
-----------------------
   0 C :   -0.166888
   1 C :   -0.194462
   2 C :   -0.221942
   3 C :    0.151346
   4 C :   -0.202741
   5 C :   -0.217681
   6 C :   -0.349080
   7 N :    0.227136
   8 C :   -0.209664
   9 C :   -0.184972
  10 N :   -0.274197
  11 C :   -0.163432
  12 H :    0.180341
  13 H :    0.179168
  14 H :    0.180899
  15 H :    0.180735
  16 H :    0.178642
  17 H :    0.192788
  18 H :    0.201722
  19 H :    0.177684
  20 H :    0.162084
  21 H :    0.172514
Sum of atomic charges:   -0.0000000

LOEWDIN ATOMIC CHARGES
----------------------
   0 C :   -0.174098
   1 C :   -0.169032
   2 C :   -0.161083
   3 C :   -0.069867
   4 C :   -0.151918
   5 C :   -0.167482
   6 C :    0.028044
   7 N :   -0.754834
   8 C :    0.071683
   9 C :    0.029356
  10 N :   -0.636892
  11 C :    0.220988
  12 H :    0.178010
  13 H :    0.178687
  14 H :    0.182728
  15 H :    0.185052
  16 H :    0.178690
  17 H :    0.207376
  18 H :    0.214699
  19 H :    0.205235
  20 H :    0.189703
  21 H :    0.214956

  Mayer bond orders larger than 0.100000
B(  0-C ,  1-C ) :   1.3967 B(  0-C ,  5-C ) :   1.3737 B(  0-C , 12-H ) :   0.9534
B(  1-C ,  2-C ) :   1.3858 B(  1-C , 13-H ) :   0.9560 B(  2-C ,  3-C ) :   1.3962
B(  2-C , 14-H ) :   0.9485 B(  3-C ,  4-C ) :   1.3764 B(  3-C ,  6-C ) :   0.8381
B(  4-C ,  5-C ) :   1.4090 B(  4-C , 15-H ) :   0.9474 B(  5-C , 16-H ) :   0.9614
B(  6-C ,  7-N ) :   0.9356 B(  6-C , 17-H ) :   0.9724 B(  6-C , 18-H ) :   0.9477
B(  7-N ,  8-C ) :   1.2141 B(  7-N , 11-C ) :   1.2554 B(  8-C ,  9-C ) :   1.4779
B(  8-C , 19-H ) :   0.9579 B(  9-C , 10-N ) :   1.2940 B(  9-C , 20-H ) :   0.9739
B( 10-N , 11-C ) :   1.6036 B( 11-C , 21-H ) :   0.9486

Dispersion correction           -0.008595343
FINAL SINGLE POINT ENERGY      -496.456588457642

DIPOLE MOMENT
-------------

Method             : SCF
Type of density    : Electron Density
Multiplicity       :   1
Irrep              :   0
Energy             :  -496.4608938688038506 Eh
Relativity type    :
Basis              : AO
                                X                 Y                 Z
Electronic contribution:      2.507561703       0.088100415      -0.460085087
Nuclear contribution   :     -4.309980070      -1.343092169       0.512042420
                        -----------------------------------------
Total Dipole Moment    :     -1.802418367      -1.254991753       0.051957333
                        -----------------------------------------
Magnitude (a.u.)       :      2.196910520
Magnitude (Debye)      :      5.584102767

Rotational constants in cm-1:             0.079173             0.018562             0.017715
Rotational constants in MHz :          2373.541958           556.473079           531.085215

                             ****ORCA TERMINATED NORMALLY****
TOTAL RUN TIME: 0 days 0 hours 1 minutes 2 seconds 840 msec
