                         Program Version 6.0.0  -   RELEASE  -
|  1> ! pbe def2-sv(p) def2/J RI DEFGRID1 loosescf d4 GCP(DFT/SV(P)) printgap
|  2> %output
|  3>     printlevel normal
|  4> end
|  5> * xyz 0 1
|  6> C -1.0600493367 -0.2088872717 0.702927763
|  7> C 0.2263722202 0.5607051744 0.3334476293
|  8> C 1.178476959 -0.3489067833 -0.4644048665
|  9> O 1.6925381398 -1.406341704 0.3077470937
| 10> O -0.0596578111 1.7411591451 -0.3834890516
| 11> O -1.920747497 -0.3581461134 -0.404510227
| 12> H -1.575092484 0.2954190831 1.5269938295
| 13> H -0.7793717444 -1.2159601124 1.018251141
| 14> H 0.7158212298 0.8900504573 1.2557275292
| 15> H 1.9861069985 0.2612972112 -0.8888252369
| 16> H 0.6210473142 -0.8198766367 -1.2794792736
| 17> H 2.2853139728 -1.0532133087 0.985865002
| 18> H -0.4216234191 1.4945058954 -1.2479109497
| 19> H -2.3714569854 0.4833925632 -0.5630723514
| 20> *
| 21>
| 22>                          ****END OF INPUT****

CARTESIAN COORDINATES (ANGSTROEM)
---------------------------------
  C     -1.060049   -0.208887    0.702928
  C      0.226372    0.560705    0.333448
  C      1.178477   -0.348907   -0.464405
  O      1.692538   -1.406342    0.307747
  O     -0.059658    1.741159   -0.383489
  O     -1.920747   -0.358146   -0.404510
  H     -1.575092    0.295419    1.526994
  H     -0.779372   -1.215960    1.018251
  H      0.715821    0.890050    1.255728
  H      1.986107    0.261297   -0.888825
  H      0.621047   -0.819877   -1.279479
  H      2.285314   -1.053213    0.985865
  H     -0.421623    1.494506   -1.247911
  H     -2.371457    0.483393   -0.563072

 Total Charge           Charge          ....    0
 Multiplicity           Mult            ....    1
 Number of Electrons    NEL             ....   50
 Basis Dimension        Dim             ....  100

ORBITAL ENERGIES
----------------

  NO   OCC          E(Eh)            E(eV)
   0   2.0000     -18.756061      -510.3784
   1   2.0000     -18.755638      -510.3669
   2   2.0000     -18.751762      -510.2614
   3   2.0000      -9.937654      -270.4173
   4   2.0000      -9.929270      -270.1892
   5   2.0000      -9.928077      -270.1567
   6   2.0000      -0.944834       -25.7102
   7   2.0000      -0.925686       -25.1892
   8   2.0000      -0.916902       -24.9502
   9   2.0000      -0.677545       -18.4369
  10   2.0000      -0.606088       -16.4925
  11   2.0000      -0.555083       -15.1046
  12   2.0000      -0.472527       -12.8581
  13   2.0000      -0.463815       -12.6211
  14   2.0000      -0.444579       -12.0976
  15   2.0000      -0.424502       -11.5513
  16   2.0000      -0.385334       -10.4855
  17   2.0000      -0.359321        -9.7776
  18   2.0000      -0.346095        -9.4177
  19   2.0000      -0.313179        -8.5220
  20   2.0000      -0.293261        -7.9800
  21   2.0000      -0.265230        -7.2173
  22   2.0000      -0.249588        -6.7916
  23   2.0000      -0.232514        -6.3270
  24   2.0000      -0.203380        -5.5342
  25   0.0000       0.007725         0.2102
  26   0.0000       0.022279         0.6062
  27   0.0000       0.066184         1.8010
  28   0.0000       0.071969         1.9584
  29   0.0000       0.094542         2.5726

MULLIKEN ATOMIC CHARGES
-----------------------
   0 C :    0.026051
   1 C :   -0.005384
   2 C :    0.001121
   3 O :   -0.429863
   4 O :   -0.431724
   5 O :   -0.439866
   6 H :    0.080017
   7 H :    0.095121
   8 H :    0.057687
   9 H :    0.084320
  10 H :    0.086007
  11 H :    0.297767
  12 H :    0.288364
  13 H :    0.290381
Sum of atomic charges:   -0.0000000

LOEWDIN ATOMIC CHARGES
----------------------
   0 C :   -0.138524
   1 C :   -0.103519
   2 C :   -0.144949
   3 O :   -0.331572
   4 O :   -0.320913
   5 O :   -0.335370
   6 H :    0.099634
   7 H :    0.118476
   8 H :    0.107653
   9 H :    0.097398
  10 H :    0.113970
  11 H :    0.283894
  12 H :    0.275552
  13 H :    0.278269

  Mayer bond orders larger than 0.100000
B(  0-C ,  1-C ) :   1.0001 B(  0-C ,  5-O ) :   1.0569 B(  0-C ,  6-H ) :   0.9245
B(  0-C ,  7-H ) :   0.9139 B(  1-C ,  2-C ) :   1.0303 B(  1-C ,  4-O ) :   1.0378
B(  1-C ,  8-H ) :   0.8964 B(  2-C ,  3-O ) :   1.0553 B(  2-C ,  9-H ) :   0.9249
B(  2-C , 10-H ) :   0.9136 B(  3-O , 11-H ) :   0.8524 B(  4-O , 12-H ) :   0.8407
B(  5-O , 13-H ) :   0.8452

Dispersion correction           -0.009243999
FINAL SINGLE POINT ENERGY      -344.006964540225

DIPOLE MOMENT
-------------

Method             : SCF
Type of density    : Electron Density
Multiplicity       :   1
Irrep              :   0
Energy             :  -344.0808067761695952 Eh
Relativity type    :
Basis              : AO
                                X                 Y                 Z
Electronic contribution:     -0.349113102       0.225890657      -0.578064285
Nuclear contribution   :      0.427983370       0.314518739       0.750489234
                        -----------------------------------------
Total Dipole Moment    :      0.078870268       0.540409396       0.172424948
                        -----------------------------------------
Magnitude (a.u.)       :      0.572706904
Magnitude (Debye)      :      1.455705262

Rotational constants in cm-1:             0.158763             0.087126             0.066728
Rotational constants in MHz :          4759.600307          2611.986651          2000.441596

                             ****ORCA TERMINATED NORMALLY****
TOTAL RUN TIME: 0 days 0 hours 0 minutes 6 seconds 616 msec
