                         Program Version 6.0.0  -   RELEASE  -
|  1> ! r2scan-3c def2/J RI DEFGRID2 scfconv6 printgap
|  2> %output
|  3>     printlevel normal
|  4> end
|  5> * xyz 0 1
|  6> C -2.7682334593 -1.3191444986 -2.0321471716
|  7> C -3.4917278995 -0.878706862 -0.7644080783
|  8> C -2.5771226843 -0.8976546579 0.4630161591
|  9> H -2.157792415 -1.9034024864 0.5746606647
| 10> C -3.3150172203 -0.5186041587 1.74287845
| 11> N -1.4000822442 -0.0323265322 0.2630853644
| 12> C -0.1520678331 -0.6569814821 0.245329381
| 13> O -0.0393968632 -1.861468606 0.4003884327
| 14> C 0.9665516972 0.2320396931 0.0342376775
| 15> C 0.8218919917 1.5711428509 -0.1369060594
| 16> N -0.4455878832 2.0636210415 -0.10126459
| 17> C -1.585296917 1.3171040403 0.0902033049
| 18> O -2.6714508029 1.8659506906 0.097616265
| 19> C 1.9387489647 2.5254010659 -0.3449000722
| 20> Br 2.6781403822 -0.5939855562 0.0173040725
| 21> H -3.468919667 -1.3882741245 -2.85923231
| 22> H -1.9901604395 -0.6080148127 -2.3055982488
| 23> H -2.3029037196 -2.2925096244 -1.8876591802
| 24> H -3.9027839384 0.1227661806 -0.8951853293
| 25> H -4.3173095663 -1.5612554537 -0.562578
| 26> H -4.1048950991 -1.2405389947 1.9245276771
| 27> H -2.6322705475 -0.5289935278 2.5895187751
| 28> H -3.7549342737 0.4705099802 1.6514642361
| 29> H -0.5988087914 3.0605912803 -0.2194088528
| 30> H 2.4609934751 2.6890009124 0.5972455569
| 31> H 1.5739809965 3.4773355904 -0.7158425235
| 32> H 2.6624377324 2.1118593616 -1.0439408842
| 33> *
| 34>
| 35>                          ****END OF INPUT****

CARTESIAN COORDINATES (ANGSTROEM)
---------------------------------
  C     -2.768233   -1.319144   -2.032147
  C     -3.491728   -0.878707   -0.764408
  C     -2.577123   -0.897655    0.463016
  H     -2.157792   -1.903402    0.574661
  C     -3.315017   -0.518604    1.742878
  N     -1.400082   -0.032327    0.263085
  C     -0.152068   -0.656981    0.245329
  O     -0.039397   -1.861469    0.400388
  C      0.966552    0.232040    0.034238
  C      0.821892    1.571143   -0.136906
  N     -0.445588    2.063621   -0.101265
  C     -1.585297    1.317104    0.090203
  O     -2.671451    1.865951    0.097616
  C      1.938749    2.525401   -0.344900
  Br     2.678140   -0.593986    0.017304
  H     -3.468920   -1.388274   -2.859232
  H     -1.990160   -0.608015   -2.305598
  H     -2.302904   -2.292510   -1.887659
  H     -3.902784    0.122766   -0.895185
  H     -4.317310   -1.561255   -0.562578
  H     -4.104895   -1.240539    1.924528
  H     -2.632271   -0.528994    2.589519
  H     -3.754934    0.470510    1.651464
  H     -0.598809    3.060591   -0.219409
  H      2.460993    2.689001    0.597246
  H      1.573981    3.477336   -0.715843
  H      2.662438    2.111859   -1.043941

 Total Charge           Charge          ....    0
 Multiplicity           Mult            ....    1
 Number of Electrons    NEL             ....  132
 Basis Dimension        Dim             ....  368

ORBITAL ENERGIES
----------------

  NO   OCC          E(Eh)            E(eV)
   0   2.0000    -482.235838    -13122.3043
   1   2.0000     -62.307014     -1695.4601
   2   2.0000     -56.087609     -1526.2214
   3   2.0000     -56.084822     -1526.1456
   4   2.0000     -56.084601     -1526.1396
   5   2.0000     -18.933546      -515.2080
   6   2.0000     -18.926969      -515.0290
   7   2.0000     -14.241059      -387.5189
   8   2.0000     -14.227559      -387.1516
   9   2.0000     -10.183587      -277.1095
  10   2.0000     -10.151178      -276.2276
  11   2.0000     -10.131019      -275.6790
  12   2.0000     -10.099368      -274.8178
  13   2.0000     -10.076043      -274.1831
  14   2.0000     -10.070405      -274.0296
  15   2.0000     -10.026495      -272.8348
  16   2.0000     -10.018842      -272.6265
  17   2.0000     -10.016787      -272.5706
  18   2.0000      -8.638833      -235.0746
  19   2.0000      -6.446994      -175.4316
  20   2.0000      -6.432615      -175.0404
  21   2.0000      -6.431797      -175.0181
  22   2.0000      -2.544405       -69.2368
  23   2.0000      -2.540915       -69.1418
  24   2.0000      -2.540334       -69.1260
  25   2.0000      -2.529618       -68.8344
  26   2.0000      -2.529607       -68.8341
  27   2.0000      -1.055027       -28.7088
  28   2.0000      -1.015047       -27.6208
  29   2.0000      -0.959512       -26.1097
  30   2.0000      -0.919193       -25.0125
  31   2.0000      -0.815209       -22.1830
  32   2.0000      -0.774611       -21.0782
  33   2.0000      -0.749782       -20.4026
  34   2.0000      -0.708788       -19.2871
  35   2.0000      -0.695202       -18.9174
  36   2.0000      -0.648144       -17.6369
  37   2.0000      -0.631156       -17.1746
  38   2.0000      -0.599842       -16.3225
  39   2.0000      -0.570383       -15.5209
  40   2.0000      -0.552236       -15.0271
  41   2.0000      -0.517652       -14.0860
  42   2.0000      -0.474509       -12.9120
  43   2.0000      -0.458621       -12.4797
  44   2.0000      -0.437011       -11.8917
  45   2.0000      -0.434506       -11.8235
  46   2.0000      -0.416764       -11.3407
  47   2.0000      -0.410843       -11.1796
  48   2.0000      -0.408031       -11.1031
  49   2.0000      -0.403662       -10.9842
  50   2.0000      -0.392513       -10.6808
  51   2.0000      -0.387347       -10.5402
  52   2.0000      -0.381982       -10.3942
  53   2.0000      -0.379193       -10.3184
  54   2.0000      -0.360007        -9.7963
  55   2.0000      -0.338244        -9.2041
  56   2.0000      -0.336351        -9.1526
  57   2.0000      -0.316268        -8.6061
  58   2.0000      -0.309212        -8.4141
  59   2.0000      -0.305212        -8.3052
  60   2.0000      -0.292971        -7.9721
  61   2.0000      -0.270075        -7.3491
  62   2.0000      -0.255693        -6.9577
  63   2.0000      -0.252709        -6.8766
  64   2.0000      -0.235480        -6.4077
  65   2.0000      -0.218394        -5.9428
  66   0.0000      -0.073216        -1.9923
  67   0.0000      -0.033302        -0.9062
  68   0.0000      -0.026764        -0.7283
  69   0.0000       0.038954         1.0600
  70   0.0000       0.065415         1.7800

MULLIKEN ATOMIC CHARGES
-----------------------
   0 C :   -0.505512
   1 C :   -0.290613
   2 C :   -0.066061
   3 H :    0.226944
   4 C :   -0.552450
   5 N :    0.150707
   6 C :    0.226170
   7 O :   -0.436195
   8 C :   -0.109171
   9 C :    0.164743
  10 N :   -0.025412
  11 C :    0.225005
  12 O :   -0.458326
  13 C :   -0.583930
  14 Br:   -0.077533
  15 H :    0.151764
  16 H :    0.145267
  17 H :    0.163169
  18 H :    0.190518
  19 H :    0.148847
  20 H :    0.151961
  21 H :    0.155720
  22 H :    0.195039
  23 H :    0.275489
  24 H :    0.197698
  25 H :    0.147488
  26 H :    0.188674
Sum of atomic charges:   -0.0000000

LOEWDIN ATOMIC CHARGES
----------------------
   0 C :   -0.408976
   1 C :   -0.265976
   2 C :    0.042144
   3 H :    0.223426
   4 C :   -0.364726
   5 N :   -0.626113
   6 C :    0.355212
   7 O :   -0.471887
   8 C :   -0.198633
   9 C :    0.154690
  10 N :   -0.516472
  11 C :    0.458894
  12 O :   -0.424601
  13 C :   -0.350978
  14 Br:    0.260277
  15 H :    0.152252
  16 H :    0.152938
  17 H :    0.157874
  18 H :    0.180260
  19 H :    0.160076
  20 H :    0.158651
  21 H :    0.160351
  22 H :    0.179180
  23 H :    0.298311
  24 H :    0.185176
  25 H :    0.164528
  26 H :    0.184121

  Mayer bond orders larger than 0.100000
B(  0-C ,  1-C ) :   0.8561 B(  0-C , 15-H ) :   0.9719 B(  0-C , 16-H ) :   0.9824
B(  0-C , 17-H ) :   0.9783 B(  1-C ,  2-C ) :   0.8870 B(  1-C , 18-H ) :   0.9748
B(  1-C , 19-H ) :   0.9666 B(  2-C ,  3-H ) :   0.9672 B(  2-C ,  4-C ) :   0.8680
B(  2-C ,  5-N ) :   0.8226 B(  4-C , 20-H ) :   0.9702 B(  4-C , 21-H ) :   0.9783
B(  4-C , 22-H ) :   0.9735 B(  5-N ,  6-C ) :   1.0798 B(  5-N , 11-C ) :   1.1639
B(  6-C ,  7-O ) :   1.9143 B(  6-C ,  8-C ) :   0.9669 B(  6-C , 14-Br) :  -0.1190
B(  8-C ,  9-C ) :   1.4624 B(  8-C , 14-Br) :   1.2115 B(  9-C , 10-N ) :   1.1614
B(  9-C , 13-C ) :   0.8634 B( 10-N , 11-C ) :   1.0286 B( 10-N , 23-H ) :   0.9043
B( 11-C , 12-O ) :   1.9081 B( 13-C , 24-H ) :   0.9431 B( 13-C , 25-H ) :   0.9930
B( 13-C , 26-H ) :   0.9525

Dispersion correction           -0.011539815
FINAL SINGLE POINT ENERGY     -3184.787793120665

DIPOLE MOMENT
-------------

Method             : SCF
Type of density    : Electron Density
Multiplicity       :   1
Irrep              :   0
Energy             : -3184.7976810666787060 Eh
Relativity type    :
Basis              : AO
                                X                 Y                 Z
Electronic contribution:     46.430060733      -6.274426341       2.861398004
Nuclear contribution   :    -46.056932440       7.786510646      -3.109564836
                        -----------------------------------------
Total Dipole Moment    :      0.373128293       1.512084305      -0.248166832
                        -----------------------------------------
Magnitude (a.u.)       :      1.577089231
Magnitude (Debye)      :      4.008642254

Rotational constants in cm-1:             0.030098             0.011140             0.009357
Rotational constants in MHz :           902.313181           333.960713           280.530632

                             ****ORCA TERMINATED NORMALLY****
TOTAL RUN TIME: 0 days 0 hours 1 minutes 24 seconds 368 msec
