                         Program Version 6.0.0  -   RELEASE  -
|  1> ! r2scan-3c def2/J RI DEFGRID2 scfconv6 printgap
|  2> %output
|  3>     printlevel normal
|  4> end
|  5> %cpcm
|  6>     smd true
|  7>     smdsolvent "water"
|  8> end
|  9> * xyz 0 1
| 10> C -2.7682334593 -1.3191444986 -2.0321471716
| 11> C -3.4917278995 -0.878706862 -0.7644080783
| 12> C -2.5771226843 -0.8976546579 0.4630161591
| 13> H -2.157792415 -1.9034024864 0.5746606647
| 14> C -3.3150172203 -0.5186041587 1.74287845
| 15> N -1.4000822442 -0.0323265322 0.2630853644
| 16> C -0.1520678331 -0.6569814821 0.245329381
| 17> O -0.0393968632 -1.861468606 0.4003884327
| 18> C 0.9665516972 0.2320396931 0.0342376775
| 19> C 0.8218919917 1.5711428509 -0.1369060594
| 20> N -0.4455878832 2.0636210415 -0.10126459
| 21> C -1.585296917 1.3171040403 0.0902033049
| 22> O -2.6714508029 1.8659506906 0.097616265
| 23> C 1.9387489647 2.5254010659 -0.3449000722
| 24> Br 2.6781403822 -0.5939855562 0.0173040725
| 25> H -3.468919667 -1.3882741245 -2.85923231
| 26> H -1.9901604395 -0.6080148127 -2.3055982488
| 27> H -2.3029037196 -2.2925096244 -1.8876591802
| 28> H -3.9027839384 0.1227661806 -0.8951853293
| 29> H -4.3173095663 -1.5612554537 -0.562578
| 30> H -4.1048950991 -1.2405389947 1.9245276771
| 31> H -2.6322705475 -0.5289935278 2.5895187751
| 32> H -3.7549342737 0.4705099802 1.6514642361
| 33> H -0.5988087914 3.0605912803 -0.2194088528
| 34> H 2.4609934751 2.6890009124 0.5972455569
| 35> H 1.5739809965 3.4773355904 -0.7158425235
| 36> H 2.6624377324 2.1118593616 -1.0439408842
| 37> *
| 38>
| 39>                          ****END OF INPUT****

CARTESIAN COORDINATES (ANGSTROEM)
---------------------------------
  C     -2.768233   -1.319144   -2.032147
  C     -3.491728   -0.878707   -0.764408
  C     -2.577123   -0.897655    0.463016
  H     -2.157792   -1.903402    0.574661
  C     -3.315017   -0.518604    1.742878
  N     -1.400082   -0.032327    0.263085
  C     -0.152068   -0.656981    0.245329
  O     -0.039397   -1.861469    0.400388
  C      0.966552    0.232040    0.034238
  C      0.821892    1.571143   -0.136906
  N     -0.445588    2.063621   -0.101265
  C     -1.585297    1.317104    0.090203
  O     -2.671451    1.865951    0.097616
  C      1.938749    2.525401   -0.344900
  Br     2.678140   -0.593986    0.017304
  H     -3.468920   -1.388274   -2.859232
  H     -1.990160   -0.608015   -2.305598
  H     -2.302904   -2.292510   -1.887659
  H     -3.902784    0.122766   -0.895185
  H     -4.317310   -1.561255   -0.562578
  H     -4.104895   -1.240539    1.924528
  H     -2.632271   -0.528994    2.589519
  H     -3.754934    0.470510    1.651464
  H     -0.598809    3.060591   -0.219409
  H      2.460993    2.689001    0.597246
  H      1.573981    3.477336   -0.715843
  H      2.662438    2.111859   -1.043941

 Total Charge           Charge          ....    0
 Multiplicity           Mult            ....    1
 Number of Electrons    NEL             ....  132
 Basis Dimension        Dim             ....  368

ORBITAL ENERGIES
----------------

  NO   OCC          E(Eh)            E(eV)
   0   2.0000    -482.234959    -13122.2804
   1   2.0000     -62.306196     -1695.4378
   2   2.0000     -56.086751     -1526.1981
   3   2.0000     -56.084016     -1526.1237
   4   2.0000     -56.083806     -1526.1179
   5   2.0000     -18.937938      -515.3275
   6   2.0000     -18.935145      -515.2515
   7   2.0000     -14.228133      -387.1672
   8   2.0000     -14.227514      -387.1503
   9   2.0000     -10.183985      -277.1203
  10   2.0000     -10.156023      -276.3594
  11   2.0000     -10.121805      -275.4283
  12   2.0000     -10.093113      -274.6476
  13   2.0000     -10.073153      -274.1044
  14   2.0000     -10.041457      -273.2419
  15   2.0000     -10.022196      -272.7178
  16   2.0000     -10.014053      -272.4962
  17   2.0000     -10.011153      -272.4173
  18   2.0000      -8.638072      -235.0539
  19   2.0000      -6.446035      -175.4055
  20   2.0000      -6.431940      -175.0220
  21   2.0000      -6.431163      -175.0008
  22   2.0000      -2.543508       -69.2124
  23   2.0000      -2.540077       -69.1190
  24   2.0000      -2.539527       -69.1040
  25   2.0000      -2.529017       -68.8181
  26   2.0000      -2.529008       -68.8178
  27   2.0000      -1.055510       -28.7219
  28   2.0000      -1.023084       -27.8395
  29   2.0000      -0.952979       -25.9319
  30   2.0000      -0.917194       -24.9581
  31   2.0000      -0.808919       -22.0118
  32   2.0000      -0.768188       -20.9034
  33   2.0000      -0.738674       -20.1003
  34   2.0000      -0.702611       -19.1190
  35   2.0000      -0.686540       -18.6817
  36   2.0000      -0.643529       -17.5113
  37   2.0000      -0.621476       -16.9112
  38   2.0000      -0.594083       -16.1658
  39   2.0000      -0.564748       -15.3676
  40   2.0000      -0.545456       -14.8426
  41   2.0000      -0.506624       -13.7859
  42   2.0000      -0.468537       -12.7495
  43   2.0000      -0.453712       -12.3461
  44   2.0000      -0.439908       -11.9705
  45   2.0000      -0.419027       -11.4023
  46   2.0000      -0.416752       -11.3404
  47   2.0000      -0.404794       -11.0150
  48   2.0000      -0.400049       -10.8859
  49   2.0000      -0.395964       -10.7747
  50   2.0000      -0.383706       -10.4412
  51   2.0000      -0.381948       -10.3933
  52   2.0000      -0.380366       -10.3503
  53   2.0000      -0.373013       -10.1502
  54   2.0000      -0.354244        -9.6395
  55   2.0000      -0.335515        -9.1298
  56   2.0000      -0.326897        -8.8953
  57   2.0000      -0.310704        -8.4547
  58   2.0000      -0.308018        -8.3816
  59   2.0000      -0.302335        -8.2270
  60   2.0000      -0.292553        -7.9608
  61   2.0000      -0.270411        -7.3583
  62   2.0000      -0.259908        -7.0724
  63   2.0000      -0.255923        -6.9640
  64   2.0000      -0.245308        -6.6752
  65   2.0000      -0.214926        -5.8484
  66   0.0000      -0.066390        -1.8066
  67   0.0000      -0.029842        -0.8120
  68   0.0000      -0.027121        -0.7380
  69   0.0000       0.058157         1.5825
  70   0.0000       0.077621         2.1122

MULLIKEN ATOMIC CHARGES
-----------------------
   0 C :   -0.559991
   1 C :   -0.278757
   2 C :   -0.057298
   3 H :    0.225018
   4 C :   -0.581991
   5 N :    0.174860
   6 C :    0.214339
   7 O :   -0.513579
   8 C :   -0.114224
   9 C :    0.206847
  10 N :   -0.033803
  11 C :    0.253049
  12 O :   -0.527849
  13 C :   -0.612781
  14 Br:   -0.108737
  15 H :    0.165555
  16 H :    0.166716
  17 H :    0.167224
  18 H :    0.178501
  19 H :    0.169755
  20 H :    0.174202
  21 H :    0.172404
  22 H :    0.184379
  23 H :    0.335921
  24 H :    0.218654
  25 H :    0.191637
  26 H :    0.189950
Sum of atomic charges:   -0.0000000

LOEWDIN ATOMIC CHARGES
----------------------
   0 C :   -0.416936
   1 C :   -0.265171
   2 C :    0.044000
   3 H :    0.222718
   4 C :   -0.368398
   5 N :   -0.614830
   6 C :    0.356425
   7 O :   -0.540135
   8 C :   -0.207662
   9 C :    0.181387
  10 N :   -0.476627
  11 C :    0.466416
  12 O :   -0.475262
  13 C :   -0.345983
  14 Br:    0.240639
  15 H :    0.156203
  16 H :    0.158164
  17 H :    0.157152
  18 H :    0.175804
  19 H :    0.166990
  20 H :    0.165645
  21 H :    0.165299
  22 H :    0.174416
  23 H :    0.317378
  24 H :    0.194096
  25 H :    0.183471
  26 H :    0.184800

  Mayer bond orders larger than 0.100000
B(  0-C ,  1-C ) :   0.8406 B(  0-C , 15-H ) :   0.9677 B(  0-C , 16-H ) :   0.9796
B(  0-C , 17-H ) :   0.9798 B(  1-C ,  2-C ) :   0.8907 B(  1-C , 18-H ) :   0.9748
B(  1-C , 19-H ) :   0.9646 B(  2-C ,  3-H ) :   0.9618 B(  2-C ,  4-C ) :   0.8642
B(  2-C ,  5-N ) :   0.8105 B(  4-C , 20-H ) :   0.9672 B(  4-C , 21-H ) :   0.9746
B(  4-C , 22-H ) :   0.9737 B(  5-N ,  6-C ) :   1.0884 B(  5-N , 11-C ) :   1.1740
B(  6-C ,  7-O ) :   1.8685 B(  6-C ,  8-C ) :   0.9877 B(  8-C ,  9-C ) :   1.4340
B(  8-C , 14-Br) :   1.1445 B(  9-C , 10-N ) :   1.1726 B(  9-C , 13-C ) :   0.8440
B( 10-N , 11-C ) :   1.0518 B( 10-N , 23-H ) :   0.8791 B( 11-C , 12-O ) :   1.8458
B( 13-C , 24-H ) :   0.9333 B( 13-C , 25-H ) :   0.9805 B( 13-C , 26-H ) :   0.9528

Dispersion correction           -0.011539815
FINAL SINGLE POINT ENERGY     -3184.804219948914

DIPOLE MOMENT
-------------

Method             : SCF
Type of density    : Electron Density
Multiplicity       :   1
Irrep              :   0
Energy             : -3184.8141078949279290 Eh
Relativity type    :
Basis              : AO
                                X                 Y                 Z
Electronic contribution:     46.616432891      -5.470646812       2.748734238
Nuclear contribution   :    -46.056932440       7.786510646      -3.109564836
                        -----------------------------------------
Total Dipole Moment    :      0.559500451       2.315863833      -0.360830598
                        -----------------------------------------
Magnitude (a.u.)       :      2.409660717
Magnitude (Debye)      :      6.124870791

Rotational constants in cm-1:             0.030098             0.011140             0.009357
Rotational constants in MHz :           902.313181           333.960713           280.530632

                             ****ORCA TERMINATED NORMALLY****
TOTAL RUN TIME: 0 days 0 hours 1 minutes 43 seconds 959 msec
