                         Program Version 6.0.0  -   RELEASE  -
|  1> ! r2scan-3c def2/J RI DEFGRID2 scfconv6 printgap
|  2> %output
|  3>     printlevel normal
|  4> end
|  5> * xyz 0 1
|  6> C -2.516913945 0.6211048337 0.1556827365
|  7> C -1.1679016656 0.7310702914 -0.545806444
|  8> C -0.0390150069 0.0200014545 0.2064339322
|  9> H 0.0108357529 0.4067768144 1.2299480941
| 10> C -0.2446170835 -1.4918361916 0.2662993978
| 11> C 1.3067230997 0.3305852527 -0.4576083498
| 12> O 2.3523186301 -0.1578398585 0.3596414244
| 13> H -3.2609675457 1.2132087665 -0.3713831301
| 14> H -2.8602130708 -0.4089875641 0.1828072985
| 15> H -2.4445605594 0.9888586338 1.1765601682
| 16> H -0.9094941272 1.7879565221 -0.6469926533
| 17> H -1.2449285502 0.3119999916 -1.5516103161
| 18> H -0.3922699916 -1.8933863135 -0.7341608103
| 19> H -1.106113053 -1.7433753491 0.8772576902
| 20> H 0.6349161074 -1.9580834136 0.7033620407
| 21> H 1.4090016059 1.4171888092 -0.5878601402
| 22> H 1.3422094821 -0.1434925003 -1.4480304628
| 23> H 3.2002797471 0.0133141349 -0.0700379627
| 24> *
| 25>
| 26>                          ****END OF INPUT****

CARTESIAN COORDINATES (ANGSTROEM)
---------------------------------
  C     -2.516914    0.621105    0.155683
  C     -1.167902    0.731070   -0.545806
  C     -0.039015    0.020001    0.206434
  H      0.010836    0.406777    1.229948
  C     -0.244617   -1.491836    0.266299
  C      1.306723    0.330585   -0.457608
  O      2.352319   -0.157840    0.359641
  H     -3.260968    1.213209   -0.371383
  H     -2.860213   -0.408988    0.182807
  H     -2.444561    0.988859    1.176560
  H     -0.909494    1.787957   -0.646993
  H     -1.244929    0.312000   -1.551610
  H     -0.392270   -1.893386   -0.734161
  H     -1.106113   -1.743375    0.877258
  H      0.634916   -1.958083    0.703362
  H      1.409002    1.417189   -0.587860
  H      1.342209   -0.143493   -1.448030
  H      3.200280    0.013314   -0.070038

 Total Charge           Charge          ....    0
 Multiplicity           Mult            ....    1
 Number of Electrons    NEL             ....   50
 Basis Dimension        Dim             ....  179

ORBITAL ENERGIES
----------------

  NO   OCC          E(Eh)            E(eV)
   0   2.0000     -18.946251      -515.5537
   1   2.0000     -10.071077      -274.0479
   2   2.0000     -10.029439      -272.9149
   3   2.0000     -10.025147      -272.7981
   4   2.0000     -10.015988      -272.5489
   5   2.0000     -10.008261      -272.3386
   6   2.0000      -0.982787       -26.7430
   7   2.0000      -0.774225       -21.0677
   8   2.0000      -0.696115       -18.9422
   9   2.0000      -0.640764       -17.4361
  10   2.0000      -0.587169       -15.9777
  11   2.0000      -0.524341       -14.2680
  12   2.0000      -0.477029       -12.9806
  13   2.0000      -0.440179       -11.9779
  14   2.0000      -0.417046       -11.3484
  15   2.0000      -0.399018       -10.8578
  16   2.0000      -0.381399       -10.3784
  17   2.0000      -0.353200        -9.6111
  18   2.0000      -0.342127        -9.3098
  19   2.0000      -0.325120        -8.8470
  20   2.0000      -0.320629        -8.7247
  21   2.0000      -0.292616        -7.9625
  22   2.0000      -0.289745        -7.8844
  23   2.0000      -0.278853        -7.5880
  24   2.0000      -0.234201        -6.3729
  25   0.0000       0.061786         1.6813
  26   0.0000       0.094277         2.5654
  27   0.0000       0.110324         3.0021
  28   0.0000       0.131260         3.5718
  29   0.0000       0.134892         3.6706

MULLIKEN ATOMIC CHARGES
-----------------------
   0 C :   -0.501766
   1 C :   -0.234538
   2 C :   -0.021446
   3 H :    0.149314
   4 C :   -0.545634
   5 C :   -0.143627
   6 O :   -0.432425
   7 H :    0.146383
   8 H :    0.152429
   9 H :    0.146909
  10 H :    0.137622
  11 H :    0.138755
  12 H :    0.146671
  13 H :    0.151201
  14 H :    0.174091
  15 H :    0.120733
  16 H :    0.124640
  17 H :    0.290690
Sum of atomic charges:   -0.0000000

LOEWDIN ATOMIC CHARGES
----------------------
   0 C :   -0.420872
   1 C :   -0.308991
   2 C :   -0.218710
   3 H :    0.165868
   4 C :   -0.411691
   5 C :    0.010990
   6 O :   -0.634156
   7 H :    0.150728
   8 H :    0.150935
   9 H :    0.151587
  10 H :    0.154120
  11 H :    0.154901
  12 H :    0.152853
  13 H :    0.152681
  14 H :    0.169159
  15 H :    0.156810
  16 H :    0.157579
  17 H :    0.266211

  Mayer bond orders larger than 0.100000
B(  0-C ,  1-C ) :   0.8910 B(  0-C ,  7-H ) :   0.9721 B(  0-C ,  8-H ) :   0.9841
B(  0-C ,  9-H ) :   0.9854 B(  1-C ,  2-C ) :   0.9026 B(  1-C , 10-H ) :   0.9689
B(  1-C , 11-H ) :   0.9698 B(  2-C ,  3-H ) :   0.9619 B(  2-C ,  4-C ) :   0.8936
B(  2-C ,  5-C ) :   0.9448 B(  4-C , 12-H ) :   0.9854 B(  4-C , 13-H ) :   0.9758
B(  4-C , 14-H ) :   0.9641 B(  5-C ,  6-O ) :   0.9286 B(  5-C , 15-H ) :   0.9688
B(  5-C , 16-H ) :   0.9724 B(  6-O , 17-H ) :   0.9013

Dispersion correction           -0.004318576
FINAL SINGLE POINT ENERGY      -272.898228703418

DIPOLE MOMENT
-------------

Method             : SCF
Type of density    : Electron Density
Multiplicity       :   1
Irrep              :   0
Energy             :  -272.9037483405582520 Eh
Relativity type    :
Basis              : AO
                                X                 Y                 Z
Electronic contribution:      5.331955634       0.279964911       0.686524572
Nuclear contribution   :     -5.238793675      -0.009867864      -1.158117173
                        -----------------------------------------
Total Dipole Moment    :      0.093161959       0.270097047      -0.471592601
                        -----------------------------------------
Magnitude (a.u.)       :      0.551390195
Magnitude (Debye)      :      1.401522494

Rotational constants in cm-1:             0.229324             0.063409             0.054683
Rotational constants in MHz :          6874.964689          1900.960445          1639.344958

                             ****ORCA TERMINATED NORMALLY****
TOTAL RUN TIME: 0 days 0 hours 0 minutes 22 seconds 788 msec
