                         Program Version 6.0.0  -   RELEASE  -
|  1> ! r2scan-3c def2/J RI DEFGRID2 scfconv6 printgap
|  2> %output
|  3>     printlevel normal
|  4> end
|  5> %cpcm
|  6>     smd true
|  7>     smdsolvent "water"
|  8> end
|  9> * xyz 0 1
| 10> C -2.516913945 0.6211048337 0.1556827365
| 11> C -1.1679016656 0.7310702914 -0.545806444
| 12> C -0.0390150069 0.0200014545 0.2064339322
| 13> H 0.0108357529 0.4067768144 1.2299480941
| 14> C -0.2446170835 -1.4918361916 0.2662993978
| 15> C 1.3067230997 0.3305852527 -0.4576083498
| 16> O 2.3523186301 -0.1578398585 0.3596414244
| 17> H -3.2609675457 1.2132087665 -0.3713831301
| 18> H -2.8602130708 -0.4089875641 0.1828072985
| 19> H -2.4445605594 0.9888586338 1.1765601682
| 20> H -0.9094941272 1.7879565221 -0.6469926533
| 21> H -1.2449285502 0.3119999916 -1.5516103161
| 22> H -0.3922699916 -1.8933863135 -0.7341608103
| 23> H -1.106113053 -1.7433753491 0.8772576902
| 24> H 0.6349161074 -1.9580834136 0.7033620407
| 25> H 1.4090016059 1.4171888092 -0.5878601402
| 26> H 1.3422094821 -0.1434925003 -1.4480304628
| 27> H 3.2002797471 0.0133141349 -0.0700379627
| 28> *
| 29>
| 30>                          ****END OF INPUT****

CARTESIAN COORDINATES (ANGSTROEM)
---------------------------------
  C     -2.516914    0.621105    0.155683
  C     -1.167902    0.731070   -0.545806
  C     -0.039015    0.020001    0.206434
  H      0.010836    0.406777    1.229948
  C     -0.244617   -1.491836    0.266299
  C      1.306723    0.330585   -0.457608
  O      2.352319   -0.157840    0.359641
  H     -3.260968    1.213209   -0.371383
  H     -2.860213   -0.408988    0.182807
  H     -2.444561    0.988859    1.176560
  H     -0.909494    1.787957   -0.646993
  H     -1.244929    0.312000   -1.551610
  H     -0.392270   -1.893386   -0.734161
  H     -1.106113   -1.743375    0.877258
  H      0.634916   -1.958083    0.703362
  H      1.409002    1.417189   -0.587860
  H      1.342209   -0.143493   -1.448030
  H      3.200280    0.013314   -0.070038

 Total Charge           Charge          ....    0
 Multiplicity           Mult            ....    1
 Number of Electrons    NEL             ....   50
 Basis Dimension        Dim             ....  179

ORBITAL ENERGIES
----------------

  NO   OCC          E(Eh)            E(eV)
   0   2.0000     -18.948622      -515.6182
   1   2.0000     -10.064793      -273.8769
   2   2.0000     -10.024830      -272.7895
   3   2.0000     -10.017086      -272.5788
   4   2.0000     -10.008040      -272.3326
   5   2.0000     -10.005889      -272.2741
   6   2.0000      -0.984074       -26.7780
   7   2.0000      -0.768715       -20.9178
   8   2.0000      -0.690360       -18.7857
   9   2.0000      -0.637241       -17.3402
  10   2.0000      -0.580999       -15.8098
  11   2.0000      -0.519267       -14.1300
  12   2.0000      -0.473573       -12.8866
  13   2.0000      -0.434931       -11.8351
  14   2.0000      -0.412678       -11.2295
  15   2.0000      -0.393854       -10.7173
  16   2.0000      -0.377038       -10.2597
  17   2.0000      -0.350629        -9.5411
  18   2.0000      -0.338460        -9.2100
  19   2.0000      -0.320171        -8.7123
  20   2.0000      -0.319332        -8.6895
  21   2.0000      -0.286483        -7.7956
  22   2.0000      -0.284572        -7.7436
  23   2.0000      -0.275407        -7.4942
  24   2.0000      -0.237435        -6.4609
  25   0.0000       0.077456         2.1077
  26   0.0000       0.101886         2.7725
  27   0.0000       0.119133         3.2418
  28   0.0000       0.136468         3.7135
  29   0.0000       0.140099         3.8123

MULLIKEN ATOMIC CHARGES
-----------------------
   0 C :   -0.538423
   1 C :   -0.251918
   2 C :   -0.013953
   3 H :    0.153878
   4 C :   -0.574521
   5 C :   -0.157411
   6 O :   -0.514962
   7 H :    0.157073
   8 H :    0.162033
   9 H :    0.156991
  10 H :    0.150199
  11 H :    0.151579
  12 H :    0.165175
  13 H :    0.166088
  14 H :    0.161190
  15 H :    0.138849
  16 H :    0.143944
  17 H :    0.344189
Sum of atomic charges:   -0.0000000

LOEWDIN ATOMIC CHARGES
----------------------
   0 C :   -0.428705
   1 C :   -0.308977
   2 C :   -0.220632
   3 H :    0.165187
   4 C :   -0.420016
   5 C :    0.012555
   6 O :   -0.668798
   7 H :    0.153293
   8 H :    0.153068
   9 H :    0.153777
  10 H :    0.158058
  11 H :    0.158675
  12 H :    0.158399
  13 H :    0.156848
  14 H :    0.162214
  15 H :    0.164629
  16 H :    0.165743
  17 H :    0.284682

  Mayer bond orders larger than 0.100000
B(  0-C ,  1-C ) :   0.8825 B(  0-C ,  7-H ) :   0.9696 B(  0-C ,  8-H ) :   0.9808
B(  0-C ,  9-H ) :   0.9832 B(  1-C ,  2-C ) :   0.9048 B(  1-C , 10-H ) :   0.9678
B(  1-C , 11-H ) :   0.9714 B(  2-C ,  3-H ) :   0.9615 B(  2-C ,  4-C ) :   0.8817
B(  2-C ,  5-C ) :   0.9254 B(  4-C , 12-H ) :   0.9818 B(  4-C , 13-H ) :   0.9725
B(  4-C , 14-H ) :   0.9666 B(  5-C ,  6-O ) :   0.9111 B(  5-C , 15-H ) :   0.9698
B(  5-C , 16-H ) :   0.9733 B(  6-O , 17-H ) :   0.8748

Dispersion correction           -0.004318576
FINAL SINGLE POINT ENERGY      -272.903645678825

DIPOLE MOMENT
-------------

Method             : SCF
Type of density    : Electron Density
Multiplicity       :   1
Irrep              :   0
Energy             :  -272.9091653159651969 Eh
Relativity type    :
Basis              : AO
                                X                 Y                 Z
Electronic contribution:      5.325909068       0.413880962       0.440049834
Nuclear contribution   :     -5.238793675      -0.009867864      -1.158117173
                        -----------------------------------------
Total Dipole Moment    :      0.087115393       0.404013098      -0.718067339
                        -----------------------------------------
Magnitude (a.u.)       :      0.828514561
Magnitude (Debye)      :      2.105916655

Rotational constants in cm-1:             0.229324             0.063409             0.054683
Rotational constants in MHz :          6874.964689          1900.960445          1639.344958

                             ****ORCA TERMINATED NORMALLY****
TOTAL RUN TIME: 0 days 0 hours 0 minutes 27 seconds 511 msec
