                         Program Version 6.0.0  -   RELEASE  -
|  1> ! r2scan-3c def2/J RI DEFGRID2 scfconv6 printgap
|  2> %output
|  3>     printlevel normal
|  4> end
|  5> * xyz 0 1
|  6> C 2.6387700121 -0.8147053876 -0.0348715711
|  7> C 1.9792843534 0.538395692 -0.2782609346
|  8> C 0.5693308851 0.634319034 0.3079436743
|  9> C -0.4138346239 -0.2882687373 -0.3940345533
| 10> S -2.1398497427 0.0081690799 0.1424821841
| 11> H 2.6495444932 -1.0473489848 1.0275143083
| 12> H 3.6653724628 -0.8000801842 -0.3923284316
| 13> H 2.1109020306 -1.6077280487 -0.5579916954
| 14> H 1.9377874172 0.7364284243 -1.351501354
| 15> H 2.5912541043 1.3184089228 0.1789478955
| 16> H 0.2113824599 1.6621845028 0.2114689241
| 17> H 0.6010501061 0.3897840551 1.37219565
| 18> H -0.4276997937 -0.1014420951 -1.4679369463
| 19> H -0.1956729728 -1.3393797016 -0.2153354868
| 20> H -1.9528148722 -0.3017399748 1.4194899537
| 21> *
| 22>
| 23>                          ****END OF INPUT****

CARTESIAN COORDINATES (ANGSTROEM)
---------------------------------
  C      2.638770   -0.814705   -0.034872
  C      1.979284    0.538396   -0.278261
  C      0.569331    0.634319    0.307944
  C     -0.413835   -0.288269   -0.394035
  S     -2.139850    0.008169    0.142482
  H      2.649544   -1.047349    1.027514
  H      3.665372   -0.800080   -0.392328
  H      2.110902   -1.607728   -0.557992
  H      1.937787    0.736428   -1.351501
  H      2.591254    1.318409    0.178948
  H      0.211382    1.662185    0.211469
  H      0.601050    0.389784    1.372196
  H     -0.427700   -0.101442   -1.467937
  H     -0.195673   -1.339380   -0.215335
  H     -1.952815   -0.301740    1.419490

 Total Charge           Charge          ....    0
 Multiplicity           Mult            ....    1
 Number of Electrons    NEL             ....   50
 Basis Dimension        Dim             ....  153

ORBITAL ENERGIES
----------------

  NO   OCC          E(Eh)            E(eV)
   0   2.0000     -88.548694     -2409.5325
   1   2.0000     -10.065029      -273.8834
   2   2.0000     -10.034277      -273.0466
   3   2.0000     -10.032635      -273.0019
   4   2.0000     -10.022465      -272.7251
   5   2.0000      -7.843895      -213.4432
   6   2.0000      -5.791074      -157.5831
   7   2.0000      -5.787376      -157.4825
   8   2.0000      -5.780903      -157.3064
   9   2.0000      -0.785440       -21.3729
  10   2.0000      -0.730946       -19.8900
  11   2.0000      -0.658046       -17.9064
  12   2.0000      -0.595010       -16.1910
  13   2.0000      -0.545760       -14.8509
  14   2.0000      -0.448910       -12.2155
  15   2.0000      -0.431305       -11.7364
  16   2.0000      -0.403869       -10.9898
  17   2.0000      -0.375471       -10.2171
  18   2.0000      -0.371454       -10.1078
  19   2.0000      -0.345801        -9.4097
  20   2.0000      -0.323636        -8.8066
  21   2.0000      -0.307548        -8.3688
  22   2.0000      -0.305596        -8.3157
  23   2.0000      -0.287880        -7.8336
  24   2.0000      -0.207284        -5.6405
  25   0.0000       0.013570         0.3693
  26   0.0000       0.053989         1.4691
  27   0.0000       0.097643         2.6570
  28   0.0000       0.113482         3.0880
  29   0.0000       0.121827         3.3151

MULLIKEN ATOMIC CHARGES
-----------------------
   0 C :   -0.481260
   1 C :   -0.232516
   2 C :   -0.243256
   3 C :   -0.257054
   4 S :   -0.256559
   5 H :    0.144264
   6 H :    0.147367
   7 H :    0.147806
   8 H :    0.133930
   9 H :    0.145413
  10 H :    0.161239
  11 H :    0.135963
  12 H :    0.151740
  13 H :    0.172465
  14 H :    0.130458
Sum of atomic charges:    0.0000000

LOEWDIN ATOMIC CHARGES
----------------------
   0 C :   -0.427070
   1 C :   -0.317933
   2 C :   -0.325280
   3 C :   -0.365620
   4 S :   -0.096105
   5 H :    0.150689
   6 H :    0.152075
   7 H :    0.148669
   8 H :    0.152377
   9 H :    0.154476
  10 H :    0.162843
  11 H :    0.154280
  12 H :    0.168799
  13 H :    0.161626
  14 H :    0.126172

  Mayer bond orders larger than 0.100000
B(  0-C ,  1-C ) :   0.8978 B(  0-C ,  5-H ) :   0.9805 B(  0-C ,  6-H ) :   0.9678
B(  0-C ,  7-H ) :   0.9826 B(  1-C ,  2-C ) :   0.8891 B(  1-C ,  8-H ) :   0.9791
B(  1-C ,  9-H ) :   0.9673 B(  2-C ,  3-C ) :   0.9056 B(  2-C , 10-H ) :   0.9667
B(  2-C , 11-H ) :   0.9747 B(  3-C ,  4-S ) :   0.9680 B(  3-C , 12-H ) :   0.9577
B(  3-C , 13-H ) :   0.9635 B(  4-S , 14-H ) :   0.9616

Dispersion correction           -0.003626287
FINAL SINGLE POINT ENERGY      -556.555105802285

DIPOLE MOMENT
-------------

Method             : SCF
Type of density    : Electron Density
Multiplicity       :   1
Irrep              :   0
Energy             :  -556.5618334635895508 Eh
Relativity type    :
Basis              : AO
                                X                 Y                 Z
Electronic contribution:     -9.825300986       0.930465198      -0.093821277
Nuclear contribution   :     10.559916336      -1.023696568       0.206597554
                        -----------------------------------------
Total Dipole Moment    :      0.734615350      -0.093231369       0.112776277
                        -----------------------------------------
Magnitude (a.u.)       :      0.749046253
Magnitude (Debye)      :      1.903924267

Rotational constants in cm-1:             0.404285             0.049888             0.047684
Rotational constants in MHz :         12120.164675          1495.601474          1429.525897

                             ****ORCA TERMINATED NORMALLY****
TOTAL RUN TIME: 0 days 0 hours 0 minutes 14 seconds 53 msec
