                         Program Version 6.0.0  -   RELEASE  -
|  1> ! r2scan-3c def2/J RI DEFGRID2 scfconv6 printgap
|  2> %output
|  3>     printlevel normal
|  4> end
|  5> %cpcm
|  6>     smd true
|  7>     smdsolvent "water"
|  8> end
|  9> * xyz 0 1
| 10> C 2.6387700121 -0.8147053876 -0.0348715711
| 11> C 1.9792843534 0.538395692 -0.2782609346
| 12> C 0.5693308851 0.634319034 0.3079436743
| 13> C -0.4138346239 -0.2882687373 -0.3940345533
| 14> S -2.1398497427 0.0081690799 0.1424821841
| 15> H 2.6495444932 -1.0473489848 1.0275143083
| 16> H 3.6653724628 -0.8000801842 -0.3923284316
| 17> H 2.1109020306 -1.6077280487 -0.5579916954
| 18> H 1.9377874172 0.7364284243 -1.351501354
| 19> H 2.5912541043 1.3184089228 0.1789478955
| 20> H 0.2113824599 1.6621845028 0.2114689241
| 21> H 0.6010501061 0.3897840551 1.37219565
| 22> H -0.4276997937 -0.1014420951 -1.4679369463
| 23> H -0.1956729728 -1.3393797016 -0.2153354868
| 24> H -1.9528148722 -0.3017399748 1.4194899537
| 25> *
| 26>
| 27>                          ****END OF INPUT****

CARTESIAN COORDINATES (ANGSTROEM)
---------------------------------
  C      2.638770   -0.814705   -0.034872
  C      1.979284    0.538396   -0.278261
  C      0.569331    0.634319    0.307944
  C     -0.413835   -0.288269   -0.394035
  S     -2.139850    0.008169    0.142482
  H      2.649544   -1.047349    1.027514
  H      3.665372   -0.800080   -0.392328
  H      2.110902   -1.607728   -0.557992
  H      1.937787    0.736428   -1.351501
  H      2.591254    1.318409    0.178948
  H      0.211382    1.662185    0.211469
  H      0.601050    0.389784    1.372196
  H     -0.427700   -0.101442   -1.467937
  H     -0.195673   -1.339380   -0.215335
  H     -1.952815   -0.301740    1.419490

 Total Charge           Charge          ....    0
 Multiplicity           Mult            ....    1
 Number of Electrons    NEL             ....   50
 Basis Dimension        Dim             ....  153

ORBITAL ENERGIES
----------------

  NO   OCC          E(Eh)            E(eV)
   0   2.0000     -88.547527     -2409.5007
   1   2.0000     -10.053756      -273.5766
   2   2.0000     -10.021658      -272.7032
   3   2.0000     -10.018707      -272.6229
   4   2.0000     -10.008057      -272.3331
   5   2.0000      -7.842856      -213.4150
   6   2.0000      -5.789775      -157.5478
   7   2.0000      -5.786185      -157.4501
   8   2.0000      -5.780316      -157.2904
   9   2.0000      -0.774295       -21.0697
  10   2.0000      -0.721310       -19.6278
  11   2.0000      -0.648413       -17.6442
  12   2.0000      -0.584529       -15.9058
  13   2.0000      -0.532824       -14.4989
  14   2.0000      -0.436940       -11.8897
  15   2.0000      -0.418572       -11.3899
  16   2.0000      -0.391689       -10.6584
  17   2.0000      -0.365796        -9.9538
  18   2.0000      -0.359328        -9.7778
  19   2.0000      -0.333618        -9.0782
  20   2.0000      -0.314000        -8.5444
  21   2.0000      -0.293202        -7.9784
  22   2.0000      -0.292639        -7.9631
  23   2.0000      -0.281309        -7.6548
  24   2.0000      -0.208357        -5.6697
  25   0.0000       0.017258         0.4696
  26   0.0000       0.060615         1.6494
  27   0.0000       0.110655         3.0111
  28   0.0000       0.124767         3.3951
  29   0.0000       0.133635         3.6364

MULLIKEN ATOMIC CHARGES
-----------------------
   0 C :   -0.516999
   1 C :   -0.247609
   2 C :   -0.256434
   3 C :   -0.250887
   4 S :   -0.340715
   5 H :    0.154922
   6 H :    0.155198
   7 H :    0.159807
   8 H :    0.145061
   9 H :    0.153487
  10 H :    0.159632
  11 H :    0.153949
  12 H :    0.173583
  13 H :    0.188275
  14 H :    0.168730
Sum of atomic charges:    0.0000000

LOEWDIN ATOMIC CHARGES
----------------------
   0 C :   -0.434599
   1 C :   -0.318096
   2 C :   -0.325854
   3 C :   -0.360016
   4 S :   -0.136492
   5 H :    0.153378
   6 H :    0.153140
   7 H :    0.152244
   8 H :    0.155512
   9 H :    0.156509
  10 H :    0.161148
  11 H :    0.159357
  12 H :    0.176137
  13 H :    0.168690
  14 H :    0.138942

  Mayer bond orders larger than 0.100000
B(  0-C ,  1-C ) :   0.8956 B(  0-C ,  5-H ) :   0.9778 B(  0-C ,  6-H ) :   0.9669
B(  0-C ,  7-H ) :   0.9789 B(  1-C ,  2-C ) :   0.8902 B(  1-C ,  8-H ) :   0.9792
B(  1-C ,  9-H ) :   0.9676 B(  2-C ,  3-C ) :   0.9038 B(  2-C , 10-H ) :   0.9678
B(  2-C , 11-H ) :   0.9731 B(  3-C ,  4-S ) :   0.9483 B(  3-C , 12-H ) :   0.9509
B(  3-C , 13-H ) :   0.9569 B(  4-S , 14-H ) :   0.9552

Dispersion correction           -0.003626287
FINAL SINGLE POINT ENERGY      -556.557164602059

DIPOLE MOMENT
-------------

Method             : SCF
Type of density    : Electron Density
Multiplicity       :   1
Irrep              :   0
Energy             :  -556.5638922633639822 Eh
Relativity type    :
Basis              : AO
                                X                 Y                 Z
Electronic contribution:     -9.609423594       0.861316211      -0.066976683
Nuclear contribution   :     10.559916336      -1.023696568       0.206597554
                        -----------------------------------------
Total Dipole Moment    :      0.950492742      -0.162380357       0.139620871
                        -----------------------------------------
Magnitude (a.u.)       :      0.974319157
Magnitude (Debye)      :      2.476522485

Rotational constants in cm-1:             0.404285             0.049888             0.047684
Rotational constants in MHz :         12120.164675          1495.601474          1429.525897

                             ****ORCA TERMINATED NORMALLY****
TOTAL RUN TIME: 0 days 0 hours 0 minutes 16 seconds 470 msec
