                         Program Version 6.0.0  -   RELEASE  -
|  1> ! r2scan-3c def2/J RI DEFGRID2 scfconv6 printgap
|  2> %output
|  3>     printlevel normal
|  4> end
|  5> * xyz 0 1
|  6> C 2.0800084961 0.1689333054 -1.1122641709
|  7> C 1.6654775393 -0.5670481823 0.1561842408
|  8> C 0.2760441567 -0.1834402382 0.6980166075
|  9> H 0.1257654468 -0.7850713373 1.612213723
| 10> C -0.8878412481 -0.5213699752 -0.2638097595
| 11> C -2.1152285753 -0.9567563229 0.5382130378
| 12> C -1.2694119642 0.651228393 -1.1659157941
| 13> O 0.2060361616 1.1877231547 1.0449444348
| 14> H 1.9231389769 1.2384476749 -0.9937454242
| 15> H 1.5062005447 -0.1769303296 -1.9674070537
| 16> H 3.1335782833 -0.0069991396 -1.3162585258
| 17> H 1.6750973593 -1.6442215866 -0.0184041623
| 18> H 2.3971264386 -0.3558556961 0.941286763
| 19> H -0.5663938896 -1.3613356197 -0.8881663776
| 20> H -2.421501047 -0.1563676612 1.2080148878
| 21> H -2.9418438178 -1.1834338707 -0.1304826798
| 22> H -1.8982063507 -1.8431965815 1.1301742004
| 23> H -0.4328742823 0.9756199184 -1.7749043242
| 24> H -1.5932392464 1.4920963346 -0.5586439788
| 25> H -2.0848020713 0.3566049997 -1.8223337947
| 26> H 0.8978908018 1.3810639516 1.6905442402
| 27> *
| 28>
| 29>                          ****END OF INPUT****

CARTESIAN COORDINATES (ANGSTROEM)
---------------------------------
  C      2.080008    0.168933   -1.112264
  C      1.665478   -0.567048    0.156184
  C      0.276044   -0.183440    0.698017
  H      0.125765   -0.785071    1.612214
  C     -0.887841   -0.521370   -0.263810
  C     -2.115229   -0.956756    0.538213
  C     -1.269412    0.651228   -1.165916
  O      0.206036    1.187723    1.044944
  H      1.923139    1.238448   -0.993745
  H      1.506201   -0.176930   -1.967407
  H      3.133578   -0.006999   -1.316259
  H      1.675097   -1.644222   -0.018404
  H      2.397126   -0.355856    0.941287
  H     -0.566394   -1.361336   -0.888166
  H     -2.421501   -0.156368    1.208015
  H     -2.941844   -1.183434   -0.130483
  H     -1.898206   -1.843197    1.130174
  H     -0.432874    0.975620   -1.774904
  H     -1.593239    1.492096   -0.558644
  H     -2.084802    0.356605   -1.822334
  H      0.897891    1.381064    1.690544

 Total Charge           Charge          ....    0
 Multiplicity           Mult            ....    1
 Number of Electrons    NEL             ....   58
 Basis Dimension        Dim             ....  208

ORBITAL ENERGIES
----------------

  NO   OCC          E(Eh)            E(eV)
   0   2.0000     -18.946703      -515.5660
   1   2.0000     -10.076689      -274.2006
   2   2.0000     -10.030998      -272.9573
   3   2.0000     -10.026746      -272.8416
   4   2.0000     -10.014790      -272.5163
   5   2.0000     -10.010987      -272.4128
   6   2.0000     -10.004951      -272.2486
   7   2.0000      -0.985499       -26.8168
   8   2.0000      -0.768900       -20.9228
   9   2.0000      -0.727989       -19.8096
  10   2.0000      -0.645692       -17.5702
  11   2.0000      -0.636895       -17.3308
  12   2.0000      -0.567929       -15.4541
  13   2.0000      -0.523170       -14.2362
  14   2.0000      -0.464889       -12.6503
  15   2.0000      -0.432814       -11.7775
  16   2.0000      -0.426112       -11.5951
  17   2.0000      -0.402874       -10.9628
  18   2.0000      -0.389782       -10.6065
  19   2.0000      -0.356835        -9.7100
  20   2.0000      -0.348382        -9.4800
  21   2.0000      -0.339764        -9.2454
  22   2.0000      -0.335758        -9.1364
  23   2.0000      -0.324121        -8.8198
  24   2.0000      -0.302759        -8.2385
  25   2.0000      -0.296725        -8.0743
  26   2.0000      -0.294088        -8.0025
  27   2.0000      -0.270345        -7.3565
  28   2.0000      -0.230800        -6.2804
  29   0.0000       0.055859         1.5200
  30   0.0000       0.102296         2.7836
  31   0.0000       0.108257         2.9458
  32   0.0000       0.117755         3.2043
  33   0.0000       0.120457         3.2778

MULLIKEN ATOMIC CHARGES
-----------------------
   0 C :   -0.514503
   1 C :   -0.287127
   2 C :    0.053462
   3 H :    0.128931
   4 C :   -0.037952
   5 C :   -0.510685
   6 C :   -0.510045
   7 O :   -0.425291
   8 H :    0.172261
   9 H :    0.153095
  10 H :    0.146184
  11 H :    0.148220
  12 H :    0.133825
  13 H :    0.144964
  14 H :    0.163261
  15 H :    0.143930
  16 H :    0.142569
  17 H :    0.151517
  18 H :    0.174961
  19 H :    0.139969
  20 H :    0.288455
Sum of atomic charges:   -0.0000000

LOEWDIN ATOMIC CHARGES
----------------------
   0 C :   -0.424226
   1 C :   -0.295690
   2 C :    0.060038
   3 H :    0.167164
   4 C :   -0.211351
   5 C :   -0.412600
   6 C :   -0.400238
   7 O :   -0.623650
   8 H :    0.159912
   9 H :    0.151621
  10 H :    0.149840
  11 H :    0.158746
  12 H :    0.151920
  13 H :    0.160048
  14 H :    0.160165
  15 H :    0.152018
  16 H :    0.150511
  17 H :    0.157025
  18 H :    0.169639
  19 H :    0.149753
  20 H :    0.269355

  Mayer bond orders larger than 0.100000
B(  0-C ,  1-C ) :   0.8602 B(  0-C ,  8-H ) :   0.9812 B(  0-C ,  9-H ) :   0.9781
B(  0-C , 10-H ) :   0.9677 B(  1-C ,  2-C ) :   0.9006 B(  1-C , 11-H ) :   0.9833
B(  1-C , 12-H ) :   0.9833 B(  2-C ,  3-H ) :   0.9786 B(  2-C ,  4-C ) :   0.9088
B(  2-C ,  7-O ) :   0.8891 B(  4-C ,  5-C ) :   0.8991 B(  4-C ,  6-C ) :   0.9070
B(  4-C , 13-H ) :   0.9610 B(  5-C , 14-H ) :   0.9830 B(  5-C , 15-H ) :   0.9779
B(  5-C , 16-H ) :   0.9779 B(  6-C , 17-H ) :   0.9577 B(  6-C , 18-H ) :   0.9859
B(  6-C , 19-H ) :   0.9756 B(  7-O , 20-H ) :   0.8992

Dispersion correction           -0.005767190
FINAL SINGLE POINT ENERGY      -312.198355918761

DIPOLE MOMENT
-------------

Method             : SCF
Type of density    : Electron Density
Multiplicity       :   1
Irrep              :   0
Energy             :  -312.2038183750440794 Eh
Relativity type    :
Basis              : AO
                                X                 Y                 Z
Electronic contribution:      0.681598132       1.599858036       2.910779686
Nuclear contribution   :     -0.259687024      -1.923976791      -2.694014090
                        -----------------------------------------
Total Dipole Moment    :      0.421911108      -0.324118755       0.216765597
                        -----------------------------------------
Magnitude (a.u.)       :      0.574499151
Magnitude (Debye)      :      1.460260792

Rotational constants in cm-1:             0.118949             0.058973             0.055141
Rotational constants in MHz :          3566.010662          1767.976088          1653.075114

                             ****ORCA TERMINATED NORMALLY****
TOTAL RUN TIME: 0 days 0 hours 0 minutes 27 seconds 549 msec
