                         Program Version 6.0.0  -   RELEASE  -
|  1> ! r2scan-3c def2/J RI DEFGRID2 scfconv6 printgap
|  2> %output
|  3>     printlevel normal
|  4> end
|  5> %cpcm
|  6>     smd true
|  7>     smdsolvent "water"
|  8> end
|  9> * xyz 0 1
| 10> C 2.0800084961 0.1689333054 -1.1122641709
| 11> C 1.6654775393 -0.5670481823 0.1561842408
| 12> C 0.2760441567 -0.1834402382 0.6980166075
| 13> H 0.1257654468 -0.7850713373 1.612213723
| 14> C -0.8878412481 -0.5213699752 -0.2638097595
| 15> C -2.1152285753 -0.9567563229 0.5382130378
| 16> C -1.2694119642 0.651228393 -1.1659157941
| 17> O 0.2060361616 1.1877231547 1.0449444348
| 18> H 1.9231389769 1.2384476749 -0.9937454242
| 19> H 1.5062005447 -0.1769303296 -1.9674070537
| 20> H 3.1335782833 -0.0069991396 -1.3162585258
| 21> H 1.6750973593 -1.6442215866 -0.0184041623
| 22> H 2.3971264386 -0.3558556961 0.941286763
| 23> H -0.5663938896 -1.3613356197 -0.8881663776
| 24> H -2.421501047 -0.1563676612 1.2080148878
| 25> H -2.9418438178 -1.1834338707 -0.1304826798
| 26> H -1.8982063507 -1.8431965815 1.1301742004
| 27> H -0.4328742823 0.9756199184 -1.7749043242
| 28> H -1.5932392464 1.4920963346 -0.5586439788
| 29> H -2.0848020713 0.3566049997 -1.8223337947
| 30> H 0.8978908018 1.3810639516 1.6905442402
| 31> *
| 32>
| 33>                          ****END OF INPUT****

CARTESIAN COORDINATES (ANGSTROEM)
---------------------------------
  C      2.080008    0.168933   -1.112264
  C      1.665478   -0.567048    0.156184
  C      0.276044   -0.183440    0.698017
  H      0.125765   -0.785071    1.612214
  C     -0.887841   -0.521370   -0.263810
  C     -2.115229   -0.956756    0.538213
  C     -1.269412    0.651228   -1.165916
  O      0.206036    1.187723    1.044944
  H      1.923139    1.238448   -0.993745
  H      1.506201   -0.176930   -1.967407
  H      3.133578   -0.006999   -1.316259
  H      1.675097   -1.644222   -0.018404
  H      2.397126   -0.355856    0.941287
  H     -0.566394   -1.361336   -0.888166
  H     -2.421501   -0.156368    1.208015
  H     -2.941844   -1.183434   -0.130483
  H     -1.898206   -1.843197    1.130174
  H     -0.432874    0.975620   -1.774904
  H     -1.593239    1.492096   -0.558644
  H     -2.084802    0.356605   -1.822334
  H      0.897891    1.381064    1.690544

 Total Charge           Charge          ....    0
 Multiplicity           Mult            ....    1
 Number of Electrons    NEL             ....   58
 Basis Dimension        Dim             ....  208

ORBITAL ENERGIES
----------------

  NO   OCC          E(Eh)            E(eV)
   0   2.0000     -18.947277      -515.5816
   1   2.0000     -10.070695      -274.0375
   2   2.0000     -10.025971      -272.8205
   3   2.0000     -10.016134      -272.5529
   4   2.0000     -10.007473      -272.3172
   5   2.0000     -10.006515      -272.2911
   6   2.0000     -10.004844      -272.2456
   7   2.0000      -0.985099       -26.8059
   8   2.0000      -0.764161       -20.7939
   9   2.0000      -0.720958       -19.6183
  10   2.0000      -0.643628       -17.5140
  11   2.0000      -0.631814       -17.1925
  12   2.0000      -0.561188       -15.2707
  13   2.0000      -0.519306       -14.1310
  14   2.0000      -0.459837       -12.5128
  15   2.0000      -0.428224       -11.6526
  16   2.0000      -0.420150       -11.4329
  17   2.0000      -0.398601       -10.8465
  18   2.0000      -0.384702       -10.4683
  19   2.0000      -0.355298        -9.6682
  20   2.0000      -0.344909        -9.3854
  21   2.0000      -0.335710        -9.1351
  22   2.0000      -0.332498        -9.0477
  23   2.0000      -0.318803        -8.6751
  24   2.0000      -0.296868        -8.0782
  25   2.0000      -0.294110        -8.0031
  26   2.0000      -0.291441        -7.9305
  27   2.0000      -0.265532        -7.2255
  28   2.0000      -0.231201        -6.2913
  29   0.0000       0.070051         1.9062
  30   0.0000       0.111916         3.0454
  31   0.0000       0.116703         3.1756
  32   0.0000       0.124553         3.3893
  33   0.0000       0.127290         3.4637

MULLIKEN ATOMIC CHARGES
-----------------------
   0 C :   -0.551042
   1 C :   -0.295794
   2 C :    0.058050
   3 H :    0.141054
   4 C :   -0.012352
   5 C :   -0.546725
   6 C :   -0.562984
   7 O :   -0.507385
   8 H :    0.166450
   9 H :    0.164998
  10 H :    0.158423
  11 H :    0.160477
  12 H :    0.154416
  13 H :    0.161439
  14 H :    0.161535
  15 H :    0.157027
  16 H :    0.158910
  17 H :    0.165481
  18 H :    0.168694
  19 H :    0.156835
  20 H :    0.342494
Sum of atomic charges:   -0.0000000

LOEWDIN ATOMIC CHARGES
----------------------
   0 C :   -0.430977
   1 C :   -0.293942
   2 C :    0.062556
   3 H :    0.173762
   4 C :   -0.210846
   5 C :   -0.420329
   6 C :   -0.410955
   7 O :   -0.655967
   8 H :    0.156044
   9 H :    0.154358
  10 H :    0.153311
  11 H :    0.163337
  12 H :    0.159577
  13 H :    0.166567
  14 H :    0.157923
  15 H :    0.155200
  16 H :    0.155548
  17 H :    0.158885
  18 H :    0.163703
  19 H :    0.155069
  20 H :    0.287176

  Mayer bond orders larger than 0.100000
B(  0-C ,  1-C ) :   0.8464 B(  0-C ,  8-H ) :   0.9823 B(  0-C ,  9-H ) :   0.9759
B(  0-C , 10-H ) :   0.9647 B(  1-C ,  2-C ) :   0.9036 B(  1-C , 11-H ) :   0.9817
B(  1-C , 12-H ) :   0.9808 B(  2-C ,  3-H ) :   0.9743 B(  2-C ,  4-C ) :   0.9090
B(  2-C ,  7-O ) :   0.8763 B(  4-C ,  5-C ) :   0.8944 B(  4-C ,  6-C ) :   0.8795
B(  4-C , 13-H ) :   0.9552 B(  5-C , 14-H ) :   0.9815 B(  5-C , 15-H ) :   0.9759
B(  5-C , 16-H ) :   0.9744 B(  6-C , 17-H ) :   0.9609 B(  6-C , 18-H ) :   0.9886
B(  6-C , 19-H ) :   0.9710 B(  7-O , 20-H ) :   0.8739

Dispersion correction           -0.005767190
FINAL SINGLE POINT ENERGY      -312.202918733246

DIPOLE MOMENT
-------------

Method             : SCF
Type of density    : Electron Density
Multiplicity       :   1
Irrep              :   0
Energy             :  -312.2083811895291205 Eh
Relativity type    :
Basis              : AO
                                X                 Y                 Z
Electronic contribution:      0.871053822       1.344878624       2.987772982
Nuclear contribution   :     -0.259687024      -1.923976791      -2.694014090
                        -----------------------------------------
Total Dipole Moment    :      0.611366798      -0.579098167       0.293758893
                        -----------------------------------------
Magnitude (a.u.)       :      0.891862285
Magnitude (Debye)      :      2.266933772

Rotational constants in cm-1:             0.118949             0.058973             0.055141
Rotational constants in MHz :          3566.010662          1767.976088          1653.075114

                             ****ORCA TERMINATED NORMALLY****
TOTAL RUN TIME: 0 days 0 hours 0 minutes 32 seconds 819 msec
