                         Program Version 6.0.0  -   RELEASE  -
|  1> ! pbe def2-sv(p) def2/J RI DEFGRID1 loosescf d4 GCP(DFT/SV(P)) printgap
|  2> %output
|  3>     printlevel normal
|  4> end
|  5> * xyz 0 1
|  6> C 1.7631864803 1.5307651916 0.2633814551
|  7> C 1.30168311 0.0923536829 0.5251587433
|  8> C 2.3612915335 -0.9036819735 0.0524646995
|  9> C 0.010412967 -0.1329392209 -0.2428915244
| 10> O 0.0070995304 -0.2429255119 -1.4519835514
| 11> C -1.281057904 -0.1703740495 0.5562699962
| 12> C -2.133545814 -1.3557042194 0.1020105539
| 13> C -2.0242922654 1.1486652918 0.3144917653
| 14> H 1.0379849395 2.2456176507 0.6439276651
| 15> H 1.8818071066 1.6912823426 -0.8058736545
| 16> H 2.7167129016 1.7070025398 0.7536006485
| 17> H 1.1260406923 -0.0392636659 1.5952247848
| 18> H 2.0589456991 -1.9217022519 0.2875097638
| 19> H 2.4871545006 -0.82289753 -1.0248173379
| 20> H 3.3120314323 -0.6992897377 0.5366999044
| 21> H -1.0570975474 -0.2662834105 1.6211044799
| 22> H -1.6309422185 -2.2940635522 0.3253608357
| 23> H -3.0947961789 -1.3433775891 0.6079883862
| 24> H -2.2970709841 -1.3008655074 -0.9718422237
| 25> H -2.198729479 1.2839366356 -0.7506004561
| 26> H -2.9814232619 1.1320964169 0.8284998015
| 27> H -1.4456458549 1.9923736534 0.681977816
| 28> *
| 29>
| 30>                          ****END OF INPUT****

CARTESIAN COORDINATES (ANGSTROEM)
---------------------------------
  C      1.763186    1.530765    0.263381
  C      1.301683    0.092354    0.525159
  C      2.361292   -0.903682    0.052465
  C      0.010413   -0.132939   -0.242892
  O      0.007100   -0.242926   -1.451984
  C     -1.281058   -0.170374    0.556270
  C     -2.133546   -1.355704    0.102011
  C     -2.024292    1.148665    0.314492
  H      1.037985    2.245618    0.643928
  H      1.881807    1.691282   -0.805874
  H      2.716713    1.707003    0.753601
  H      1.126041   -0.039264    1.595225
  H      2.058946   -1.921702    0.287510
  H      2.487155   -0.822898   -1.024817
  H      3.312031   -0.699290    0.536700
  H     -1.057098   -0.266283    1.621104
  H     -1.630942   -2.294064    0.325361
  H     -3.094796   -1.343378    0.607988
  H     -2.297071   -1.300866   -0.971842
  H     -2.198729    1.283937   -0.750600
  H     -2.981423    1.132096    0.828500
  H     -1.445646    1.992374    0.681978

 Total Charge           Charge          ....    0
 Multiplicity           Mult            ....    1
 Number of Electrons    NEL             ....   64
 Basis Dimension        Dim             ....  140

ORBITAL ENERGIES
----------------

  NO   OCC          E(Eh)            E(eV)
   0   2.0000     -18.737585      -509.8756
   1   2.0000      -9.965884      -271.1855
   2   2.0000      -9.900993      -269.4197
   3   2.0000      -9.900917      -269.4176
   4   2.0000      -9.884125      -268.9607
   5   2.0000      -9.884061      -268.9590
   6   2.0000      -9.876900      -268.7641
   7   2.0000      -9.876779      -268.7608
   8   2.0000      -0.936480       -25.4829
   9   2.0000      -0.732759       -19.9394
  10   2.0000      -0.714939       -19.4545
  11   2.0000      -0.619578       -16.8596
  12   2.0000      -0.614345       -16.7172
  13   2.0000      -0.585316       -15.9273
  14   2.0000      -0.518612       -14.1122
  15   2.0000      -0.457399       -12.4465
  16   2.0000      -0.444111       -12.0849
  17   2.0000      -0.412846       -11.2341
  18   2.0000      -0.395735       -10.7685
  19   2.0000      -0.389744       -10.6055
  20   2.0000      -0.374762       -10.1978
  21   2.0000      -0.358855        -9.7649
  22   2.0000      -0.349153        -9.5009
  23   2.0000      -0.343542        -9.3483
  24   2.0000      -0.340085        -9.2542
  25   2.0000      -0.322249        -8.7688
  26   2.0000      -0.315378        -8.5819
  27   2.0000      -0.302229        -8.2241
  28   2.0000      -0.301393        -8.2013
  29   2.0000      -0.289464        -7.8767
  30   2.0000      -0.287130        -7.8132
  31   2.0000      -0.193407        -5.2629
  32   0.0000      -0.052858        -1.4384
  33   0.0000       0.023561         0.6411
  34   0.0000       0.060884         1.6567
  35   0.0000       0.063927         1.7395
  36   0.0000       0.070930         1.9301

MULLIKEN ATOMIC CHARGES
-----------------------
   0 C :   -0.257846
   1 C :   -0.154841
   2 C :   -0.242908
   3 C :    0.050071
   4 O :   -0.175370
   5 C :   -0.155302
   6 C :   -0.242560
   7 C :   -0.257590
   8 H :    0.108218
   9 H :    0.115510
  10 H :    0.107563
  11 H :    0.068980
  12 H :    0.101577
  13 H :    0.116947
  14 H :    0.099310
  15 H :    0.069204
  16 H :    0.101584
  17 H :    0.099259
  18 H :    0.116919
  19 H :    0.115378
  20 H :    0.107674
  21 H :    0.108222
Sum of atomic charges:   -0.0000000

LOEWDIN ATOMIC CHARGES
----------------------
   0 C :   -0.318889
   1 C :   -0.179478
   2 C :   -0.323319
   3 C :    0.075303
   4 O :   -0.127332
   5 C :   -0.179561
   6 C :   -0.323445
   7 C :   -0.318771
   8 H :    0.118128
   9 H :    0.126793
  10 H :    0.121755
  11 H :    0.116365
  12 H :    0.119437
  13 H :    0.126512
  14 H :    0.118720
  15 H :    0.116419
  16 H :    0.119456
  17 H :    0.118709
  18 H :    0.126500
  19 H :    0.126779
  20 H :    0.121800
  21 H :    0.118119

  Mayer bond orders larger than 0.100000
B(  0-C ,  1-C ) :   1.0966 B(  0-C ,  8-H ) :   0.9457 B(  0-C ,  9-H ) :   0.9452
B(  0-C , 10-H ) :   0.9469 B(  1-C ,  2-C ) :   1.1001 B(  1-C ,  3-C ) :   0.9458
B(  1-C , 11-H ) :   0.8947 B(  2-C , 12-H ) :   0.9539 B(  2-C , 13-H ) :   0.9417
B(  2-C , 14-H ) :   0.9487 B(  3-C ,  4-O ) :   2.1525 B(  3-C ,  5-C ) :   0.9461
B(  5-C ,  6-C ) :   1.1002 B(  5-C ,  7-C ) :   1.0962 B(  5-C , 15-H ) :   0.8947
B(  6-C , 16-H ) :   0.9539 B(  6-C , 17-H ) :   0.9486 B(  6-C , 18-H ) :   0.9416
B(  7-C , 19-H ) :   0.9453 B(  7-C , 20-H ) :   0.9468 B(  7-C , 21-H ) :   0.9457

Dispersion correction           -0.018769738
FINAL SINGLE POINT ENERGY      -349.568406040072

DIPOLE MOMENT
-------------

Method             : SCF
Type of density    : Electron Density
Multiplicity       :   1
Irrep              :   0
Energy             :  -349.6421076579615033 Eh
Relativity type    :
Basis              : AO
                                X                 Y                 Z
Electronic contribution:      0.075332950      -1.123240569      -3.150290937
Nuclear contribution   :     -0.079665198       1.276584034       4.039550387
                        -----------------------------------------
Total Dipole Moment    :     -0.004332248       0.153343465       0.889259450
                        -----------------------------------------
Magnitude (a.u.)       :      0.902394235
Magnitude (Debye)      :      2.293703862

Rotational constants in cm-1:             0.104055             0.045394             0.039116
Rotational constants in MHz :          3119.498170          1360.864813          1172.673893

                             ****ORCA TERMINATED NORMALLY****
TOTAL RUN TIME: 0 days 0 hours 0 minutes 10 seconds 772 msec
