                         Program Version 6.0.0  -   RELEASE  -
|  1> ! pbe def2-sv(p) def2/J RI DEFGRID1 loosescf d4 GCP(DFT/SV(P)) printgap
|  2> %output
|  3>     printlevel normal
|  4> end
|  5> * xyz 0 1
|  6> C 2.0076926708 -0.984554932 0.2229012599
|  7> C 1.215498077 0.1240017328 0.9090602722
|  8> C 0.1685156571 0.8284120033 0.0280350732
|  9> H -0.0497605125 1.7945946257 0.5194296782
| 10> C -1.1957586599 0.1193428227 -0.1384077826
| 11> C -1.0977293054 -1.2520908514 -0.801641136
| 12> C -1.9488922437 0.0277772839 1.1865654358
| 13> O 0.767313869 1.0880476624 -1.2311429581
| 14> H 1.4026398002 -1.8668908207 0.0465842012
| 15> H 2.8503456277 -1.2669071028 0.8498236239
| 16> H 2.3875697874 -0.6271934598 -0.7301975258
| 17> H 0.7231178989 -0.2586659915 1.8021915508
| 18> H 1.9256113123 0.8917232178 1.2247524322
| 19> H -1.7791180492 0.768754509 -0.8057316256
| 20> H -0.7568294647 -1.9999401985 -0.0913223982
| 21> H -2.0750896906 -1.5569690418 -1.1692028348
| 22> H -0.4059153785 -1.2177366479 -1.639393672
| 23> H -2.0119705881 1.0030853481 1.6638973473
| 24> H -1.4550663994 -0.6595447252 1.8684385961
| 25> H -2.9577977857 -0.3371610135 1.0112573276
| 26> H 0.1592845198 1.6119878716 -1.7685845147
| 27> *
| 28>
| 29>                          ****END OF INPUT****

CARTESIAN COORDINATES (ANGSTROEM)
---------------------------------
  C      2.007693   -0.984555    0.222901
  C      1.215498    0.124002    0.909060
  C      0.168516    0.828412    0.028035
  H     -0.049761    1.794595    0.519430
  C     -1.195759    0.119343   -0.138408
  C     -1.097729   -1.252091   -0.801641
  C     -1.948892    0.027777    1.186565
  O      0.767314    1.088048   -1.231143
  H      1.402640   -1.866891    0.046584
  H      2.850346   -1.266907    0.849824
  H      2.387570   -0.627193   -0.730198
  H      0.723118   -0.258666    1.802192
  H      1.925611    0.891723    1.224752
  H     -1.779118    0.768755   -0.805732
  H     -0.756829   -1.999940   -0.091322
  H     -2.075090   -1.556969   -1.169203
  H     -0.405915   -1.217737   -1.639394
  H     -2.011971    1.003085    1.663897
  H     -1.455066   -0.659545    1.868439
  H     -2.957798   -0.337161    1.011257
  H      0.159285    1.611988   -1.768585

 Total Charge           Charge          ....    0
 Multiplicity           Mult            ....    1
 Number of Electrons    NEL             ....   58
 Basis Dimension        Dim             ....  126

ORBITAL ENERGIES
----------------

  NO   OCC          E(Eh)            E(eV)
   0   2.0000     -18.740386      -509.9518
   1   2.0000      -9.932568      -270.2789
   2   2.0000      -9.893982      -269.2289
   3   2.0000      -9.879123      -268.8246
   4   2.0000      -9.875385      -268.7229
   5   2.0000      -9.868665      -268.5400
   6   2.0000      -9.861483      -268.3446
   7   2.0000      -0.917601       -24.9692
   8   2.0000      -0.724463       -19.7136
   9   2.0000      -0.679100       -18.4793
  10   2.0000      -0.612181       -16.6583
  11   2.0000      -0.597145       -16.2492
  12   2.0000      -0.532630       -14.4936
  13   2.0000      -0.496705       -13.5160
  14   2.0000      -0.446422       -12.1478
  15   2.0000      -0.430014       -11.7013
  16   2.0000      -0.393821       -10.7164
  17   2.0000      -0.374752       -10.1975
  18   2.0000      -0.368284       -10.0215
  19   2.0000      -0.354031        -9.6337
  20   2.0000      -0.341182        -9.2840
  21   2.0000      -0.328144        -8.9293
  22   2.0000      -0.317959        -8.6521
  23   2.0000      -0.301871        -8.2143
  24   2.0000      -0.297878        -8.1057
  25   2.0000      -0.282070        -7.6755
  26   2.0000      -0.280401        -7.6301
  27   2.0000      -0.257674        -7.0117
  28   2.0000      -0.210134        -5.7180
  29   0.0000       0.019015         0.5174
  30   0.0000       0.048555         1.3212
  31   0.0000       0.063624         1.7313
  32   0.0000       0.071131         1.9356
  33   0.0000       0.085070         2.3149

MULLIKEN ATOMIC CHARGES
-----------------------
   0 C :   -0.281027
   1 C :   -0.172387
   2 C :    0.066011
   3 H :    0.049568
   4 C :   -0.185070
   5 C :   -0.244072
   6 C :   -0.257703
   7 O :   -0.417242
   8 H :    0.098235
   9 H :    0.095446
  10 H :    0.117141
  11 H :    0.086469
  12 H :    0.084377
  13 H :    0.052772
  14 H :    0.106812
  15 H :    0.094058
  16 H :    0.106894
  17 H :    0.097191
  18 H :    0.107130
  19 H :    0.099760
  20 H :    0.295639
Sum of atomic charges:   -0.0000000

LOEWDIN ATOMIC CHARGES
----------------------
   0 C :   -0.345968
   1 C :   -0.235197
   2 C :   -0.046075
   3 H :    0.093658
   4 C :   -0.170604
   5 C :   -0.334415
   6 C :   -0.330592
   7 O :   -0.325093
   8 H :    0.114568
   9 H :    0.117011
  10 H :    0.125607
  11 H :    0.118222
  12 H :    0.121517
  13 H :    0.106961
  14 H :    0.116701
  15 H :    0.117441
  16 H :    0.119932
  17 H :    0.116318
  18 H :    0.117275
  19 H :    0.120660
  20 H :    0.282072

  Mayer bond orders larger than 0.100000
B(  0-C ,  1-C ) :   1.1676 B(  0-C ,  8-H ) :   0.9452 B(  0-C ,  9-H ) :   0.9497
B(  0-C , 10-H ) :   0.9428 B(  1-C ,  2-C ) :   1.0683 B(  1-C , 11-H ) :   0.9225
B(  1-C , 12-H ) :   0.9152 B(  2-C ,  3-H ) :   0.9020 B(  2-C ,  4-C ) :   1.0291
B(  2-C ,  7-O ) :   1.0467 B(  4-C ,  5-C ) :   1.1154 B(  4-C ,  6-C ) :   1.1016
B(  4-C , 13-H ) :   0.8914 B(  5-C , 14-H ) :   0.9405 B(  5-C , 15-H ) :   0.9456
B(  5-C , 16-H ) :   0.9364 B(  6-C , 17-H ) :   0.9479 B(  6-C , 18-H ) :   0.9412
B(  6-C , 19-H ) :   0.9466 B(  7-O , 20-H ) :   0.8485

Dispersion correction           -0.017269722
FINAL SINGLE POINT ENERGY      -311.515048207931

DIPOLE MOMENT
-------------

Method             : SCF
Type of density    : Electron Density
Multiplicity       :   1
Irrep              :   0
Energy             :  -311.5944990029433370 Eh
Relativity type    :
Basis              : AO
                                X                 Y                 Z
Electronic contribution:      1.377820856       3.715349963      -2.546207544
Nuclear contribution   :     -1.905260821      -3.474630964       2.591645635
                        -----------------------------------------
Total Dipole Moment    :     -0.527439964       0.240718999       0.045438091
                        -----------------------------------------
Magnitude (a.u.)       :      0.581552382
Magnitude (Debye)      :      1.478188681

Rotational constants in cm-1:             0.105295             0.062399             0.058859
Rotational constants in MHz :          3156.657696          1870.675356          1764.543992

                             ****ORCA TERMINATED NORMALLY****
TOTAL RUN TIME: 0 days 0 hours 0 minutes 9 seconds 388 msec
