                         Program Version 6.0.0  -   RELEASE  -
|  1> ! pbe def2-sv(p) def2/J RI DEFGRID1 loosescf d4 GCP(DFT/SV(P)) printgap
|  2> %output
|  3>     printlevel normal
|  4> end
|  5> * xyz 0 1
|  6> C -1.1722039056 0.1521335502 -0.4784707387
|  7> C -0.0382645591 0.5460663852 0.4859455281
|  8> C 1.00376808 -0.5827894219 0.628955161
|  9> O 1.5638739535 -0.9753553974 -0.605742505
| 10> O 0.5665864825 1.7558139158 0.0790253017
| 11> O -2.0244270081 -0.8382955191 0.0436213607
| 12> H -0.7368776832 -0.1727305229 -1.432583545
| 13> H -1.801531775 1.0288482806 -0.6517399126
| 14> H -0.4620064263 0.7449872707 1.4755105613
| 15> H 0.5171221545 -1.4677396387 1.0434802952
| 16> H 1.7812898488 -0.2564613801 1.3270987467
| 17> H 2.2429781412 -0.3389451079 -0.8658881968
| 18> H 0.8017308747 1.6925347755 -0.8581003335
| 19> H -1.5627466068 -1.6876709524 0.0468046847
| 20> *
| 21>
| 22>                          ****END OF INPUT****

CARTESIAN COORDINATES (ANGSTROEM)
---------------------------------
  C     -1.172204    0.152134   -0.478471
  C     -0.038265    0.546066    0.485946
  C      1.003768   -0.582789    0.628955
  O      1.563874   -0.975355   -0.605743
  O      0.566586    1.755814    0.079025
  O     -2.024427   -0.838296    0.043621
  H     -0.736878   -0.172731   -1.432584
  H     -1.801532    1.028848   -0.651740
  H     -0.462006    0.744987    1.475511
  H      0.517122   -1.467740    1.043480
  H      1.781290   -0.256461    1.327099
  H      2.242978   -0.338945   -0.865888
  H      0.801731    1.692535   -0.858100
  H     -1.562747   -1.687671    0.046805

 Total Charge           Charge          ....    0
 Multiplicity           Mult            ....    1
 Number of Electrons    NEL             ....   50
 Basis Dimension        Dim             ....  100

ORBITAL ENERGIES
----------------

  NO   OCC          E(Eh)            E(eV)
   0   2.0000     -18.761862      -510.5362
   1   2.0000     -18.755800      -510.3713
   2   2.0000     -18.748725      -510.1787
   3   2.0000      -9.936866      -270.3959
   4   2.0000      -9.935793      -270.3667
   5   2.0000      -9.928346      -270.1640
   6   2.0000      -0.945324       -25.7236
   7   2.0000      -0.925103       -25.1733
   8   2.0000      -0.919988       -25.0341
   9   2.0000      -0.677740       -18.4423
  10   2.0000      -0.613223       -16.6867
  11   2.0000      -0.551520       -15.0076
  12   2.0000      -0.480854       -13.0847
  13   2.0000      -0.468602       -12.7513
  14   2.0000      -0.441886       -12.0243
  15   2.0000      -0.419089       -11.4040
  16   2.0000      -0.392893       -10.6912
  17   2.0000      -0.357387        -9.7250
  18   2.0000      -0.354430        -9.6445
  19   2.0000      -0.307852        -8.3771
  20   2.0000      -0.286637        -7.7998
  21   2.0000      -0.278445        -7.5769
  22   2.0000      -0.254518        -6.9258
  23   2.0000      -0.230543        -6.2734
  24   2.0000      -0.201902        -5.4940
  25   0.0000       0.000698         0.0190
  26   0.0000       0.022327         0.6076
  27   0.0000       0.060825         1.6551
  28   0.0000       0.068151         1.8545
  29   0.0000       0.085313         2.3215

MULLIKEN ATOMIC CHARGES
-----------------------
   0 C :    0.003448
   1 C :    0.003322
   2 C :    0.002564
   3 O :   -0.438075
   4 O :   -0.428144
   5 O :   -0.434111
   6 H :    0.068363
   7 H :    0.096892
   8 H :    0.076620
   9 H :    0.074337
  10 H :    0.091449
  11 H :    0.294005
  12 H :    0.287476
  13 H :    0.301856
Sum of atomic charges:   -0.0000000

LOEWDIN ATOMIC CHARGES
----------------------
   0 C :   -0.143099
   1 C :   -0.102595
   2 C :   -0.142575
   3 O :   -0.339384
   4 O :   -0.321608
   5 O :   -0.333794
   6 H :    0.094317
   7 H :    0.114860
   8 H :    0.118237
   9 H :    0.106381
  10 H :    0.106722
  11 H :    0.282475
  12 H :    0.276318
  13 H :    0.283744

  Mayer bond orders larger than 0.100000
B(  0-C ,  1-C ) :   1.0306 B(  0-C ,  5-O ) :   1.0730 B(  0-C ,  6-H ) :   0.9093
B(  0-C ,  7-H ) :   0.9283 B(  1-C ,  2-C ) :   1.0128 B(  1-C ,  4-O ) :   1.0220
B(  1-C ,  8-H ) :   0.8878 B(  2-C ,  3-O ) :   1.0556 B(  2-C ,  9-H ) :   0.9141
B(  2-C , 10-H ) :   0.9240 B(  3-O , 11-H ) :   0.8492 B(  4-O , 12-H ) :   0.8481
B(  5-O , 13-H ) :   0.8494

Dispersion correction           -0.009298215
FINAL SINGLE POINT ENERGY      -344.006236960291

DIPOLE MOMENT
-------------

Method             : SCF
Type of density    : Electron Density
Multiplicity       :   1
Irrep              :   0
Energy             :  -344.0797189607254722 Eh
Relativity type    :
Basis              : AO
                                X                 Y                 Z
Electronic contribution:      0.016138025       0.314883305      -0.390564004
Nuclear contribution   :      0.733311063      -0.429770504       0.072178245
                        -----------------------------------------
Total Dipole Moment    :      0.749449088      -0.114887199      -0.318385759
                        -----------------------------------------
Magnitude (a.u.)       :      0.822339648
Magnitude (Debye)      :      2.090221272

Rotational constants in cm-1:             0.143437             0.093507             0.067902
Rotational constants in MHz :          4300.119392          2803.260653          2035.664959

                             ****ORCA TERMINATED NORMALLY****
TOTAL RUN TIME: 0 days 0 hours 0 minutes 6 seconds 935 msec
