                         Program Version 6.0.0  -   RELEASE  -
|  1> ! r2scan-3c def2/J RI DEFGRID2 scfconv6 printgap
|  2> %output
|  3>     printlevel normal
|  4> end
|  5> * xyz 0 1
|  6> C -2.2269543623 0.9127648058 0.1896772524
|  7> C -0.8561028191 0.6641292488 -0.4540332707
|  8> C -0.0317473809 -0.4083150567 0.2675555243
|  9> H -0.0593049598 -0.2036842607 1.3445770704
| 10> C -0.5855686422 -1.8076085208 0.0142504858
| 11> C 1.4315136225 -0.3410363203 -0.1916404725
| 12> O 2.0594792251 0.8868417709 0.1092546202
| 13> H -3.0306558801 0.7481091034 -0.5224458194
| 14> H -2.3881795624 0.2466240342 1.0334561753
| 15> H -2.3078083293 1.9332316073 0.5543567019
| 16> H -0.2752576324 1.588442189 -0.4597193863
| 17> H -0.9788828287 0.3576892454 -1.4943974708
| 18> H -1.629904826 -1.8633829811 0.3080428436
| 19> H -0.0278653053 -2.5502145236 0.5801916862
| 20> H -0.5122865822 -2.05422734 -1.0425986386
| 21> H 1.4835741711 -0.4325476243 -1.2796746242
| 22> H 1.997804455 -1.1723096534 0.2503455343
| 23> H 2.0742782682 1.0038523207 1.0693616061
| 24> *
| 25>
| 26>                          ****END OF INPUT****

CARTESIAN COORDINATES (ANGSTROEM)
---------------------------------
  C     -2.226954    0.912765    0.189677
  C     -0.856103    0.664129   -0.454033
  C     -0.031747   -0.408315    0.267556
  H     -0.059305   -0.203684    1.344577
  C     -0.585569   -1.807609    0.014250
  C      1.431514   -0.341036   -0.191640
  O      2.059479    0.886842    0.109255
  H     -3.030656    0.748109   -0.522446
  H     -2.388180    0.246624    1.033456
  H     -2.307808    1.933232    0.554357
  H     -0.275258    1.588442   -0.459719
  H     -0.978883    0.357689   -1.494397
  H     -1.629905   -1.863383    0.308043
  H     -0.027865   -2.550215    0.580192
  H     -0.512287   -2.054227   -1.042599
  H      1.483574   -0.432548   -1.279675
  H      1.997804   -1.172310    0.250346
  H      2.074278    1.003852    1.069362

 Total Charge           Charge          ....    0
 Multiplicity           Mult            ....    1
 Number of Electrons    NEL             ....   50
 Basis Dimension        Dim             ....  179

ORBITAL ENERGIES
----------------

  NO   OCC          E(Eh)            E(eV)
   0   2.0000     -18.946893      -515.5712
   1   2.0000     -10.071217      -274.0517
   2   2.0000     -10.033866      -273.0354
   3   2.0000     -10.020401      -272.6690
   4   2.0000     -10.019409      -272.6420
   5   2.0000     -10.014945      -272.5205
   6   2.0000      -0.983995       -26.7759
   7   2.0000      -0.774665       -21.0797
   8   2.0000      -0.697182       -18.9713
   9   2.0000      -0.641606       -17.4590
  10   2.0000      -0.593679       -16.1548
  11   2.0000      -0.537205       -14.6181
  12   2.0000      -0.468112       -12.7380
  13   2.0000      -0.434473       -11.8226
  14   2.0000      -0.420140       -11.4326
  15   2.0000      -0.395464       -10.7611
  16   2.0000      -0.382889       -10.4189
  17   2.0000      -0.361577        -9.8390
  18   2.0000      -0.353725        -9.6254
  19   2.0000      -0.330733        -8.9997
  20   2.0000      -0.316205        -8.6044
  21   2.0000      -0.298450        -8.1212
  22   2.0000      -0.291824        -7.9409
  23   2.0000      -0.278404        -7.5758
  24   2.0000      -0.233139        -6.3440
  25   0.0000       0.061236         1.6663
  26   0.0000       0.089298         2.4299
  27   0.0000       0.110508         3.0071
  28   0.0000       0.116183         3.1615
  29   0.0000       0.127997         3.4830

MULLIKEN ATOMIC CHARGES
-----------------------
   0 C :   -0.514931
   1 C :   -0.236691
   2 C :   -0.062401
   3 H :    0.142896
   4 C :   -0.511640
   5 C :   -0.190002
   6 O :   -0.419877
   7 H :    0.150739
   8 H :    0.151291
   9 H :    0.151210
  10 H :    0.180331
  11 H :    0.142640
  12 H :    0.152496
  13 H :    0.147154
  14 H :    0.152472
  15 H :    0.140520
  16 H :    0.129923
  17 H :    0.293873
Sum of atomic charges:    0.0000000

LOEWDIN ATOMIC CHARGES
----------------------
   0 C :   -0.428446
   1 C :   -0.310501
   2 C :   -0.235039
   3 H :    0.155154
   4 C :   -0.413038
   5 C :    0.005380
   6 O :   -0.622783
   7 H :    0.152824
   8 H :    0.151192
   9 H :    0.152487
  10 H :    0.169306
  11 H :    0.155410
  12 H :    0.156714
  13 H :    0.153516
  14 H :    0.155857
  15 H :    0.179427
  16 H :    0.158085
  17 H :    0.264455

  Mayer bond orders larger than 0.100000
B(  0-C ,  1-C ) :   0.8255 B(  0-C ,  7-H ) :   0.9812 B(  0-C ,  8-H ) :   0.9933
B(  0-C ,  9-H ) :   0.9832 B(  1-C ,  2-C ) :   0.8731 B(  1-C , 10-H ) :   0.9786
B(  1-C , 11-H ) :   0.9756 B(  2-C ,  3-H ) :   0.9659 B(  2-C ,  4-C ) :   0.9074
B(  2-C ,  5-C ) :   0.9095 B(  4-C , 12-H ) :   0.9650 B(  4-C , 13-H ) :   0.9721
B(  4-C , 14-H ) :   0.9891 B(  5-C ,  6-O ) :   0.9662 B(  5-C , 15-H ) :   0.9759
B(  5-C , 16-H ) :   0.9837 B(  6-O , 17-H ) :   0.8958

Dispersion correction           -0.004347694
FINAL SINGLE POINT ENERGY      -272.894532966203

DIPOLE MOMENT
-------------

Method             : SCF
Type of density    : Electron Density
Multiplicity       :   1
Irrep              :   0
Energy             :  -272.9001074590896110 Eh
Relativity type    :
Basis              : AO
                                X                 Y                 Z
Electronic contribution:      5.019258344       1.902350565       0.097661073
Nuclear contribution   :     -5.274272325      -2.236947291       0.322000212
                        -----------------------------------------
Total Dipole Moment    :     -0.255013981      -0.334596726       0.419661285
                        -----------------------------------------
Magnitude (a.u.)       :      0.594224448
Magnitude (Debye)      :      1.510398512

Rotational constants in cm-1:             0.154253             0.078530             0.057250
Rotational constants in MHz :          4624.397084          2354.282857          1716.326128

                             ****ORCA TERMINATED NORMALLY****
TOTAL RUN TIME: 0 days 0 hours 0 minutes 23 seconds 169 msec
