                         Program Version 6.0.0  -   RELEASE  -
|  1> ! r2scan-3c def2/J RI DEFGRID2 scfconv6 printgap
|  2> %output
|  3>     printlevel normal
|  4> end
|  5> %cpcm
|  6>     smd true
|  7>     smdsolvent "water"
|  8> end
|  9> * xyz 0 1
| 10> C -2.2269543623 0.9127648058 0.1896772524
| 11> C -0.8561028191 0.6641292488 -0.4540332707
| 12> C -0.0317473809 -0.4083150567 0.2675555243
| 13> H -0.0593049598 -0.2036842607 1.3445770704
| 14> C -0.5855686422 -1.8076085208 0.0142504858
| 15> C 1.4315136225 -0.3410363203 -0.1916404725
| 16> O 2.0594792251 0.8868417709 0.1092546202
| 17> H -3.0306558801 0.7481091034 -0.5224458194
| 18> H -2.3881795624 0.2466240342 1.0334561753
| 19> H -2.3078083293 1.9332316073 0.5543567019
| 20> H -0.2752576324 1.588442189 -0.4597193863
| 21> H -0.9788828287 0.3576892454 -1.4943974708
| 22> H -1.629904826 -1.8633829811 0.3080428436
| 23> H -0.0278653053 -2.5502145236 0.5801916862
| 24> H -0.5122865822 -2.05422734 -1.0425986386
| 25> H 1.4835741711 -0.4325476243 -1.2796746242
| 26> H 1.997804455 -1.1723096534 0.2503455343
| 27> H 2.0742782682 1.0038523207 1.0693616061
| 28> *
| 29>
| 30>                          ****END OF INPUT****

CARTESIAN COORDINATES (ANGSTROEM)
---------------------------------
  C     -2.226954    0.912765    0.189677
  C     -0.856103    0.664129   -0.454033
  C     -0.031747   -0.408315    0.267556
  H     -0.059305   -0.203684    1.344577
  C     -0.585569   -1.807609    0.014250
  C      1.431514   -0.341036   -0.191640
  O      2.059479    0.886842    0.109255
  H     -3.030656    0.748109   -0.522446
  H     -2.388180    0.246624    1.033456
  H     -2.307808    1.933232    0.554357
  H     -0.275258    1.588442   -0.459719
  H     -0.978883    0.357689   -1.494397
  H     -1.629905   -1.863383    0.308043
  H     -0.027865   -2.550215    0.580192
  H     -0.512287   -2.054227   -1.042599
  H      1.483574   -0.432548   -1.279675
  H      1.997804   -1.172310    0.250346
  H      2.074278    1.003852    1.069362

 Total Charge           Charge          ....    0
 Multiplicity           Mult            ....    1
 Number of Electrons    NEL             ....   50
 Basis Dimension        Dim             ....  179

ORBITAL ENERGIES
----------------

  NO   OCC          E(Eh)            E(eV)
   0   2.0000     -18.949166      -515.6330
   1   2.0000     -10.064399      -273.8662
   2   2.0000     -10.023780      -272.7609
   3   2.0000     -10.013041      -272.4687
   4   2.0000     -10.008851      -272.3547
   5   2.0000     -10.006780      -272.2983
   6   2.0000      -0.985062       -26.8049
   7   2.0000      -0.765894       -20.8410
   8   2.0000      -0.689217       -18.7545
   9   2.0000      -0.633950       -17.2507
  10   2.0000      -0.586805       -15.9678
  11   2.0000      -0.528984       -14.3944
  12   2.0000      -0.462806       -12.5936
  13   2.0000      -0.426923       -11.6172
  14   2.0000      -0.413917       -11.2633
  15   2.0000      -0.389405       -10.5962
  16   2.0000      -0.378653       -10.3037
  17   2.0000      -0.353022        -9.6062
  18   2.0000      -0.343872        -9.3572
  19   2.0000      -0.322089        -8.7645
  20   2.0000      -0.312205        -8.4955
  21   2.0000      -0.293885        -7.9970
  22   2.0000      -0.282439        -7.6856
  23   2.0000      -0.273807        -7.4507
  24   2.0000      -0.234758        -6.3881
  25   0.0000       0.076602         2.0845
  26   0.0000       0.100241         2.7277
  27   0.0000       0.121193         3.2978
  28   0.0000       0.125216         3.4073
  29   0.0000       0.135584         3.6894

MULLIKEN ATOMIC CHARGES
-----------------------
   0 C :   -0.553289
   1 C :   -0.255965
   2 C :   -0.039119
   3 H :    0.163190
   4 C :   -0.556334
   5 C :   -0.192534
   6 O :   -0.507710
   7 H :    0.160634
   8 H :    0.166111
   9 H :    0.160023
  10 H :    0.165241
  11 H :    0.157072
  12 H :    0.163125
  13 H :    0.160267
  14 H :    0.164289
  15 H :    0.153169
  16 H :    0.141936
  17 H :    0.349894
Sum of atomic charges:    0.0000000

LOEWDIN ATOMIC CHARGES
----------------------
   0 C :   -0.436391
   1 C :   -0.314067
   2 C :   -0.229535
   3 H :    0.162826
   4 C :   -0.419443
   5 C :    0.004299
   6 O :   -0.660136
   7 H :    0.154951
   8 H :    0.156219
   9 H :    0.154303
  10 H :    0.162957
  11 H :    0.158425
  12 H :    0.159294
  13 H :    0.157278
  14 H :    0.158525
  15 H :    0.181697
  16 H :    0.165453
  17 H :    0.283345

  Mayer bond orders larger than 0.100000
B(  0-C ,  1-C ) :   0.8226 B(  0-C ,  7-H ) :   0.9798 B(  0-C ,  8-H ) :   0.9891
B(  0-C ,  9-H ) :   0.9805 B(  1-C ,  2-C ) :   0.8721 B(  1-C , 10-H ) :   0.9805
B(  1-C , 11-H ) :   0.9760 B(  2-C ,  3-H ) :   0.9627 B(  2-C ,  4-C ) :   0.8958
B(  2-C ,  5-C ) :   0.9106 B(  4-C , 12-H ) :   0.9634 B(  4-C , 13-H ) :   0.9695
B(  4-C , 14-H ) :   0.9860 B(  5-C ,  6-O ) :   0.9532 B(  5-C , 15-H ) :   0.9763
B(  5-C , 16-H ) :   0.9739 B(  6-O , 17-H ) :   0.8676

Dispersion correction           -0.004347694
FINAL SINGLE POINT ENERGY      -272.900239790886

DIPOLE MOMENT
-------------

Method             : SCF
Type of density    : Electron Density
Multiplicity       :   1
Irrep              :   0
Energy             :  -272.9058142837724290 Eh
Relativity type    :
Basis              : AO
                                X                 Y                 Z
Electronic contribution:      4.924403555       1.723188780       0.300097840
Nuclear contribution   :     -5.274272325      -2.236947291       0.322000212
                        -----------------------------------------
Total Dipole Moment    :     -0.349868770      -0.513758511       0.622098053
                        -----------------------------------------
Magnitude (a.u.)       :      0.879410001
Magnitude (Debye)      :      2.235282582

Rotational constants in cm-1:             0.154253             0.078530             0.057250
Rotational constants in MHz :          4624.397084          2354.282857          1716.326128

                             ****ORCA TERMINATED NORMALLY****
TOTAL RUN TIME: 0 days 0 hours 0 minutes 27 seconds 395 msec
