                         Program Version 6.0.0  -   RELEASE  -
|  1> ! pbe def2-sv(p) def2/J RI DEFGRID1 loosescf d4 GCP(DFT/SV(P)) printgap
|  2> %output
|  3>     printlevel normal
|  4> end
|  5> * xyz 0 1
|  6> C -2.2024765928 1.0387800159 0.5883438039
|  7> C -2.0893213452 -0.301832463 -0.1273998153
|  8> C -0.8170746857 -0.3816539765 -0.9760656307
|  9> C 0.4146054068 -0.3912060736 -0.108873393
| 10> O 0.5878449174 -1.1073897855 0.8547693463
| 11> O 1.3189275418 0.4873213088 -0.5303123227
| 12> C 2.5509587232 0.569134947 0.1908198677
| 13> H -3.1220787895 1.0837024726 1.1654978071
| 14> H -1.3646719307 1.1768347832 1.2693491646
| 15> H -2.2023503031 1.8566050249 -0.1283024562
| 16> H -2.9544790613 -0.4461187126 -0.7748145703
| 17> H -2.0695216299 -1.1090363332 0.6071578168
| 18> H -0.7490345933 0.4582265104 -1.6665148299
| 19> H -0.8182105759 -1.3132942641 -1.5451232989
| 20> H 3.1625891593 1.2815904875 -0.3533134083
| 21> H 3.027236924 -0.4112349505 0.2283886689
| 22> H 2.3639239514 0.9113535584 1.2093322464
| 23> *
| 24>
| 25>                          ****END OF INPUT****

CARTESIAN COORDINATES (ANGSTROEM)
---------------------------------
  C     -2.202477    1.038780    0.588344
  C     -2.089321   -0.301832   -0.127400
  C     -0.817075   -0.381654   -0.976066
  C      0.414605   -0.391206   -0.108873
  O      0.587845   -1.107390    0.854769
  O      1.318928    0.487321   -0.530312
  C      2.550959    0.569135    0.190820
  H     -3.122079    1.083702    1.165498
  H     -1.364672    1.176835    1.269349
  H     -2.202350    1.856605   -0.128302
  H     -2.954479   -0.446119   -0.774815
  H     -2.069522   -1.109036    0.607158
  H     -0.749035    0.458227   -1.666515
  H     -0.818211   -1.313294   -1.545123
  H      3.162589    1.281590   -0.353313
  H      3.027237   -0.411235    0.228389
  H      2.363924    0.911354    1.209332

 Total Charge           Charge          ....    0
 Multiplicity           Mult            ....    1
 Number of Electrons    NEL             ....   56
 Basis Dimension        Dim             ....  118

ORBITAL ENERGIES
----------------

  NO   OCC          E(Eh)            E(eV)
   0   2.0000     -18.800106      -511.5769
   1   2.0000     -18.732201      -509.7291
   2   2.0000     -10.004545      -272.2375
   3   2.0000      -9.941935      -270.5338
   4   2.0000      -9.896733      -269.3038
   5   2.0000      -9.890419      -269.1320
   6   2.0000      -9.876707      -268.7589
   7   2.0000      -1.005489       -27.3608
   8   2.0000      -0.908875       -24.7317
   9   2.0000      -0.724933       -19.7264
  10   2.0000      -0.671609       -18.2754
  11   2.0000      -0.620131       -16.8746
  12   2.0000      -0.539801       -14.6887
  13   2.0000      -0.499677       -13.5969
  14   2.0000      -0.450560       -12.2604
  15   2.0000      -0.439283       -11.9535
  16   2.0000      -0.419969       -11.4279
  17   2.0000      -0.402992       -10.9660
  18   2.0000      -0.389340       -10.5945
  19   2.0000      -0.361834        -9.8460
  20   2.0000      -0.355511        -9.6740
  21   2.0000      -0.342079        -9.3084
  22   2.0000      -0.311745        -8.4830
  23   2.0000      -0.298359        -8.1188
  24   2.0000      -0.297378        -8.0921
  25   2.0000      -0.293926        -7.9981
  26   2.0000      -0.258468        -7.0333
  27   2.0000      -0.218447        -5.9442
  28   0.0000      -0.020807        -0.5662
  29   0.0000       0.040297         1.0965
  30   0.0000       0.059762         1.6262
  31   0.0000       0.079311         2.1582
  32   0.0000       0.081658         2.2220

MULLIKEN ATOMIC CHARGES
-----------------------
   0 C :   -0.289817
   1 C :   -0.195743
   2 C :   -0.128826
   3 C :    0.084210
   4 O :   -0.212489
   5 O :   -0.236117
   6 C :   -0.110587
   7 H :    0.107702
   8 H :    0.115583
   9 H :    0.098639
  10 H :    0.090557
  11 H :    0.108166
  12 H :    0.094039
  13 H :    0.114809
  14 H :    0.121375
  15 H :    0.119786
  16 H :    0.118712
Sum of atomic charges:   -0.0000000

LOEWDIN ATOMIC CHARGES
----------------------
   0 C :   -0.342359
   1 C :   -0.227974
   2 C :   -0.247581
   3 C :    0.034339
   4 O :   -0.171228
   5 O :   -0.073393
   6 C :   -0.204053
   7 H :    0.121698
   8 H :    0.120420
   9 H :    0.117015
  10 H :    0.117888
  11 H :    0.125023
  12 H :    0.127283
  13 H :    0.143231
  14 H :    0.120456
  15 H :    0.119962
  16 H :    0.119274

  Mayer bond orders larger than 0.100000
B(  0-C ,  1-C ) :   1.1549 B(  0-C ,  7-H ) :   0.9523 B(  0-C ,  8-H ) :   0.9498
B(  0-C ,  9-H ) :   0.9537 B(  1-C ,  2-C ) :   1.1126 B(  1-C , 10-H ) :   0.9279
B(  1-C , 11-H ) :   0.9187 B(  2-C ,  3-C ) :   1.0210 B(  2-C , 12-H ) :   0.9111
B(  2-C , 13-H ) :   0.8911 B(  3-C ,  4-O ) :   2.0468 B(  3-C ,  5-O ) :   1.2220
B(  5-O ,  6-C ) :   0.9398 B(  6-C , 14-H ) :   0.9594 B(  6-C , 15-H ) :   0.9503
B(  6-C , 16-H ) :   0.9535

Dispersion correction           -0.012327048
FINAL SINGLE POINT ENERGY      -346.240604765467

DIPOLE MOMENT
-------------

Method             : SCF
Type of density    : Electron Density
Multiplicity       :   1
Irrep              :   0
Energy             :  -346.3051950275108197 Eh
Relativity type    :
Basis              : AO
                                X                 Y                 Z
Electronic contribution:      4.567704027      -2.789508911      -0.435355320
Nuclear contribution   :     -4.406068031       3.263723676       0.015746797
                        -----------------------------------------
Total Dipole Moment    :      0.161635996       0.474214765      -0.419608523
                        -----------------------------------------
Magnitude (a.u.)       :      0.653511401
Magnitude (Debye)      :      1.661093972

Rotational constants in cm-1:             0.167791             0.050850             0.048813
Rotational constants in MHz :          5030.242761          1524.453028          1463.362059

                             ****ORCA TERMINATED NORMALLY****
TOTAL RUN TIME: 0 days 0 hours 0 minutes 10 seconds 404 msec
