                         Program Version 6.0.0  -   RELEASE  -
|  1> ! pbe def2-sv(p) def2/J RI DEFGRID1 loosescf d4 GCP(DFT/SV(P)) printgap
|  2> %output
|  3>     printlevel normal
|  4> end
|  5> * xyz 0 1
|  6> C 2.6387700121 -0.8147053876 -0.0348715711
|  7> C 1.9792843534 0.538395692 -0.2782609346
|  8> C 0.5693308851 0.634319034 0.3079436743
|  9> C -0.4138346239 -0.2882687373 -0.3940345533
| 10> S -2.1398497427 0.0081690799 0.1424821841
| 11> H 2.6495444932 -1.0473489848 1.0275143083
| 12> H 3.6653724628 -0.8000801842 -0.3923284316
| 13> H 2.1109020306 -1.6077280487 -0.5579916954
| 14> H 1.9377874172 0.7364284243 -1.351501354
| 15> H 2.5912541043 1.3184089228 0.1789478955
| 16> H 0.2113824599 1.6621845028 0.2114689241
| 17> H 0.6010501061 0.3897840551 1.37219565
| 18> H -0.4276997937 -0.1014420951 -1.4679369463
| 19> H -0.1956729728 -1.3393797016 -0.2153354868
| 20> H -1.9528148722 -0.3017399748 1.4194899537
| 21> *
| 22>
| 23>                          ****END OF INPUT****

CARTESIAN COORDINATES (ANGSTROEM)
---------------------------------
  C      2.638770   -0.814705   -0.034872
  C      1.979284    0.538396   -0.278261
  C      0.569331    0.634319    0.307944
  C     -0.413835   -0.288269   -0.394035
  S     -2.139850    0.008169    0.142482
  H      2.649544   -1.047349    1.027514
  H      3.665372   -0.800080   -0.392328
  H      2.110902   -1.607728   -0.557992
  H      1.937787    0.736428   -1.351501
  H      2.591254    1.318409    0.178948
  H      0.211382    1.662185    0.211469
  H      0.601050    0.389784    1.372196
  H     -0.427700   -0.101442   -1.467937
  H     -0.195673   -1.339380   -0.215335
  H     -1.952815   -0.301740    1.419490

 Total Charge           Charge          ....    0
 Multiplicity           Mult            ....    1
 Number of Electrons    NEL             ....   50
 Basis Dimension        Dim             ....   94

ORBITAL ENERGIES
----------------

  NO   OCC          E(Eh)            E(eV)
   0   2.0000     -88.010772     -2394.8949
   1   2.0000      -9.915909      -269.8256
   2   2.0000      -9.889631      -269.1105
   3   2.0000      -9.888662      -269.0842
   4   2.0000      -9.877527      -268.7812
   5   2.0000      -7.657398      -208.3684
   6   2.0000      -5.685854      -154.7200
   7   2.0000      -5.681918      -154.6128
   8   2.0000      -5.673465      -154.3828
   9   2.0000      -0.738699       -20.1010
  10   2.0000      -0.688855       -18.7447
  11   2.0000      -0.619374       -16.8540
  12   2.0000      -0.560162       -15.2428
  13   2.0000      -0.513689       -13.9782
  14   2.0000      -0.429553       -11.6887
  15   2.0000      -0.413371       -11.2484
  16   2.0000      -0.386783       -10.5249
  17   2.0000      -0.359744        -9.7891
  18   2.0000      -0.355949        -9.6859
  19   2.0000      -0.331145        -9.0109
  20   2.0000      -0.309156        -8.4126
  21   2.0000      -0.295260        -8.0344
  22   2.0000      -0.292609        -7.9623
  23   2.0000      -0.274144        -7.4598
  24   2.0000      -0.190966        -5.1964
  25   0.0000       0.005649         0.1537
  26   0.0000       0.034012         0.9255
  27   0.0000       0.056669         1.5420
  28   0.0000       0.064197         1.7469
  29   0.0000       0.067380         1.8335

MULLIKEN ATOMIC CHARGES
-----------------------
   0 C :   -0.294488
   1 C :   -0.177450
   2 C :   -0.129608
   3 C :   -0.311043
   4 S :   -0.170204
   5 H :    0.099308
   6 H :    0.106067
   7 H :    0.107953
   8 H :    0.087346
   9 H :    0.090896
  10 H :    0.095869
  11 H :    0.082277
  12 H :    0.132763
  13 H :    0.140309
  14 H :    0.140007
Sum of atomic charges:    0.0000000

LOEWDIN ATOMIC CHARGES
----------------------
   0 C :   -0.344327
   1 C :   -0.234274
   2 C :   -0.248133
   3 C :   -0.334057
   4 S :    0.016061
   5 H :    0.117480
   6 H :    0.121210
   7 H :    0.116246
   8 H :    0.115296
   9 H :    0.118453
  10 H :    0.119220
  11 H :    0.113073
  12 H :    0.126986
  13 H :    0.121535
  14 H :    0.075231

  Mayer bond orders larger than 0.100000
B(  0-C ,  1-C ) :   1.1468 B(  0-C ,  5-H ) :   0.9552 B(  0-C ,  6-H ) :   0.9515
B(  0-C ,  7-H ) :   0.9527 B(  1-C ,  2-C ) :   1.1115 B(  1-C ,  8-H ) :   0.9280
B(  1-C ,  9-H ) :   0.9267 B(  2-C ,  3-C ) :   1.0821 B(  2-C , 10-H ) :   0.9208
B(  2-C , 11-H ) :   0.9234 B(  3-C ,  4-S ) :   1.0682 B(  3-C , 12-H ) :   0.9259
B(  3-C , 13-H ) :   0.9207 B(  4-S , 14-H ) :   0.9083

Dispersion correction           -0.010923587
FINAL SINGLE POINT ENERGY      -555.911877268296

DIPOLE MOMENT
-------------

Method             : SCF
Type of density    : Electron Density
Multiplicity       :   1
Irrep              :   0
Energy             :  -555.9639642196586919 Eh
Relativity type    :
Basis              : AO
                                X                 Y                 Z
Electronic contribution:     -9.920786853       0.890692258      -0.049082638
Nuclear contribution   :     10.559916336      -1.023696568       0.206597554
                        -----------------------------------------
Total Dipole Moment    :      0.639129482      -0.133004310       0.157514916
                        -----------------------------------------
Magnitude (a.u.)       :      0.671556096
Magnitude (Debye)      :      1.706959942

Rotational constants in cm-1:             0.404285             0.049888             0.047684
Rotational constants in MHz :         12120.164675          1495.601474          1429.525897

                             ****ORCA TERMINATED NORMALLY****
TOTAL RUN TIME: 0 days 0 hours 0 minutes 5 seconds 382 msec
