                         Program Version 6.0.0  -   RELEASE  -
|  1> ! pbe def2-sv(p) def2/J RI DEFGRID1 loosescf d4 GCP(DFT/SV(P)) printgap
|  2> %output
|  3>     printlevel normal
|  4> end
|  5> * xyz 0 1
|  6> C -1.4917275646 1.1694144173 -0.5194103831
|  7> C -1.2061530943 0.3794405094 0.753038761
|  8> C -0.0809118914 -0.6592564892 0.632361393
|  9> H -0.0818418742 -1.2351611617 1.5662141218
| 10> C -0.3004871383 -1.6233571356 -0.5312247457
| 11> C 1.3135178333 -0.0220471399 0.545408567
| 12> O 1.5130933149 0.6274425209 -0.6939997281
| 13> H -1.9106943682 0.5260514169 -1.2881187866
| 14> H -2.207641472 1.9611508972 -0.3099488212
| 15> H -0.5791040798 1.6146697757 -0.9035937934
| 16> H -2.1173173063 -0.1413928089 1.0577929175
| 17> H -0.9435807692 1.0753582271 1.5538222695
| 18> H -1.3084153534 -2.0286062338 -0.5017924605
| 19> H 0.4078239519 -2.4467888265 -0.4746787038
| 20> H -0.1507756813 -1.1072812982 -1.4750341772
| 21> H 2.062231015 -0.8168571282 0.6719525418
| 22> H 1.4307559229 0.696008183 1.3699358611
| 23> H 2.422054866 0.9496592075 -0.7389051383
| 24> *
| 25>
| 26>                          ****END OF INPUT****

CARTESIAN COORDINATES (ANGSTROEM)
---------------------------------
  C     -1.491728    1.169414   -0.519410
  C     -1.206153    0.379441    0.753039
  C     -0.080912   -0.659256    0.632361
  H     -0.081842   -1.235161    1.566214
  C     -0.300487   -1.623357   -0.531225
  C      1.313518   -0.022047    0.545409
  O      1.513093    0.627443   -0.694000
  H     -1.910694    0.526051   -1.288119
  H     -2.207641    1.961151   -0.309949
  H     -0.579104    1.614670   -0.903594
  H     -2.117317   -0.141393    1.057793
  H     -0.943581    1.075358    1.553822
  H     -1.308415   -2.028606   -0.501792
  H      0.407824   -2.446789   -0.474679
  H     -0.150776   -1.107281   -1.475034
  H      2.062231   -0.816857    0.671953
  H      1.430756    0.696008    1.369936
  H      2.422055    0.949659   -0.738905

 Total Charge           Charge          ....    0
 Multiplicity           Mult            ....    1
 Number of Electrons    NEL             ....   50
 Basis Dimension        Dim             ....  108

ORBITAL ENERGIES
----------------

  NO   OCC          E(Eh)            E(eV)
   0   2.0000     -18.743537      -510.0376
   1   2.0000      -9.927302      -270.1356
   2   2.0000      -9.889635      -269.1106
   3   2.0000      -9.874715      -268.7047
   4   2.0000      -9.863859      -268.4092
   5   2.0000      -9.855637      -268.1855
   6   2.0000      -0.919800       -25.0290
   7   2.0000      -0.721426       -19.6310
   8   2.0000      -0.644714       -17.5436
   9   2.0000      -0.600962       -16.3530
  10   2.0000      -0.552861       -15.0441
  11   2.0000      -0.479563       -13.0496
  12   2.0000      -0.463704       -12.6180
  13   2.0000      -0.410455       -11.1691
  14   2.0000      -0.399181       -10.8623
  15   2.0000      -0.386220       -10.5096
  16   2.0000      -0.347502        -9.4560
  17   2.0000      -0.332243        -9.0408
  18   2.0000      -0.327802        -8.9199
  19   2.0000      -0.313758        -8.5378
  20   2.0000      -0.300966        -8.1897
  21   2.0000      -0.275179        -7.4880
  22   2.0000      -0.272615        -7.4182
  23   2.0000      -0.254355        -6.9213
  24   2.0000      -0.212675        -5.7872
  25   0.0000       0.020739         0.5643
  26   0.0000       0.052326         1.4239
  27   0.0000       0.073346         1.9958
  28   0.0000       0.083202         2.2640
  29   0.0000       0.096042         2.6134

MULLIKEN ATOMIC CHARGES
-----------------------
   0 C :   -0.288764
   1 C :   -0.159030
   2 C :   -0.167115
   3 H :    0.069153
   4 C :   -0.258261
   5 C :    0.028743
   6 O :   -0.427021
   7 H :    0.096723
   8 H :    0.091741
   9 H :    0.119447
  10 H :    0.080264
  11 H :    0.072972
  12 H :    0.097037
  13 H :    0.089450
  14 H :    0.122668
  15 H :    0.065626
  16 H :    0.065791
  17 H :    0.300576
Sum of atomic charges:   -0.0000000

LOEWDIN ATOMIC CHARGES
----------------------
   0 C :   -0.352498
   1 C :   -0.223344
   2 C :   -0.163294
   3 H :    0.118632
   4 C :   -0.333258
   5 C :   -0.113083
   6 O :   -0.337040
   7 H :    0.115465
   8 H :    0.114606
   9 H :    0.122405
  10 H :    0.112023
  11 H :    0.110496
  12 H :    0.116569
  13 H :    0.115936
  14 H :    0.124901
  15 H :    0.092975
  16 H :    0.092102
  17 H :    0.286406

  Mayer bond orders larger than 0.100000
B(  0-C ,  1-C ) :   1.1617 B(  0-C ,  7-H ) :   0.9482 B(  0-C ,  8-H ) :   0.9489
B(  0-C ,  9-H ) :   0.9371 B(  1-C ,  2-C ) :   1.0900 B(  1-C , 10-H ) :   0.9253
B(  1-C , 11-H ) :   0.9250 B(  2-C ,  3-H ) :   0.8956 B(  2-C ,  4-C ) :   1.1040
B(  2-C ,  5-C ) :   1.0765 B(  4-C , 12-H ) :   0.9526 B(  4-C , 13-H ) :   0.9499
B(  4-C , 14-H ) :   0.9386 B(  5-C ,  6-O ) :   1.0672 B(  5-C , 15-H ) :   0.9210
B(  5-C , 16-H ) :   0.9203 B(  6-O , 17-H ) :   0.8497

Dispersion correction           -0.013567295
FINAL SINGLE POINT ENERGY      -272.298691642763

DIPOLE MOMENT
-------------

Method             : SCF
Type of density    : Electron Density
Multiplicity       :   1
Irrep              :   0
Energy             :  -272.3687417991636153 Eh
Relativity type    :
Basis              : AO
                                X                 Y                 Z
Electronic contribution:      3.337181246       0.881092929      -0.164541388
Nuclear contribution   :     -2.769993881      -0.884936424       0.484718858
                        -----------------------------------------
Total Dipole Moment    :      0.567187364      -0.003843495       0.320177470
                        -----------------------------------------
Magnitude (a.u.)       :      0.651329326
Magnitude (Debye)      :      1.655547578

Rotational constants in cm-1:             0.133580             0.096047             0.077728
Rotational constants in MHz :          4004.616241          2879.402570          2330.211899

                             ****ORCA TERMINATED NORMALLY****
TOTAL RUN TIME: 0 days 0 hours 0 minutes 7 seconds 828 msec
