                         Program Version 6.0.0  -   RELEASE  -
|  1> ! pbe def2-sv(p) def2/J RI DEFGRID1 loosescf d4 GCP(DFT/SV(P)) printgap
|  2> %output
|  3>     printlevel normal
|  4> end
|  5> * xyz 0 1
|  6> C -1.4401337782 0.0376930646 0.6212757562
|  7> C 0.0663583699 0.334646397 0.5100724279
|  8> C 0.8184403346 -0.8842038175 -0.043570518
|  9> O 2.2158396884 -0.7425556116 -0.004903953
| 10> O 0.2834685175 1.4192752448 -0.3720729965
| 11> O -2.0067882498 -0.2840007697 -0.6255991714
| 12> H -1.9507419421 0.9115561742 1.051331445
| 13> H -1.609843498 -0.8218939059 1.2711968606
| 14> H 0.4542771521 0.5693242738 1.5114281147
| 15> H 0.5630988099 -1.0105777439 -1.0968243532
| 16> H 0.5004575833 -1.7776402238 0.5080815318
| 17> H 2.5040920318 -0.6338718361 0.9125271735
| 18> H 0.045503614 2.2500325555 0.0620224203
| 19> H -1.7073541019 0.3787368947 -1.2675945676
| 20> *
| 21>
| 22>                          ****END OF INPUT****

CARTESIAN COORDINATES (ANGSTROEM)
---------------------------------
  C     -1.440134    0.037693    0.621276
  C      0.066358    0.334646    0.510072
  C      0.818440   -0.884204   -0.043571
  O      2.215840   -0.742556   -0.004904
  O      0.283469    1.419275   -0.372073
  O     -2.006788   -0.284001   -0.625599
  H     -1.950742    0.911556    1.051331
  H     -1.609843   -0.821894    1.271197
  H      0.454277    0.569324    1.511428
  H      0.563099   -1.010578   -1.096824
  H      0.500458   -1.777640    0.508082
  H      2.504092   -0.633872    0.912527
  H      0.045504    2.250033    0.062022
  H     -1.707354    0.378737   -1.267595

 Total Charge           Charge          ....    0
 Multiplicity           Mult            ....    1
 Number of Electrons    NEL             ....   50
 Basis Dimension        Dim             ....  100

ORBITAL ENERGIES
----------------

  NO   OCC          E(Eh)            E(eV)
   0   2.0000     -18.761029      -510.5136
   1   2.0000     -18.744168      -510.0547
   2   2.0000     -18.740858      -509.9647
   3   2.0000      -9.944999      -270.6172
   4   2.0000      -9.933263      -270.2978
   5   2.0000      -9.928724      -270.1743
   6   2.0000      -0.944687       -25.7062
   7   2.0000      -0.917882       -24.9768
   8   2.0000      -0.911920       -24.8146
   9   2.0000      -0.683530       -18.5998
  10   2.0000      -0.605469       -16.4757
  11   2.0000      -0.546605       -14.8739
  12   2.0000      -0.486963       -13.2509
  13   2.0000      -0.463067       -12.6007
  14   2.0000      -0.444652       -12.0996
  15   2.0000      -0.396823       -10.7981
  16   2.0000      -0.391168       -10.6442
  17   2.0000      -0.369122       -10.0443
  18   2.0000      -0.361259        -9.8303
  19   2.0000      -0.302988        -8.2447
  20   2.0000      -0.285766        -7.7761
  21   2.0000      -0.272775        -7.4226
  22   2.0000      -0.240949        -6.5566
  23   2.0000      -0.218171        -5.9367
  24   2.0000      -0.205665        -5.5964
  25   0.0000       0.008005         0.2178
  26   0.0000       0.033350         0.9075
  27   0.0000       0.059199         1.6109
  28   0.0000       0.070086         1.9071
  29   0.0000       0.079359         2.1595

MULLIKEN ATOMIC CHARGES
-----------------------
   0 C :    0.045635
   1 C :   -0.076230
   2 C :    0.073699
   3 O :   -0.426323
   4 O :   -0.416456
   5 O :   -0.439154
   6 H :    0.061893
   7 H :    0.083171
   8 H :    0.048110
   9 H :    0.086072
  10 H :    0.072316
  11 H :    0.289947
  12 H :    0.300987
  13 H :    0.296334
Sum of atomic charges:   -0.0000000

LOEWDIN ATOMIC CHARGES
----------------------
   0 C :   -0.134481
   1 C :   -0.104621
   2 C :   -0.126822
   3 O :   -0.332337
   4 O :   -0.322714
   5 O :   -0.338978
   6 H :    0.088925
   7 H :    0.113162
   8 H :    0.094463
   9 H :    0.120074
  10 H :    0.099010
  11 H :    0.278913
  12 H :    0.287320
  13 H :    0.278088

  Mayer bond orders larger than 0.100000
B(  0-C ,  1-C ) :   1.0300 B(  0-C ,  5-O ) :   1.0701 B(  0-C ,  6-H ) :   0.9150
B(  0-C ,  7-H ) :   0.9156 B(  1-C ,  2-C ) :   1.0246 B(  1-C ,  4-O ) :   1.0478
B(  1-C ,  8-H ) :   0.8917 B(  2-C ,  3-O ) :   1.0828 B(  2-C ,  9-H ) :   0.9052
B(  2-C , 10-H ) :   0.9263 B(  3-O , 11-H ) :   0.8556 B(  4-O , 12-H ) :   0.8504
B(  5-O , 13-H ) :   0.8341

Dispersion correction           -0.009208062
FINAL SINGLE POINT ENERGY      -344.005853620596

DIPOLE MOMENT
-------------

Method             : SCF
Type of density    : Electron Density
Multiplicity       :   1
Irrep              :   0
Energy             :  -344.0789722149339696 Eh
Relativity type    :
Basis              : AO
                                X                 Y                 Z
Electronic contribution:      1.043059206       0.809182937      -1.698124272
Nuclear contribution   :     -1.118972271      -0.120196007       2.754756413
                        -----------------------------------------
Total Dipole Moment    :     -0.075913065       0.688986930       1.056632141
                        -----------------------------------------
Magnitude (a.u.)       :      1.263699832
Magnitude (Debye)      :      3.212069704

Rotational constants in cm-1:             0.197336             0.075536             0.065079
Rotational constants in MHz :          5915.985272          2264.503670          1951.031474

                             ****ORCA TERMINATED NORMALLY****
TOTAL RUN TIME: 0 days 0 hours 0 minutes 6 seconds 824 msec
