                         Program Version 6.0.0  -   RELEASE  -
|  1> ! pbe def2-sv(p) def2/J RI DEFGRID1 loosescf d4 GCP(DFT/SV(P)) printgap
|  2> %output
|  3>     printlevel normal
|  4> end
|  5> * xyz 0 1
|  6> C 2.2586249621 -1.0036418612 -0.6772794827
|  7> C 1.6017454383 0.3309947801 -0.3476463471
|  8> C 0.3521958737 0.204645523 0.5365867757
|  9> H 0.6309266901 -0.3335952993 1.4516494339
| 10> C -0.8154853022 -0.563208768 -0.1219827649
| 11> C -1.9151265647 -0.7994690859 0.9132268183
| 12> C -1.3916364565 0.1578079416 -1.3401680768
| 13> O -0.0497350885 1.4825384334 1.0009419009
| 14> H 3.20368487 -0.8343789441 -1.1869868699
| 15> H 1.6266225442 -1.6034482119 -1.3263861742
| 16> H 2.4540177278 -1.5665988117 0.2323474497
| 17> H 2.3133032167 0.9561381703 0.1975743695
| 18> H 1.3464830822 0.8533108504 -1.2717965566
| 19> H -0.4256201628 -1.5341961677 -0.439360741
| 20> H -1.5431780296 -1.4081181203 1.7341131418
| 21> H -2.2522504716 0.1510915039 1.3208253275
| 22> H -2.7626910376 -1.3076441172 0.4606516165
| 23> H -2.1722768897 -0.4522382964 -1.7882095308
| 24> H -0.6297966997 0.335351186 -2.0946698533
| 25> H -1.836087634 1.1074262903 -1.0504478534
| 26> H -0.2399487248 2.0384614522 0.2326646654
| 27> *
| 28>
| 29>                          ****END OF INPUT****

CARTESIAN COORDINATES (ANGSTROEM)
---------------------------------
  C      2.258625   -1.003642   -0.677279
  C      1.601745    0.330995   -0.347646
  C      0.352196    0.204646    0.536587
  H      0.630927   -0.333595    1.451649
  C     -0.815485   -0.563209   -0.121983
  C     -1.915127   -0.799469    0.913227
  C     -1.391636    0.157808   -1.340168
  O     -0.049735    1.482538    1.000942
  H      3.203685   -0.834379   -1.186987
  H      1.626623   -1.603448   -1.326386
  H      2.454018   -1.566599    0.232347
  H      2.313303    0.956138    0.197574
  H      1.346483    0.853311   -1.271797
  H     -0.425620   -1.534196   -0.439361
  H     -1.543178   -1.408118    1.734113
  H     -2.252250    0.151092    1.320825
  H     -2.762691   -1.307644    0.460652
  H     -2.172277   -0.452238   -1.788210
  H     -0.629797    0.335351   -2.094670
  H     -1.836088    1.107426   -1.050448
  H     -0.239949    2.038461    0.232665

 Total Charge           Charge          ....    0
 Multiplicity           Mult            ....    1
 Number of Electrons    NEL             ....   58
 Basis Dimension        Dim             ....  126

ORBITAL ENERGIES
----------------

  NO   OCC          E(Eh)            E(eV)
   0   2.0000     -18.738746      -509.9072
   1   2.0000      -9.930986      -270.2359
   2   2.0000      -9.892270      -269.1823
   3   2.0000      -9.883023      -268.9307
   4   2.0000      -9.878556      -268.8092
   5   2.0000      -9.877792      -268.7884
   6   2.0000      -9.866377      -268.4778
   7   2.0000      -0.916937       -24.9511
   8   2.0000      -0.724589       -19.7171
   9   2.0000      -0.687396       -18.7050
  10   2.0000      -0.613764       -16.7014
  11   2.0000      -0.597882       -16.2692
  12   2.0000      -0.539969       -14.6933
  13   2.0000      -0.505720       -13.7613
  14   2.0000      -0.430867       -11.7245
  15   2.0000      -0.427922       -11.6444
  16   2.0000      -0.406346       -11.0573
  17   2.0000      -0.390704       -10.6316
  18   2.0000      -0.369982       -10.0677
  19   2.0000      -0.352007        -9.5786
  20   2.0000      -0.339657        -9.2425
  21   2.0000      -0.333971        -9.0878
  22   2.0000      -0.325784        -8.8650
  23   2.0000      -0.309288        -8.4161
  24   2.0000      -0.296071        -8.0565
  25   2.0000      -0.291400        -7.9294
  26   2.0000      -0.282988        -7.7005
  27   2.0000      -0.258795        -7.0422
  28   2.0000      -0.210755        -5.7349
  29   0.0000       0.024756         0.6737
  30   0.0000       0.040092         1.0910
  31   0.0000       0.059615         1.6222
  32   0.0000       0.073243         1.9930
  33   0.0000       0.088958         2.4207

MULLIKEN ATOMIC CHARGES
-----------------------
   0 C :   -0.291380
   1 C :   -0.159580
   2 C :    0.052680
   3 H :    0.060335
   4 C :   -0.164892
   5 C :   -0.226196
   6 C :   -0.286351
   7 O :   -0.426393
   8 H :    0.104911
   9 H :    0.111687
  10 H :    0.102529
  11 H :    0.091578
  12 H :    0.074355
  13 H :    0.073889
  14 H :    0.092319
  15 H :    0.100212
  16 H :    0.093718
  17 H :    0.105864
  18 H :    0.107261
  19 H :    0.088509
  20 H :    0.294943
Sum of atomic charges:    0.0000000

LOEWDIN ATOMIC CHARGES
----------------------
   0 C :   -0.341313
   1 C :   -0.249186
   2 C :   -0.046802
   3 H :    0.109929
   4 C :   -0.171564
   5 C :   -0.330158
   6 C :   -0.338090
   7 O :   -0.321176
   8 H :    0.122340
   9 H :    0.117021
  10 H :    0.119522
  11 H :    0.120491
  12 H :    0.109820
  13 H :    0.117208
  14 H :    0.116609
  15 H :    0.119338
  16 H :    0.114484
  17 H :    0.124134
  18 H :    0.115856
  19 H :    0.112565
  20 H :    0.278971

  Mayer bond orders larger than 0.100000
B(  0-C ,  1-C ) :   1.1406 B(  0-C ,  8-H ) :   0.9473 B(  0-C ,  9-H ) :   0.9465
B(  0-C , 10-H ) :   0.9539 B(  1-C ,  2-C ) :   1.0884 B(  1-C , 11-H ) :   0.9161
B(  1-C , 12-H ) :   0.9064 B(  2-C ,  3-H ) :   0.8994 B(  2-C ,  4-C ) :   0.9994
B(  2-C ,  7-O ) :   1.0346 B(  4-C ,  5-C ) :   1.1115 B(  4-C ,  6-C ) :   1.0940
B(  4-C , 13-H ) :   0.8879 B(  5-C , 14-H ) :   0.9491 B(  5-C , 15-H ) :   0.9421
B(  5-C , 16-H ) :   0.9520 B(  6-C , 17-H ) :   0.9481 B(  6-C , 18-H ) :   0.9454
B(  6-C , 19-H ) :   0.9423 B(  7-O , 20-H ) :   0.8482

Dispersion correction           -0.016827470
FINAL SINGLE POINT ENERGY      -311.518651679826

DIPOLE MOMENT
-------------

Method             : SCF
Type of density    : Electron Density
Multiplicity       :   1
Irrep              :   0
Energy             :  -311.5985021128216204 Eh
Relativity type    :
Basis              : AO
                                X                 Y                 Z
Electronic contribution:      0.341744063       3.222254309       2.699317453
Nuclear contribution   :     -0.269814219      -3.353921824      -3.295015864
                        -----------------------------------------
Total Dipole Moment    :      0.071929844      -0.131667515      -0.595698412
                        -----------------------------------------
Magnitude (a.u.)       :      0.614301908
Magnitude (Debye)      :      1.561431362

Rotational constants in cm-1:             0.109084             0.059708             0.052442
Rotational constants in MHz :          3270.241430          1790.003397          1572.182320

                             ****ORCA TERMINATED NORMALLY****
TOTAL RUN TIME: 0 days 0 hours 0 minutes 8 seconds 469 msec
