                         Program Version 6.0.0  -   RELEASE  -
|  1> ! r2scan-3c def2/J RI DEFGRID2 scfconv6 printgap
|  2> %output
|  3>     printlevel normal
|  4> end
|  5> * xyz 0 1
|  6> C 1.9440751692 -0.7626161179 -0.8239161156
|  7> C 1.2034028713 -0.1294247889 0.3532012274
|  8> H 0.91114084 -0.9173674773 1.067064308
|  9> C -0.0520392962 0.6395886803 -0.0890660535
| 10> C -1.3761737907 -0.075366445 0.1971967642
| 11> C -2.5411557474 0.8650130589 -0.1086332206
| 12> C -1.5196931711 -1.361010237 -0.6141566646
| 13> O 2.0382475449 0.8017407734 1.0321630354
| 14> H 2.3122972605 0.0199015102 -1.4837149955
| 15> H 2.7892342419 -1.3527066194 -0.4749683204
| 16> H 1.2769867737 -1.4100691672 -1.3833309671
| 17> H -0.0411390169 1.5876986658 0.4532255372
| 18> H 0.0155681277 0.8686384466 -1.1537109599
| 19> H -1.4069040257 -0.3292064921 1.2630598554
| 20> H -2.5372566296 1.1403139917 -1.1608834494
| 21> H -2.4677253209 1.7733634245 0.4844148697
| 22> H -3.4891510218 0.3827723946 0.1171074674
| 23> H -2.4887908527 -1.8168379999 -0.4246320185
| 24> H -1.4446929871 -1.1461796531 -1.6778562853
| 25> H -0.749884525 -2.079914706 -0.3472215551
| 26> H 2.8695057791 0.3700598394 1.2711425138
| 27> *
| 28>
| 29>                          ****END OF INPUT****

CARTESIAN COORDINATES (ANGSTROEM)
---------------------------------
  C      1.944075   -0.762616   -0.823916
  C      1.203403   -0.129425    0.353201
  H      0.911141   -0.917367    1.067064
  C     -0.052039    0.639589   -0.089066
  C     -1.376174   -0.075366    0.197197
  C     -2.541156    0.865013   -0.108633
  C     -1.519693   -1.361010   -0.614157
  O      2.038248    0.801741    1.032163
  H      2.312297    0.019902   -1.483715
  H      2.789234   -1.352707   -0.474968
  H      1.276987   -1.410069   -1.383331
  H     -0.041139    1.587699    0.453226
  H      0.015568    0.868638   -1.153711
  H     -1.406904   -0.329206    1.263060
  H     -2.537257    1.140314   -1.160883
  H     -2.467725    1.773363    0.484415
  H     -3.489151    0.382772    0.117107
  H     -2.488791   -1.816838   -0.424632
  H     -1.444693   -1.146180   -1.677856
  H     -0.749885   -2.079915   -0.347222
  H      2.869506    0.370060    1.271143

 Total Charge           Charge          ....    0
 Multiplicity           Mult            ....    1
 Number of Electrons    NEL             ....   58
 Basis Dimension        Dim             ....  208

ORBITAL ENERGIES
----------------

  NO   OCC          E(Eh)            E(eV)
   0   2.0000     -18.942700      -515.4571
   1   2.0000     -10.079805      -274.2854
   2   2.0000     -10.033727      -273.0316
   3   2.0000     -10.019630      -272.6480
   4   2.0000     -10.018105      -272.6065
   5   2.0000     -10.016277      -272.5567
   6   2.0000     -10.013669      -272.4858
   7   2.0000      -0.980184       -26.6722
   8   2.0000      -0.778553       -21.1855
   9   2.0000      -0.718830       -19.5604
  10   2.0000      -0.654059       -17.7979
  11   2.0000      -0.647443       -17.6178
  12   2.0000      -0.562667       -15.3109
  13   2.0000      -0.526408       -14.3243
  14   2.0000      -0.472779       -12.8650
  15   2.0000      -0.431504       -11.7418
  16   2.0000      -0.420391       -11.4394
  17   2.0000      -0.404018       -10.9939
  18   2.0000      -0.390666       -10.6306
  19   2.0000      -0.368019       -10.0143
  20   2.0000      -0.356780        -9.7085
  21   2.0000      -0.351591        -9.5673
  22   2.0000      -0.337334        -9.1793
  23   2.0000      -0.324947        -8.8423
  24   2.0000      -0.304980        -8.2989
  25   2.0000      -0.293549        -7.9879
  26   2.0000      -0.291214        -7.9243
  27   2.0000      -0.276111        -7.5134
  28   2.0000      -0.232319        -6.3217
  29   0.0000       0.063944         1.7400
  30   0.0000       0.086947         2.3660
  31   0.0000       0.110142         2.9971
  32   0.0000       0.113468         3.0876
  33   0.0000       0.126289         3.4365

MULLIKEN ATOMIC CHARGES
-----------------------
   0 C :   -0.520721
   1 C :    0.057108
   2 H :    0.127331
   3 C :   -0.280044
   4 C :   -0.049026
   5 C :   -0.482293
   6 C :   -0.521143
   7 O :   -0.430314
   8 H :    0.166236
   9 H :    0.138343
  10 H :    0.154208
  11 H :    0.169075
  12 H :    0.147062
  13 H :    0.150154
  14 H :    0.145650
  15 H :    0.147365
  16 H :    0.146237
  17 H :    0.145097
  18 H :    0.156788
  19 H :    0.151534
  20 H :    0.281354
Sum of atomic charges:    0.0000000

LOEWDIN ATOMIC CHARGES
----------------------
   0 C :   -0.403115
   1 C :    0.051545
   2 H :    0.159676
   3 C :   -0.264162
   4 C :   -0.243187
   5 C :   -0.416689
   6 C :   -0.419726
   7 O :   -0.623373
   8 H :    0.162017
   9 H :    0.149841
  10 H :    0.159860
  11 H :    0.183289
  12 H :    0.161813
  13 H :    0.155842
  14 H :    0.153687
  15 H :    0.154178
  16 H :    0.152117
  17 H :    0.153674
  18 H :    0.153579
  19 H :    0.152059
  20 H :    0.267073

  Mayer bond orders larger than 0.100000
B(  0-C ,  1-C ) :   0.9157 B(  0-C ,  8-H ) :   0.9876 B(  0-C ,  9-H ) :   0.9719
B(  0-C , 10-H ) :   0.9628 B(  1-C ,  2-H ) :   0.9564 B(  1-C ,  3-C ) :   0.8803
B(  1-C ,  7-O ) :   0.8948 B(  3-C ,  4-C ) :   0.8933 B(  3-C , 11-H ) :   0.9626
B(  3-C , 12-H ) :   0.9815 B(  4-C ,  5-C ) :   0.9102 B(  4-C ,  6-C ) :   0.8802
B(  4-C , 13-H ) :   0.9635 B(  5-C , 14-H ) :   0.9845 B(  5-C , 15-H ) :   0.9765
B(  5-C , 16-H ) :   0.9762 B(  6-C , 17-H ) :   0.9692 B(  6-C , 18-H ) :   0.9872
B(  6-C , 19-H ) :   0.9711 B(  7-O , 20-H ) :   0.9034

Dispersion correction           -0.005552399
FINAL SINGLE POINT ENERGY      -312.200412864826

DIPOLE MOMENT
-------------

Method             : SCF
Type of density    : Electron Density
Multiplicity       :   1
Irrep              :   0
Energy             :  -312.2059911966574646 Eh
Relativity type    :
Basis              : AO
                                X                 Y                 Z
Electronic contribution:      4.245986088       2.185015134       3.117105075
Nuclear contribution   :     -4.145339799      -2.717720136      -3.221631341
                        -----------------------------------------
Total Dipole Moment    :      0.100646289      -0.532705003      -0.104526266
                        -----------------------------------------
Magnitude (a.u.)       :      0.552114151
Magnitude (Debye)      :      1.403362645

Rotational constants in cm-1:             0.142001             0.048989             0.040463
Rotational constants in MHz :          4257.083639          1468.650430          1213.053395

                             ****ORCA TERMINATED NORMALLY****
TOTAL RUN TIME: 0 days 0 hours 0 minutes 29 seconds 328 msec
