                         Program Version 6.0.0  -   RELEASE  -
|  1> ! r2scan-3c def2/J RI DEFGRID2 scfconv6 printgap
|  2> %output
|  3>     printlevel normal
|  4> end
|  5> %cpcm
|  6>     smd true
|  7>     smdsolvent "water"
|  8> end
|  9> * xyz 0 1
| 10> C 1.9440751692 -0.7626161179 -0.8239161156
| 11> C 1.2034028713 -0.1294247889 0.3532012274
| 12> H 0.91114084 -0.9173674773 1.067064308
| 13> C -0.0520392962 0.6395886803 -0.0890660535
| 14> C -1.3761737907 -0.075366445 0.1971967642
| 15> C -2.5411557474 0.8650130589 -0.1086332206
| 16> C -1.5196931711 -1.361010237 -0.6141566646
| 17> O 2.0382475449 0.8017407734 1.0321630354
| 18> H 2.3122972605 0.0199015102 -1.4837149955
| 19> H 2.7892342419 -1.3527066194 -0.4749683204
| 20> H 1.2769867737 -1.4100691672 -1.3833309671
| 21> H -0.0411390169 1.5876986658 0.4532255372
| 22> H 0.0155681277 0.8686384466 -1.1537109599
| 23> H -1.4069040257 -0.3292064921 1.2630598554
| 24> H -2.5372566296 1.1403139917 -1.1608834494
| 25> H -2.4677253209 1.7733634245 0.4844148697
| 26> H -3.4891510218 0.3827723946 0.1171074674
| 27> H -2.4887908527 -1.8168379999 -0.4246320185
| 28> H -1.4446929871 -1.1461796531 -1.6778562853
| 29> H -0.749884525 -2.079914706 -0.3472215551
| 30> H 2.8695057791 0.3700598394 1.2711425138
| 31> *
| 32>
| 33>                          ****END OF INPUT****

CARTESIAN COORDINATES (ANGSTROEM)
---------------------------------
  C      1.944075   -0.762616   -0.823916
  C      1.203403   -0.129425    0.353201
  H      0.911141   -0.917367    1.067064
  C     -0.052039    0.639589   -0.089066
  C     -1.376174   -0.075366    0.197197
  C     -2.541156    0.865013   -0.108633
  C     -1.519693   -1.361010   -0.614157
  O      2.038248    0.801741    1.032163
  H      2.312297    0.019902   -1.483715
  H      2.789234   -1.352707   -0.474968
  H      1.276987   -1.410069   -1.383331
  H     -0.041139    1.587699    0.453226
  H      0.015568    0.868638   -1.153711
  H     -1.406904   -0.329206    1.263060
  H     -2.537257    1.140314   -1.160883
  H     -2.467725    1.773363    0.484415
  H     -3.489151    0.382772    0.117107
  H     -2.488791   -1.816838   -0.424632
  H     -1.444693   -1.146180   -1.677856
  H     -0.749885   -2.079915   -0.347222
  H      2.869506    0.370060    1.271143

 Total Charge           Charge          ....    0
 Multiplicity           Mult            ....    1
 Number of Electrons    NEL             ....   58
 Basis Dimension        Dim             ....  208

ORBITAL ENERGIES
----------------

  NO   OCC          E(Eh)            E(eV)
   0   2.0000     -18.946918      -515.5719
   1   2.0000     -10.074734      -274.1475
   2   2.0000     -10.026302      -272.8295
   3   2.0000     -10.013188      -272.4727
   4   2.0000     -10.009176      -272.3635
   5   2.0000     -10.006023      -272.2777
   6   2.0000     -10.006015      -272.2775
   7   2.0000      -0.983212       -26.7546
   8   2.0000      -0.771565       -20.9953
   9   2.0000      -0.711834       -19.3700
  10   2.0000      -0.646291       -17.5865
  11   2.0000      -0.639775       -17.4092
  12   2.0000      -0.557751       -15.1772
  13   2.0000      -0.519726       -14.1425
  14   2.0000      -0.469138       -12.7659
  15   2.0000      -0.425186       -11.5699
  16   2.0000      -0.413605       -11.2548
  17   2.0000      -0.398952       -10.8560
  18   2.0000      -0.383620       -10.4388
  19   2.0000      -0.358731        -9.7616
  20   2.0000      -0.348710        -9.4889
  21   2.0000      -0.342758        -9.3269
  22   2.0000      -0.334744        -9.1089
  23   2.0000      -0.319504        -8.6941
  24   2.0000      -0.301682        -8.2092
  25   2.0000      -0.287306        -7.8180
  26   2.0000      -0.283784        -7.7222
  27   2.0000      -0.271283        -7.3820
  28   2.0000      -0.236850        -6.4450
  29   0.0000       0.079399         2.1605
  30   0.0000       0.095456         2.5975
  31   0.0000       0.119834         3.2609
  32   0.0000       0.122389         3.3304
  33   0.0000       0.132625         3.6089

MULLIKEN ATOMIC CHARGES
-----------------------
   0 C :   -0.551035
   1 C :    0.068937
   2 H :    0.142484
   3 C :   -0.304043
   4 C :   -0.025516
   5 C :   -0.529556
   6 C :   -0.557505
   7 O :   -0.520626
   8 H :    0.167590
   9 H :    0.161328
  10 H :    0.167280
  11 H :    0.163076
  12 H :    0.163078
  13 H :    0.155427
  14 H :    0.158330
  15 H :    0.156543
  16 H :    0.158849
  17 H :    0.155686
  18 H :    0.167526
  19 H :    0.164602
  20 H :    0.337546
Sum of atomic charges:   -0.0000000

LOEWDIN ATOMIC CHARGES
----------------------
   0 C :   -0.405490
   1 C :    0.052807
   2 H :    0.167200
   3 C :   -0.270687
   4 C :   -0.239763
   5 C :   -0.425763
   6 C :   -0.425810
   7 O :   -0.661041
   8 H :    0.161729
   9 H :    0.157892
  10 H :    0.164928
  11 H :    0.178659
  12 H :    0.166369
  13 H :    0.157760
  14 H :    0.156374
  15 H :    0.155411
  16 H :    0.155224
  17 H :    0.155640
  18 H :    0.156716
  19 H :    0.156485
  20 H :    0.285360

  Mayer bond orders larger than 0.100000
B(  0-C ,  1-C ) :   0.9245 B(  0-C ,  8-H ) :   0.9826 B(  0-C ,  9-H ) :   0.9680
B(  0-C , 10-H ) :   0.9596 B(  1-C ,  2-H ) :   0.9552 B(  1-C ,  3-C ) :   0.8721
B(  1-C ,  7-O ) :   0.8762 B(  3-C ,  4-C ) :   0.8974 B(  3-C , 11-H ) :   0.9655
B(  3-C , 12-H ) :   0.9744 B(  4-C ,  5-C ) :   0.8954 B(  4-C ,  6-C ) :   0.8795
B(  4-C , 13-H ) :   0.9646 B(  5-C , 14-H ) :   0.9832 B(  5-C , 15-H ) :   0.9750
B(  5-C , 16-H ) :   0.9735 B(  6-C , 17-H ) :   0.9683 B(  6-C , 18-H ) :   0.9841
B(  6-C , 19-H ) :   0.9673 B(  7-O , 20-H ) :   0.8781

Dispersion correction           -0.005552399
FINAL SINGLE POINT ENERGY      -312.206080223387

DIPOLE MOMENT
-------------

Method             : SCF
Type of density    : Electron Density
Multiplicity       :   1
Irrep              :   0
Energy             :  -312.2116585552187757 Eh
Relativity type    :
Basis              : AO
                                X                 Y                 Z
Electronic contribution:      4.303570895       1.889807680       3.062054798
Nuclear contribution   :     -4.145339799      -2.717720136      -3.221631341
                        -----------------------------------------
Total Dipole Moment    :      0.158231096      -0.827912456      -0.159576543
                        -----------------------------------------
Magnitude (a.u.)       :      0.857869913
Magnitude (Debye)      :      2.180532029

Rotational constants in cm-1:             0.142001             0.048989             0.040463
Rotational constants in MHz :          4257.083639          1468.650430          1213.053395

                             ****ORCA TERMINATED NORMALLY****
TOTAL RUN TIME: 0 days 0 hours 0 minutes 36 seconds 442 msec
