                         Program Version 6.0.0  -   RELEASE  -
|  1> ! r2scan-3c def2/J RI DEFGRID2 scfconv6 printgap
|  2> %output
|  3>     printlevel normal
|  4> end
|  5> %cpcm
|  6>     smd true
|  7>     smdsolvent "water"
|  8> end
|  9> * xyz 0 1
| 10> C -2.4251855833 0.2751357876 -0.1385857116
| 11> C -0.9656140704 0.6805914842 -0.3064009028
| 12> C -0.036640067 -0.1860880928 0.5481167842
| 13> C 1.3845689372 0.3920952625 0.6486479438
| 14> C 2.0665729636 0.5417381633 -0.7071047852
| 15> O -0.0305246345 -1.4872086447 -0.016986677
| 16> H -2.546101514 -0.7758105537 -0.3890083284
| 17> H -2.7487869182 0.4263456281 0.889004759
| 18> H -3.060231043 0.8658497588 -0.793396647
| 19> H -0.6780924479 0.5606048851 -1.3509334674
| 20> H -0.8338780437 1.7251720332 -0.0220686756
| 21> H -0.4549196837 -0.2390846757 1.5682107664
| 22> H 1.329125593 1.3594734092 1.1497771479
| 23> H 1.9810366466 -0.2734109953 1.2782423893
| 24> H 1.6119976505 1.3427307569 -1.2832186702
| 25> H 3.1210158773 0.769751795 -0.5744100303
| 26> H 1.977387852 -0.3830664472 -1.2724683183
| 27> H 0.5035384528 -2.0706515031 0.5375498506
| 28> *
| 29>
| 30>                          ****END OF INPUT****

CARTESIAN COORDINATES (ANGSTROEM)
---------------------------------
  C     -2.425186    0.275136   -0.138586
  C     -0.965614    0.680591   -0.306401
  C     -0.036640   -0.186088    0.548117
  C      1.384569    0.392095    0.648648
  C      2.066573    0.541738   -0.707105
  O     -0.030525   -1.487209   -0.016987
  H     -2.546102   -0.775811   -0.389008
  H     -2.748787    0.426346    0.889005
  H     -3.060231    0.865850   -0.793397
  H     -0.678092    0.560605   -1.350933
  H     -0.833878    1.725172   -0.022069
  H     -0.454920   -0.239085    1.568211
  H      1.329126    1.359473    1.149777
  H      1.981037   -0.273411    1.278242
  H      1.611998    1.342731   -1.283219
  H      3.121016    0.769752   -0.574410
  H      1.977388   -0.383066   -1.272468
  H      0.503538   -2.070652    0.537550

 Total Charge           Charge          ....    0
 Multiplicity           Mult            ....    1
 Number of Electrons    NEL             ....   50
 Basis Dimension        Dim             ....  179

ORBITAL ENERGIES
----------------

  NO   OCC          E(Eh)            E(eV)
   0   2.0000     -18.947352      -515.5837
   1   2.0000     -10.071692      -274.0647
   2   2.0000     -10.016885      -272.5733
   3   2.0000     -10.016260      -272.5563
   4   2.0000     -10.008122      -272.3348
   5   2.0000     -10.007445      -272.3164
   6   2.0000      -0.984602       -26.7924
   7   2.0000      -0.752890       -20.4872
   8   2.0000      -0.712057       -19.3761
   9   2.0000      -0.632681       -17.2161
  10   2.0000      -0.575524       -15.6608
  11   2.0000      -0.530564       -14.4374
  12   2.0000      -0.469463       -12.7747
  13   2.0000      -0.423424       -11.5220
  14   2.0000      -0.412389       -11.2217
  15   2.0000      -0.389293       -10.5932
  16   2.0000      -0.383540       -10.4366
  17   2.0000      -0.343132        -9.3371
  18   2.0000      -0.335558        -9.1310
  19   2.0000      -0.324841        -8.8394
  20   2.0000      -0.309979        -8.4350
  21   2.0000      -0.303964        -8.2713
  22   2.0000      -0.296464        -8.0672
  23   2.0000      -0.270519        -7.3612
  24   2.0000      -0.235022        -6.3953
  25   0.0000       0.078672         2.1408
  26   0.0000       0.116575         3.1722
  27   0.0000       0.120655         3.2832
  28   0.0000       0.124695         3.3931
  29   0.0000       0.147287         4.0079

MULLIKEN ATOMIC CHARGES
-----------------------
   0 C :   -0.537181
   1 C :   -0.263937
   2 C :    0.063501
   3 C :   -0.264998
   4 C :   -0.546865
   5 O :   -0.525582
   6 H :    0.159327
   7 H :    0.157562
   8 H :    0.158132
   9 H :    0.158217
  10 H :    0.157709
  11 H :    0.145770
  12 H :    0.154554
  13 H :    0.154588
  14 H :    0.162788
  15 H :    0.159306
  16 H :    0.164448
  17 H :    0.342663
Sum of atomic charges:   -0.0000000

LOEWDIN ATOMIC CHARGES
----------------------
   0 C :   -0.427173
   1 C :   -0.284210
   2 C :    0.053647
   3 C :   -0.296353
   4 C :   -0.431213
   5 O :   -0.656217
   6 H :    0.156766
   7 H :    0.154320
   8 H :    0.153093
   9 H :    0.166163
  10 H :    0.165671
  11 H :    0.170534
  12 H :    0.163284
  13 H :    0.159976
  14 H :    0.154364
  15 H :    0.153474
  16 H :    0.157231
  17 H :    0.286643

  Mayer bond orders larger than 0.100000
B(  0-C ,  1-C ) :   0.8939 B(  0-C ,  6-H ) :   0.9798 B(  0-C ,  7-H ) :   0.9805
B(  0-C ,  8-H ) :   0.9726 B(  1-C ,  2-C ) :   0.9323 B(  1-C ,  9-H ) :   0.9632
B(  1-C , 10-H ) :   0.9646 B(  2-C ,  3-C ) :   0.9277 B(  2-C ,  5-O ) :   0.8461
B(  2-C , 11-H ) :   0.9629 B(  3-C ,  4-C ) :   0.8682 B(  3-C , 12-H ) :   0.9742
B(  3-C , 13-H ) :   0.9817 B(  4-C , 14-H ) :   0.9739 B(  4-C , 15-H ) :   0.9681
B(  4-C , 16-H ) :   0.9826 B(  5-O , 17-H ) :   0.8747

Dispersion correction           -0.004303140
FINAL SINGLE POINT ENERGY      -272.907858178755

DIPOLE MOMENT
-------------

Method             : SCF
Type of density    : Electron Density
Multiplicity       :   1
Irrep              :   0
Energy             :  -272.9130821627147725 Eh
Relativity type    :
Basis              : AO
                                X                 Y                 Z
Electronic contribution:      0.238580404      -2.825305547       0.960693728
Nuclear contribution   :      0.189142760       3.081284456      -0.246725710
                        -----------------------------------------
Total Dipole Moment    :      0.427723164       0.255978910       0.713968017
                        -----------------------------------------
Magnitude (a.u.)       :      0.870759805
Magnitude (Debye)      :      2.213295530

Rotational constants in cm-1:             0.187275             0.073088             0.063177
Rotational constants in MHz :          5614.374593          2191.115791          1894.009357

                             ****ORCA TERMINATED NORMALLY****
TOTAL RUN TIME: 0 days 0 hours 0 minutes 27 seconds 888 msec
