                         Program Version 6.0.0  -   RELEASE  -
|  1> ! r2scan-3c def2/J RI DEFGRID2 scfconv6 printgap
|  2> %output
|  3>     printlevel normal
|  4> end
|  5> * xyz 0 1
|  6> C -3.6004477546 0.1154913903 0.005829409
|  7> O -2.3366669531 0.750107129 -0.0006089641
|  8> C -1.2186576827 -0.0366247041 -0.0014569344
|  9> C -1.2153448144 -1.4262946209 -0.0014339131
| 10> C -0.0168280412 -2.1161375466 -0.0017020553
| 11> C 1.1939533154 -1.4481436853 -0.0014677354
| 12> C 1.2046574004 -0.0611486789 -0.0015756916
| 13> C 0.0008370604 0.6507154004 -0.0020467329
| 14> O -0.0056964968 2.0161113983 -0.0025617888
| 15> O 2.3323092637 0.7282742458 -0.0010014997
| 16> C 3.5947347927 0.0920568847 0.006156027
| 17> H -4.3244189517 0.9270597136 0.0087017695
| 18> H -3.7304451271 -0.4972491588 0.9018427171
| 19> H -3.7390788124 -0.4985602307 -0.8879870054
| 20> H -2.1421045686 -1.9743470427 -0.0012771877
| 21> H -0.0269729269 -3.194284608 -0.001844647
| 22> H 2.1140343236 -2.0074627605 -0.001291563
| 23> H 0.91541575 2.3248096121 -0.0033887522
| 24> H 3.7216312181 -0.5201083489 0.9023767551
| 25> H 4.3215216589 0.9011796138 0.0082518122
| 26> H 3.7304191112 -0.5232751127 -0.8865906317
| 27> *
| 28>
| 29>                          ****END OF INPUT****

CARTESIAN COORDINATES (ANGSTROEM)
---------------------------------
  C     -3.600448    0.115491    0.005829
  O     -2.336667    0.750107   -0.000609
  C     -1.218658   -0.036625   -0.001457
  C     -1.215345   -1.426295   -0.001434
  C     -0.016828   -2.116138   -0.001702
  C      1.193953   -1.448144   -0.001468
  C      1.204657   -0.061149   -0.001576
  C      0.000837    0.650715   -0.002047
  O     -0.005696    2.016111   -0.002562
  O      2.332309    0.728274   -0.001001
  C      3.594735    0.092057    0.006156
  H     -4.324419    0.927060    0.008702
  H     -3.730445   -0.497249    0.901843
  H     -3.739079   -0.498560   -0.887987
  H     -2.142105   -1.974347   -0.001277
  H     -0.026973   -3.194285   -0.001845
  H      2.114034   -2.007463   -0.001292
  H      0.915416    2.324810   -0.003389
  H      3.721631   -0.520108    0.902377
  H      4.321522    0.901180    0.008252
  H      3.730419   -0.523275   -0.886591

 Total Charge           Charge          ....    0
 Multiplicity           Mult            ....    1
 Number of Electrons    NEL             ....   82
 Basis Dimension        Dim             ....  274

ORBITAL ENERGIES
----------------

  NO   OCC          E(Eh)            E(eV)
   0   2.0000     -18.993866      -516.8494
   1   2.0000     -18.978608      -516.4342
   2   2.0000     -18.972546      -516.2692
   3   2.0000     -10.092814      -274.6394
   4   2.0000     -10.091632      -274.6073
   5   2.0000     -10.088817      -274.5307
   6   2.0000     -10.085863      -274.4503
   7   2.0000     -10.081508      -274.3318
   8   2.0000     -10.027931      -272.8739
   9   2.0000     -10.027079      -272.8507
  10   2.0000     -10.025058      -272.7957
  11   2.0000      -1.044080       -28.4109
  12   2.0000      -1.028101       -27.9760
  13   2.0000      -1.005395       -27.3582
  14   2.0000      -0.816071       -22.2064
  15   2.0000      -0.726319       -19.7642
  16   2.0000      -0.719897       -19.5894
  17   2.0000      -0.673630       -18.3304
  18   2.0000      -0.655511       -17.8374
  19   2.0000      -0.580773       -15.8036
  20   2.0000      -0.561682       -15.2842
  21   2.0000      -0.522062       -14.2060
  22   2.0000      -0.497017       -13.5245
  23   2.0000      -0.468903       -12.7595
  24   2.0000      -0.458575       -12.4785
  25   2.0000      -0.444896       -12.1062
  26   2.0000      -0.432325       -11.7642
  27   2.0000      -0.424798       -11.5593
  28   2.0000      -0.415781       -11.3140
  29   2.0000      -0.387077       -10.5329
  30   2.0000      -0.378585       -10.3018
  31   2.0000      -0.366927        -9.9846
  32   2.0000      -0.354487        -9.6461
  33   2.0000      -0.319576        -8.6961
  34   2.0000      -0.314773        -8.5654
  35   2.0000      -0.314488        -8.5577
  36   2.0000      -0.310047        -8.4368
  37   2.0000      -0.293060        -7.9746
  38   2.0000      -0.275339        -7.4924
  39   2.0000      -0.200309        -5.4507
  40   2.0000      -0.180320        -4.9068
  41   0.0000      -0.011053        -0.3008
  42   0.0000      -0.005314        -0.1446
  43   0.0000       0.032150         0.8748
  44   0.0000       0.077415         2.1066
  45   0.0000       0.083241         2.2651

MULLIKEN ATOMIC CHARGES
-----------------------
   0 C :   -0.321495
   1 O :   -0.176265
   2 C :    0.195183
   3 C :   -0.292720
   4 C :   -0.180098
   5 C :   -0.284283
   6 C :    0.225447
   7 C :    0.078728
   8 O :   -0.385425
   9 O :   -0.213129
  10 C :   -0.325467
  11 H :    0.155135
  12 H :    0.151352
  13 H :    0.151199
  14 H :    0.147070
  15 H :    0.144413
  16 H :    0.145430
  17 H :    0.320671
  18 H :    0.155503
  19 H :    0.153465
  20 H :    0.155285
Sum of atomic charges:    0.0000000

LOEWDIN ATOMIC CHARGES
----------------------
   0 C :   -0.050663
   1 O :   -0.661812
   2 C :    0.204156
   3 C :   -0.183070
   4 C :   -0.169418
   5 C :   -0.186131
   6 C :    0.191632
   7 C :    0.229319
   8 O :   -0.453769
   9 O :   -0.709124
  10 C :   -0.048127
  11 H :    0.180633
  12 H :    0.164031
  13 H :    0.163914
  14 H :    0.175112
  15 H :    0.167334
  16 H :    0.174132
  17 H :    0.298402
  18 H :    0.166728
  19 H :    0.180123
  20 H :    0.166598

  Mayer bond orders larger than 0.100000
B(  0-C ,  1-O ) :   0.8544 B(  0-C , 11-H ) :   0.9680 B(  0-C , 12-H ) :   0.9634
B(  0-C , 13-H ) :   0.9634 B(  1-O ,  2-C ) :   1.0822 B(  2-C ,  3-C ) :   1.2875
B(  2-C ,  7-C ) :   1.4043 B(  2-C ,  8-O ) :   0.1168 B(  3-C ,  4-C ) :   1.4001
B(  3-C , 14-H ) :   0.9282 B(  4-C ,  5-C ) :   1.3996 B(  4-C , 15-H ) :   0.9521
B(  5-C ,  6-C ) :   1.2650 B(  5-C , 16-H ) :   0.9247 B(  6-C ,  7-C ) :   1.3093
B(  6-C ,  9-O ) :   1.0902 B(  7-C ,  8-O ) :   0.9959 B(  8-O , 17-H ) :   0.8526
B(  9-O , 10-C ) :   0.8565 B( 10-C , 18-H ) :   0.9606 B( 10-C , 19-H ) :   0.9681
B( 10-C , 20-H ) :   0.9606

Dispersion correction           -0.007004309
FINAL SINGLE POINT ENERGY      -536.400512501443

DIPOLE MOMENT
-------------

Method             : SCF
Type of density    : Electron Density
Multiplicity       :   1
Irrep              :   0
Energy             :  -536.4066943126026672 Eh
Relativity type    :
Basis              : AO
                                X                 Y                 Z
Electronic contribution:     -0.259216285       4.117911516      -0.030771199
Nuclear contribution   :      0.787915685      -4.697475096       0.036332884
                        -----------------------------------------
Total Dipole Moment    :      0.528699400      -0.579563580       0.005561685
                        -----------------------------------------
Magnitude (a.u.)       :      0.784504896
Magnitude (Debye)      :      1.994052975

Rotational constants in cm-1:             0.076271             0.025449             0.019222
Rotational constants in MHz :          2286.546582           762.932925           576.271579

                             ****ORCA TERMINATED NORMALLY****
TOTAL RUN TIME: 0 days 0 hours 0 minutes 37 seconds 976 msec
