                         Program Version 6.0.0  -   RELEASE  -
|  1> ! r2scan-3c def2/J RI DEFGRID2 scfconv6 printgap
|  2> %output
|  3>     printlevel normal
|  4> end
|  5> %cpcm
|  6>     smd true
|  7>     smdsolvent "water"
|  8> end
|  9> * xyz 0 1
| 10> C -3.6004477546 0.1154913903 0.005829409
| 11> O -2.3366669531 0.750107129 -0.0006089641
| 12> C -1.2186576827 -0.0366247041 -0.0014569344
| 13> C -1.2153448144 -1.4262946209 -0.0014339131
| 14> C -0.0168280412 -2.1161375466 -0.0017020553
| 15> C 1.1939533154 -1.4481436853 -0.0014677354
| 16> C 1.2046574004 -0.0611486789 -0.0015756916
| 17> C 0.0008370604 0.6507154004 -0.0020467329
| 18> O -0.0056964968 2.0161113983 -0.0025617888
| 19> O 2.3323092637 0.7282742458 -0.0010014997
| 20> C 3.5947347927 0.0920568847 0.006156027
| 21> H -4.3244189517 0.9270597136 0.0087017695
| 22> H -3.7304451271 -0.4972491588 0.9018427171
| 23> H -3.7390788124 -0.4985602307 -0.8879870054
| 24> H -2.1421045686 -1.9743470427 -0.0012771877
| 25> H -0.0269729269 -3.194284608 -0.001844647
| 26> H 2.1140343236 -2.0074627605 -0.001291563
| 27> H 0.91541575 2.3248096121 -0.0033887522
| 28> H 3.7216312181 -0.5201083489 0.9023767551
| 29> H 4.3215216589 0.9011796138 0.0082518122
| 30> H 3.7304191112 -0.5232751127 -0.8865906317
| 31> *
| 32>
| 33>                          ****END OF INPUT****

CARTESIAN COORDINATES (ANGSTROEM)
---------------------------------
  C     -3.600448    0.115491    0.005829
  O     -2.336667    0.750107   -0.000609
  C     -1.218658   -0.036625   -0.001457
  C     -1.215345   -1.426295   -0.001434
  C     -0.016828   -2.116138   -0.001702
  C      1.193953   -1.448144   -0.001468
  C      1.204657   -0.061149   -0.001576
  C      0.000837    0.650715   -0.002047
  O     -0.005696    2.016111   -0.002562
  O      2.332309    0.728274   -0.001001
  C      3.594735    0.092057    0.006156
  H     -4.324419    0.927060    0.008702
  H     -3.730445   -0.497249    0.901843
  H     -3.739079   -0.498560   -0.887987
  H     -2.142105   -1.974347   -0.001277
  H     -0.026973   -3.194285   -0.001845
  H      2.114034   -2.007463   -0.001292
  H      0.915416    2.324810   -0.003389
  H      3.721631   -0.520108    0.902377
  H      4.321522    0.901180    0.008252
  H      3.730419   -0.523275   -0.886591

 Total Charge           Charge          ....    0
 Multiplicity           Mult            ....    1
 Number of Electrons    NEL             ....   82
 Basis Dimension        Dim             ....  274

ORBITAL ENERGIES
----------------

  NO   OCC          E(Eh)            E(eV)
   0   2.0000     -18.992664      -516.8167
   1   2.0000     -18.988460      -516.7023
   2   2.0000     -18.984463      -516.5935
   3   2.0000     -10.097134      -274.7570
   4   2.0000     -10.096032      -274.7270
   5   2.0000     -10.093320      -274.6532
   6   2.0000     -10.074767      -274.1484
   7   2.0000     -10.073222      -274.1063
   8   2.0000     -10.031702      -272.9765
   9   2.0000     -10.029241      -272.9095
  10   2.0000     -10.028337      -272.8849
  11   2.0000      -1.047707       -28.5096
  12   2.0000      -1.034580       -28.1524
  13   2.0000      -1.014444       -27.6044
  14   2.0000      -0.822057       -22.3693
  15   2.0000      -0.727626       -19.7997
  16   2.0000      -0.722698       -19.6656
  17   2.0000      -0.670805       -18.2535
  18   2.0000      -0.652161       -17.7462
  19   2.0000      -0.584997       -15.9186
  20   2.0000      -0.560714       -15.2578
  21   2.0000      -0.523047       -14.2328
  22   2.0000      -0.498181       -13.5562
  23   2.0000      -0.471554       -12.8316
  24   2.0000      -0.458799       -12.4846
  25   2.0000      -0.440543       -11.9878
  26   2.0000      -0.429737       -11.6937
  27   2.0000      -0.425692       -11.5837
  28   2.0000      -0.410646       -11.1742
  29   2.0000      -0.387093       -10.5333
  30   2.0000      -0.382618       -10.4116
  31   2.0000      -0.365774        -9.9532
  32   2.0000      -0.357066        -9.7163
  33   2.0000      -0.326708        -8.8902
  34   2.0000      -0.320965        -8.7339
  35   2.0000      -0.312992        -8.5170
  36   2.0000      -0.311546        -8.4776
  37   2.0000      -0.298311        -8.1175
  38   2.0000      -0.279158        -7.5963
  39   2.0000      -0.206020        -5.6061
  40   2.0000      -0.190180        -5.1751
  41   0.0000      -0.018404        -0.5008
  42   0.0000      -0.012168        -0.3311
  43   0.0000       0.031894         0.8679
  44   0.0000       0.082304         2.2396
  45   0.0000       0.092618         2.5203

MULLIKEN ATOMIC CHARGES
-----------------------
   0 C :   -0.327642
   1 O :   -0.230642
   2 C :    0.184996
   3 C :   -0.296584
   4 C :   -0.234722
   5 C :   -0.287996
   6 C :    0.224071
   7 C :    0.037134
   8 O :   -0.441736
   9 O :   -0.237807
  10 C :   -0.333170
  11 H :    0.173589
  12 H :    0.171450
  13 H :    0.171390
  14 H :    0.183975
  15 H :    0.177467
  16 H :    0.184451
  17 H :    0.362516
  18 H :    0.172313
  19 H :    0.174726
  20 H :    0.172221
Sum of atomic charges:    0.0000000

LOEWDIN ATOMIC CHARGES
----------------------
   0 C :   -0.045441
   1 O :   -0.697897
   2 C :    0.191048
   3 C :   -0.187600
   4 C :   -0.178955
   5 C :   -0.187257
   6 C :    0.188218
   7 C :    0.214014
   8 O :   -0.483625
   9 O :   -0.715977
  10 C :   -0.043402
  11 H :    0.187741
  12 H :    0.174550
  13 H :    0.174465
  14 H :    0.189457
  15 H :    0.179338
  16 H :    0.189654
  17 H :    0.312727
  18 H :    0.175288
  19 H :    0.188452
  20 H :    0.175202

  Mayer bond orders larger than 0.100000
B(  0-C ,  1-O ) :   0.8458 B(  0-C , 11-H ) :   0.9602 B(  0-C , 12-H ) :   0.9548
B(  0-C , 13-H ) :   0.9548 B(  1-O ,  2-C ) :   1.0505 B(  2-C ,  3-C ) :   1.2690
B(  2-C ,  7-C ) :   1.3809 B(  2-C ,  8-O ) :   0.1165 B(  3-C ,  4-C ) :   1.3539
B(  3-C , 14-H ) :   0.9402 B(  4-C ,  5-C ) :   1.3521 B(  4-C , 15-H ) :   0.9768
B(  5-C ,  6-C ) :   1.2537 B(  5-C , 16-H ) :   0.9371 B(  6-C ,  7-C ) :   1.2866
B(  6-C ,  9-O ) :   1.0712 B(  7-C ,  8-O ) :   0.9806 B(  8-O , 17-H ) :   0.8335
B(  9-O , 10-C ) :   0.8484 B( 10-C , 18-H ) :   0.9535 B( 10-C , 19-H ) :   0.9598
B( 10-C , 20-H ) :   0.9535

Dispersion correction           -0.007004309
FINAL SINGLE POINT ENERGY      -536.410797971414

DIPOLE MOMENT
-------------

Method             : SCF
Type of density    : Electron Density
Multiplicity       :   1
Irrep              :   0
Energy             :  -536.4169797825738897 Eh
Relativity type    :
Basis              : AO
                                X                 Y                 Z
Electronic contribution:     -0.013478939       3.690392064      -0.028837249
Nuclear contribution   :      0.787915685      -4.697475096       0.036332884
                        -----------------------------------------
Total Dipole Moment    :      0.774436746      -1.007083032       0.007495635
                        -----------------------------------------
Magnitude (a.u.)       :      1.270442715
Magnitude (Debye)      :      3.229208752

Rotational constants in cm-1:             0.076271             0.025449             0.019222
Rotational constants in MHz :          2286.546582           762.932925           576.271579

                             ****ORCA TERMINATED NORMALLY****
TOTAL RUN TIME: 0 days 0 hours 0 minutes 50 seconds 391 msec
