                         Program Version 6.0.0  -   RELEASE  -
|  1> ! r2scan-3c def2/J RI DEFGRID2 scfconv6 printgap
|  2> %output
|  3>     printlevel normal
|  4> end
|  5> * xyz 0 1
|  6> C 1.8846995022 -0.1775723573 -1.2471033761
|  7> C 1.0306467489 -0.208255822 0.0212320645
|  8> C 1.8805893961 0.0841111216 1.2586742891
|  9> O 0.0056744022 0.7842042442 -0.0846315644
| 10> C -1.3515676218 0.3619314694 -0.0387271705
| 11> C -1.7358422037 -0.54162557 -1.2133910088
| 12> C -1.7345631545 -0.2729616186 1.3006752496
| 13> H 1.2761086853 -0.4062809897 -2.1180029222
| 14> H 2.3094385355 0.8145828513 -1.3738571727
| 15> H 2.6876720697 -0.9050329654 -1.17397346
| 16> H 0.5803106208 -1.2021457927 0.1242155164
| 17> H 2.3039989522 1.081791185 1.1797718454
| 18> H 2.68448248 -0.6415893244 1.3390236985
| 19> H 1.2695757488 0.0385034303 2.1563001676
| 20> H -1.8870630412 1.3142540418 -0.1402787878
| 21> H -2.8116251346 -0.6884990894 -1.2187457279
| 22> H -1.4390808959 -0.0762497631 -2.1500739908
| 23> H -1.2538556753 -1.5133819771 -1.1363396953
| 24> H -1.2518719998 -1.2387126653 1.4304911719
| 25> H -2.8102153247 -0.4160594895 1.3377849421
| 26> H -1.4376672883 0.3801183355 2.1175694411
| 27> *
| 28>
| 29>                          ****END OF INPUT****

CARTESIAN COORDINATES (ANGSTROEM)
---------------------------------
  C      1.884700   -0.177572   -1.247103
  C      1.030647   -0.208256    0.021232
  C      1.880589    0.084111    1.258674
  O      0.005674    0.784204   -0.084632
  C     -1.351568    0.361931   -0.038727
  C     -1.735842   -0.541626   -1.213391
  C     -1.734563   -0.272962    1.300675
  H      1.276109   -0.406281   -2.118003
  H      2.309439    0.814583   -1.373857
  H      2.687672   -0.905033   -1.173973
  H      0.580311   -1.202146    0.124216
  H      2.303999    1.081791    1.179772
  H      2.684482   -0.641589    1.339024
  H      1.269576    0.038503    2.156300
  H     -1.887063    1.314254   -0.140279
  H     -2.811625   -0.688499   -1.218746
  H     -1.439081   -0.076250   -2.150074
  H     -1.253856   -1.513382   -1.136340
  H     -1.251872   -1.238713    1.430491
  H     -2.810215   -0.416059    1.337785
  H     -1.437667    0.380118    2.117569

 Total Charge           Charge          ....    0
 Multiplicity           Mult            ....    1
 Number of Electrons    NEL             ....   58
 Basis Dimension        Dim             ....  208

ORBITAL ENERGIES
----------------

  NO   OCC          E(Eh)            E(eV)
   0   2.0000     -18.937350      -515.3115
   1   2.0000     -10.080571      -274.3063
   2   2.0000     -10.078049      -274.2376
   3   2.0000     -10.017720      -272.5960
   4   2.0000     -10.017701      -272.5955
   5   2.0000     -10.012931      -272.4657
   6   2.0000     -10.012926      -272.4656
   7   2.0000      -0.983542       -26.7635
   8   2.0000      -0.758688       -20.6450
   9   2.0000      -0.716787       -19.5048
  10   2.0000      -0.658086       -17.9074
  11   2.0000      -0.648109       -17.6359
  12   2.0000      -0.581004       -15.8099
  13   2.0000      -0.516462       -14.0536
  14   2.0000      -0.465885       -12.6774
  15   2.0000      -0.430057       -11.7025
  16   2.0000      -0.406690       -11.0666
  17   2.0000      -0.402310       -10.9474
  18   2.0000      -0.384620       -10.4660
  19   2.0000      -0.372668       -10.1408
  20   2.0000      -0.354964        -9.6591
  21   2.0000      -0.351943        -9.5768
  22   2.0000      -0.349655        -9.5146
  23   2.0000      -0.331654        -9.0248
  24   2.0000      -0.327724        -8.9178
  25   2.0000      -0.307241        -8.3605
  26   2.0000      -0.303989        -8.2720
  27   2.0000      -0.259196        -7.0531
  28   2.0000      -0.210684        -5.7330
  29   0.0000       0.078658         2.1404
  30   0.0000       0.097373         2.6497
  31   0.0000       0.117472         3.1966
  32   0.0000       0.120188         3.2705
  33   0.0000       0.125227         3.4076

MULLIKEN ATOMIC CHARGES
-----------------------
   0 C :   -0.478060
   1 C :    0.051655
   2 C :   -0.477885
   3 O :   -0.200686
   4 C :   -0.031411
   5 C :   -0.462722
   6 C :   -0.462976
   7 H :    0.149099
   8 H :    0.156741
   9 H :    0.140052
  10 H :    0.127696
  11 H :    0.156831
  12 H :    0.139984
  13 H :    0.149119
  14 H :    0.146174
  15 H :    0.143579
  16 H :    0.160985
  17 H :    0.143589
  18 H :    0.143704
  19 H :    0.143546
  20 H :    0.160985
Sum of atomic charges:   -0.0000000

LOEWDIN ATOMIC CHARGES
----------------------
   0 C :   -0.389074
   1 C :    0.051709
   2 C :   -0.389176
   3 O :   -0.760331
   4 C :    0.048824
   5 C :   -0.401031
   6 C :   -0.401035
   7 H :    0.157163
   8 H :    0.161560
   9 H :    0.153987
  10 H :    0.166012
  11 H :    0.161577
  12 H :    0.153988
  13 H :    0.157126
  14 H :    0.182979
  15 H :    0.157764
  16 H :    0.161373
  17 H :    0.153727
  18 H :    0.153759
  19 H :    0.157749
  20 H :    0.161352

  Mayer bond orders larger than 0.100000
B(  0-C ,  1-C ) :   0.9485 B(  0-C ,  7-H ) :   0.9706 B(  0-C ,  8-H ) :   0.9830
B(  0-C ,  9-H ) :   0.9758 B(  1-C ,  2-C ) :   0.9485 B(  1-C ,  3-O ) :   0.7178
B(  1-C , 10-H ) :   0.9351 B(  2-C , 11-H ) :   0.9831 B(  2-C , 12-H ) :   0.9758
B(  2-C , 13-H ) :   0.9705 B(  3-O ,  4-C ) :   0.9178 B(  4-C ,  5-C ) :   0.9391
B(  4-C ,  6-C ) :   0.9381 B(  4-C , 14-H ) :   0.9567 B(  5-C , 15-H ) :   0.9638
B(  5-C , 16-H ) :   0.9724 B(  5-C , 17-H ) :   0.9719 B(  6-C , 18-H ) :   0.9720
B(  6-C , 19-H ) :   0.9637 B(  6-C , 20-H ) :   0.9723

Dispersion correction           -0.005567084
FINAL SINGLE POINT ENERGY      -312.192583584725

DIPOLE MOMENT
-------------

Method             : SCF
Type of density    : Electron Density
Multiplicity       :   1
Irrep              :   0
Energy             :  -312.1992002823928374 Eh
Relativity type    :
Basis              : AO
                                X                 Y                 Z
Electronic contribution:     -0.370558098       2.774857565      -0.300539203
Nuclear contribution   :      0.206675080      -3.233190139       0.349509305
                        -----------------------------------------
Total Dipole Moment    :     -0.163883018      -0.458332573       0.048970101
                        -----------------------------------------
Magnitude (a.u.)       :      0.489207995
Magnitude (Debye)      :      1.243467903

Rotational constants in cm-1:             0.124885             0.061314             0.047270
Rotational constants in MHz :          3743.960125          1838.136416          1417.128838

                             ****ORCA TERMINATED NORMALLY****
TOTAL RUN TIME: 0 days 0 hours 0 minutes 23 seconds 601 msec
