                         Program Version 6.0.0  -   RELEASE  -
|  1> ! r2scan-3c def2/J RI DEFGRID2 scfconv6 printgap
|  2> %output
|  3>     printlevel normal
|  4> end
|  5> %cpcm
|  6>     smd true
|  7>     smdsolvent "water"
|  8> end
|  9> * xyz 0 1
| 10> C 1.8846995022 -0.1775723573 -1.2471033761
| 11> C 1.0306467489 -0.208255822 0.0212320645
| 12> C 1.8805893961 0.0841111216 1.2586742891
| 13> O 0.0056744022 0.7842042442 -0.0846315644
| 14> C -1.3515676218 0.3619314694 -0.0387271705
| 15> C -1.7358422037 -0.54162557 -1.2133910088
| 16> C -1.7345631545 -0.2729616186 1.3006752496
| 17> H 1.2761086853 -0.4062809897 -2.1180029222
| 18> H 2.3094385355 0.8145828513 -1.3738571727
| 19> H 2.6876720697 -0.9050329654 -1.17397346
| 20> H 0.5803106208 -1.2021457927 0.1242155164
| 21> H 2.3039989522 1.081791185 1.1797718454
| 22> H 2.68448248 -0.6415893244 1.3390236985
| 23> H 1.2695757488 0.0385034303 2.1563001676
| 24> H -1.8870630412 1.3142540418 -0.1402787878
| 25> H -2.8116251346 -0.6884990894 -1.2187457279
| 26> H -1.4390808959 -0.0762497631 -2.1500739908
| 27> H -1.2538556753 -1.5133819771 -1.1363396953
| 28> H -1.2518719998 -1.2387126653 1.4304911719
| 29> H -2.8102153247 -0.4160594895 1.3377849421
| 30> H -1.4376672883 0.3801183355 2.1175694411
| 31> *
| 32>
| 33>                          ****END OF INPUT****

CARTESIAN COORDINATES (ANGSTROEM)
---------------------------------
  C      1.884700   -0.177572   -1.247103
  C      1.030647   -0.208256    0.021232
  C      1.880589    0.084111    1.258674
  O      0.005674    0.784204   -0.084632
  C     -1.351568    0.361931   -0.038727
  C     -1.735842   -0.541626   -1.213391
  C     -1.734563   -0.272962    1.300675
  H      1.276109   -0.406281   -2.118003
  H      2.309439    0.814583   -1.373857
  H      2.687672   -0.905033   -1.173973
  H      0.580311   -1.202146    0.124216
  H      2.303999    1.081791    1.179772
  H      2.684482   -0.641589    1.339024
  H      1.269576    0.038503    2.156300
  H     -1.887063    1.314254   -0.140279
  H     -2.811625   -0.688499   -1.218746
  H     -1.439081   -0.076250   -2.150074
  H     -1.253856   -1.513382   -1.136340
  H     -1.251872   -1.238713    1.430491
  H     -2.810215   -0.416059    1.337785
  H     -1.437667    0.380118    2.117569

 Total Charge           Charge          ....    0
 Multiplicity           Mult            ....    1
 Number of Electrons    NEL             ....   58
 Basis Dimension        Dim             ....  208

ORBITAL ENERGIES
----------------

  NO   OCC          E(Eh)            E(eV)
   0   2.0000     -18.945309      -515.5281
   1   2.0000     -10.077082      -274.2113
   2   2.0000     -10.074494      -274.1409
   3   2.0000     -10.009142      -272.3626
   4   2.0000     -10.009117      -272.3619
   5   2.0000     -10.008543      -272.3463
   6   2.0000     -10.008537      -272.3461
   7   2.0000      -0.989735       -26.9321
   8   2.0000      -0.755058       -20.5462
   9   2.0000      -0.712021       -19.3751
  10   2.0000      -0.652037       -17.7428
  11   2.0000      -0.643215       -17.5028
  12   2.0000      -0.578958       -15.7542
  13   2.0000      -0.512685       -13.9509
  14   2.0000      -0.462162       -12.5761
  15   2.0000      -0.426423       -11.6036
  16   2.0000      -0.405190       -11.0258
  17   2.0000      -0.397752       -10.8234
  18   2.0000      -0.378679       -10.3044
  19   2.0000      -0.366370        -9.9694
  20   2.0000      -0.348858        -9.4929
  21   2.0000      -0.346268        -9.4224
  22   2.0000      -0.345254        -9.3948
  23   2.0000      -0.328910        -8.9501
  24   2.0000      -0.322886        -8.7862
  25   2.0000      -0.302096        -8.2205
  26   2.0000      -0.298698        -8.1280
  27   2.0000      -0.262148        -7.1334
  28   2.0000      -0.216587        -5.8936
  29   0.0000       0.085957         2.3390
  30   0.0000       0.100345         2.7305
  31   0.0000       0.124465         3.3869
  32   0.0000       0.127623         3.4728
  33   0.0000       0.131830         3.5873

MULLIKEN ATOMIC CHARGES
-----------------------
   0 C :   -0.531845
   1 C :    0.077654
   2 C :   -0.531905
   3 O :   -0.275784
   4 C :   -0.012839
   5 C :   -0.501323
   6 C :   -0.501765
   7 H :    0.161942
   8 H :    0.164503
   9 H :    0.162221
  10 H :    0.159987
  11 H :    0.164478
  12 H :    0.162106
  13 H :    0.162154
  14 H :    0.156873
  15 H :    0.163294
  16 H :    0.163745
  17 H :    0.164638
  18 H :    0.164911
  19 H :    0.163227
  20 H :    0.163725
Sum of atomic charges:   -0.0000000

LOEWDIN ATOMIC CHARGES
----------------------
   0 C :   -0.397572
   1 C :    0.053688
   2 C :   -0.397677
   3 O :   -0.801702
   4 C :    0.049284
   5 C :   -0.405036
   6 C :   -0.405053
   7 H :    0.159709
   8 H :    0.161284
   9 H :    0.162449
  10 H :    0.178318
  11 H :    0.161269
  12 H :    0.162438
  13 H :    0.159753
  14 H :    0.186309
  15 H :    0.164558
  16 H :    0.161379
  17 H :    0.160321
  18 H :    0.160405
  19 H :    0.164541
  20 H :    0.161336

  Mayer bond orders larger than 0.100000
B(  0-C ,  1-C ) :   0.9336 B(  0-C ,  7-H ) :   0.9687 B(  0-C ,  8-H ) :   0.9814
B(  0-C ,  9-H ) :   0.9703 B(  1-C ,  2-C ) :   0.9338 B(  1-C ,  3-O ) :   0.7149
B(  1-C , 10-H ) :   0.9312 B(  2-C , 11-H ) :   0.9815 B(  2-C , 12-H ) :   0.9703
B(  2-C , 13-H ) :   0.9684 B(  3-O ,  4-C ) :   0.9052 B(  4-C ,  5-C ) :   0.9363
B(  4-C ,  6-C ) :   0.9352 B(  4-C , 14-H ) :   0.9541 B(  5-C , 15-H ) :   0.9599
B(  5-C , 16-H ) :   0.9677 B(  5-C , 17-H ) :   0.9690 B(  6-C , 18-H ) :   0.9692
B(  6-C , 19-H ) :   0.9599 B(  6-C , 20-H ) :   0.9677

Dispersion correction           -0.005567084
FINAL SINGLE POINT ENERGY      -312.194968339562

DIPOLE MOMENT
-------------

Method             : SCF
Type of density    : Electron Density
Multiplicity       :   1
Irrep              :   0
Energy             :  -312.2015850372302452 Eh
Relativity type    :
Basis              : AO
                                X                 Y                 Z
Electronic contribution:     -0.429939626       2.439031056      -0.264284155
Nuclear contribution   :      0.206675080      -3.233190139       0.349509305
                        -----------------------------------------
Total Dipole Moment    :     -0.223264546      -0.794159083       0.085225150
                        -----------------------------------------
Magnitude (a.u.)       :      0.829336502
Magnitude (Debye)      :      2.108005861

Rotational constants in cm-1:             0.124885             0.061314             0.047270
Rotational constants in MHz :          3743.960125          1838.136416          1417.128838

                             ****ORCA TERMINATED NORMALLY****
TOTAL RUN TIME: 0 days 0 hours 0 minutes 28 seconds 177 msec
