                         Program Version 6.0.0  -   RELEASE  -
|  1> ! r2scan-3c def2/J RI DEFGRID2 scfconv6 printgap
|  2> %output
|  3>     printlevel normal
|  4> end
|  5> * xyz 0 1
|  6> C 3.0724839019 -0.4652127583 0.1790347428
|  7> C 1.8930246245 0.2923686452 -0.4184959813
|  8> C 0.5636565951 -0.2057468513 0.1456412283
|  9> C -0.6106269912 0.5521347342 -0.4496270105
| 10> S -2.1817448851 -0.094764494 0.2575827553
| 11> H 4.0084731715 -0.0987730792 -0.2344656325
| 12> H 2.9919754725 -1.5278203197 -0.0382172419
| 13> H 3.0991070443 -0.3380652621 1.2588165859
| 14> H 1.8923191194 0.168687302 -1.5035940288
| 15> H 1.9981254924 1.3581361482 -0.2044392375
| 16> H 0.555723821 -0.0847800909 1.2319195982
| 17> H 0.4487778377 -1.2714041114 -0.0685688153
| 18> H -0.5547933237 1.6130294008 -0.2082558182
| 19> H -0.6569921711 0.4159453498 -1.5294982811
| 20> H -2.9865229121 0.7117421423 -0.4221886667
| 21> *
| 22>
| 23>                          ****END OF INPUT****

CARTESIAN COORDINATES (ANGSTROEM)
---------------------------------
  C      3.072484   -0.465213    0.179035
  C      1.893025    0.292369   -0.418496
  C      0.563657   -0.205747    0.145641
  C     -0.610627    0.552135   -0.449627
  S     -2.181745   -0.094764    0.257583
  H      4.008473   -0.098773   -0.234466
  H      2.991975   -1.527820   -0.038217
  H      3.099107   -0.338065    1.258817
  H      1.892319    0.168687   -1.503594
  H      1.998125    1.358136   -0.204439
  H      0.555724   -0.084780    1.231920
  H      0.448778   -1.271404   -0.068569
  H     -0.554793    1.613029   -0.208256
  H     -0.656992    0.415945   -1.529498
  H     -2.986523    0.711742   -0.422189

 Total Charge           Charge          ....    0
 Multiplicity           Mult            ....    1
 Number of Electrons    NEL             ....   50
 Basis Dimension        Dim             ....  153

ORBITAL ENERGIES
----------------

  NO   OCC          E(Eh)            E(eV)
   0   2.0000     -88.548144     -2409.5175
   1   2.0000     -10.064198      -273.8607
   2   2.0000     -10.036437      -273.1053
   3   2.0000     -10.033767      -273.0327
   4   2.0000     -10.021781      -272.7065
   5   2.0000      -7.843242      -213.4255
   6   2.0000      -5.790319      -157.5626
   7   2.0000      -5.786851      -157.4682
   8   2.0000      -5.780250      -157.2886
   9   2.0000      -0.784770       -21.3547
  10   2.0000      -0.731670       -19.9097
  11   2.0000      -0.660402       -17.9704
  12   2.0000      -0.581453       -15.8222
  13   2.0000      -0.553190       -15.0531
  14   2.0000      -0.455286       -12.3890
  15   2.0000      -0.421402       -11.4669
  16   2.0000      -0.401743       -10.9320
  17   2.0000      -0.390531       -10.6269
  18   2.0000      -0.368099       -10.0165
  19   2.0000      -0.337039        -9.1713
  20   2.0000      -0.318081        -8.6554
  21   2.0000      -0.307563        -8.3692
  22   2.0000      -0.304108        -8.2752
  23   2.0000      -0.294197        -8.0055
  24   2.0000      -0.206991        -5.6325
  25   0.0000       0.010216         0.2780
  26   0.0000       0.057313         1.5596
  27   0.0000       0.097250         2.6463
  28   0.0000       0.111743         3.0407
  29   0.0000       0.132182         3.5969

MULLIKEN ATOMIC CHARGES
-----------------------
   0 C :   -0.462344
   1 C :   -0.231560
   2 C :   -0.289190
   3 C :   -0.198427
   4 S :   -0.268168
   5 H :    0.148366
   6 H :    0.143136
   7 H :    0.143243
   8 H :    0.136402
   9 H :    0.136265
  10 H :    0.148706
  11 H :    0.148821
  12 H :    0.155282
  13 H :    0.154815
  14 H :    0.134652
Sum of atomic charges:   -0.0000000

LOEWDIN ATOMIC CHARGES
----------------------
   0 C :   -0.422147
   1 C :   -0.315289
   2 C :   -0.318610
   3 C :   -0.351859
   4 S :   -0.111933
   5 H :    0.151349
   6 H :    0.150987
   7 H :    0.150973
   8 H :    0.152274
   9 H :    0.152283
  10 H :    0.159280
  11 H :    0.159335
  12 H :    0.158672
  13 H :    0.158713
  14 H :    0.125972

  Mayer bond orders larger than 0.100000
B(  0-C ,  1-C ) :   0.9021 B(  0-C ,  5-H ) :   0.9749 B(  0-C ,  6-H ) :   0.9820
B(  0-C ,  7-H ) :   0.9822 B(  1-C ,  2-C ) :   0.9242 B(  1-C ,  8-H ) :   0.9694
B(  1-C ,  9-H ) :   0.9694 B(  2-C ,  3-C ) :   0.9536 B(  2-C , 10-H ) :   0.9671
B(  2-C , 11-H ) :   0.9671 B(  3-C ,  4-S ) :   0.9883 B(  3-C , 12-H ) :   0.9614
B(  3-C , 13-H ) :   0.9614 B(  4-S , 14-H ) :   0.9603

Dispersion correction           -0.003470179
FINAL SINGLE POINT ENERGY      -556.555456127885

DIPOLE MOMENT
-------------

Method             : SCF
Type of density    : Electron Density
Multiplicity       :   1
Irrep              :   0
Energy             :  -556.5621621012556943 Eh
Relativity type    :
Basis              : AO
                                X                 Y                 Z
Electronic contribution:     -9.704073038      -0.512364027       1.235713425
Nuclear contribution   :     10.190609808       0.890854991      -1.619551731
                        -----------------------------------------
Total Dipole Moment    :      0.486536770       0.378490964      -0.383838306
                        -----------------------------------------
Magnitude (a.u.)       :      0.726157891
Magnitude (Debye)      :      1.845746676

Rotational constants in cm-1:             0.534888             0.044633             0.042507
Rotational constants in MHz :         16035.535915          1338.067396          1274.325491

                             ****ORCA TERMINATED NORMALLY****
TOTAL RUN TIME: 0 days 0 hours 0 minutes 13 seconds 244 msec
