                         Program Version 6.0.0  -   RELEASE  -
|  1> ! r2scan-3c def2/J RI DEFGRID2 scfconv6 printgap
|  2> %output
|  3>     printlevel normal
|  4> end
|  5> %cpcm
|  6>     smd true
|  7>     smdsolvent "water"
|  8> end
|  9> * xyz 0 1
| 10> C 3.0724839019 -0.4652127583 0.1790347428
| 11> C 1.8930246245 0.2923686452 -0.4184959813
| 12> C 0.5636565951 -0.2057468513 0.1456412283
| 13> C -0.6106269912 0.5521347342 -0.4496270105
| 14> S -2.1817448851 -0.094764494 0.2575827553
| 15> H 4.0084731715 -0.0987730792 -0.2344656325
| 16> H 2.9919754725 -1.5278203197 -0.0382172419
| 17> H 3.0991070443 -0.3380652621 1.2588165859
| 18> H 1.8923191194 0.168687302 -1.5035940288
| 19> H 1.9981254924 1.3581361482 -0.2044392375
| 20> H 0.555723821 -0.0847800909 1.2319195982
| 21> H 0.4487778377 -1.2714041114 -0.0685688153
| 22> H -0.5547933237 1.6130294008 -0.2082558182
| 23> H -0.6569921711 0.4159453498 -1.5294982811
| 24> H -2.9865229121 0.7117421423 -0.4221886667
| 25> *
| 26>
| 27>                          ****END OF INPUT****

CARTESIAN COORDINATES (ANGSTROEM)
---------------------------------
  C      3.072484   -0.465213    0.179035
  C      1.893025    0.292369   -0.418496
  C      0.563657   -0.205747    0.145641
  C     -0.610627    0.552135   -0.449627
  S     -2.181745   -0.094764    0.257583
  H      4.008473   -0.098773   -0.234466
  H      2.991975   -1.527820   -0.038217
  H      3.099107   -0.338065    1.258817
  H      1.892319    0.168687   -1.503594
  H      1.998125    1.358136   -0.204439
  H      0.555724   -0.084780    1.231920
  H      0.448778   -1.271404   -0.068569
  H     -0.554793    1.613029   -0.208256
  H     -0.656992    0.415945   -1.529498
  H     -2.986523    0.711742   -0.422189

 Total Charge           Charge          ....    0
 Multiplicity           Mult            ....    1
 Number of Electrons    NEL             ....   50
 Basis Dimension        Dim             ....  153

ORBITAL ENERGIES
----------------

  NO   OCC          E(Eh)            E(eV)
   0   2.0000     -88.547808     -2409.5084
   1   2.0000     -10.054023      -273.5839
   2   2.0000     -10.024666      -272.7850
   3   2.0000     -10.020036      -272.6590
   4   2.0000     -10.009200      -272.3642
   5   2.0000      -7.843039      -213.4199
   6   2.0000      -5.789857      -157.5500
   7   2.0000      -5.786499      -157.4587
   8   2.0000      -5.780490      -157.2951
   9   2.0000      -0.774438       -21.0735
  10   2.0000      -0.722911       -19.6714
  11   2.0000      -0.652530       -17.7562
  12   2.0000      -0.571664       -15.5558
  13   2.0000      -0.541136       -14.7251
  14   2.0000      -0.442672       -12.0457
  15   2.0000      -0.412670       -11.2293
  16   2.0000      -0.389649       -10.6029
  17   2.0000      -0.380964       -10.3666
  18   2.0000      -0.358121        -9.7450
  19   2.0000      -0.324981        -8.8432
  20   2.0000      -0.307672        -8.3722
  21   2.0000      -0.299233        -8.1425
  22   2.0000      -0.290430        -7.9030
  23   2.0000      -0.287535        -7.8242
  24   2.0000      -0.209037        -5.6882
  25   0.0000       0.012949         0.3523
  26   0.0000       0.062600         1.7034
  27   0.0000       0.109819         2.9883
  28   0.0000       0.121086         3.2949
  29   0.0000       0.143110         3.8942

MULLIKEN ATOMIC CHARGES
-----------------------
   0 C :   -0.506777
   1 C :   -0.241849
   2 C :   -0.291210
   3 C :   -0.213511
   4 S :   -0.346930
   5 H :    0.158038
   6 H :    0.153976
   7 H :    0.154114
   8 H :    0.148524
   9 H :    0.148398
  10 H :    0.156171
  11 H :    0.155933
  12 H :    0.176343
  13 H :    0.176200
  14 H :    0.172579
Sum of atomic charges:    0.0000000

LOEWDIN ATOMIC CHARGES
----------------------
   0 C :   -0.431038
   1 C :   -0.314801
   2 C :   -0.320695
   3 C :   -0.346659
   4 S :   -0.149950
   5 H :    0.153465
   6 H :    0.153022
   7 H :    0.153022
   8 H :    0.155775
   9 H :    0.155789
  10 H :    0.160418
  11 H :    0.160350
  12 H :    0.166265
  13 H :    0.166408
  14 H :    0.138632

  Mayer bond orders larger than 0.100000
B(  0-C ,  1-C ) :   0.8890 B(  0-C ,  5-H ) :   0.9723 B(  0-C ,  6-H ) :   0.9803
B(  0-C ,  7-H ) :   0.9805 B(  1-C ,  2-C ) :   0.9227 B(  1-C ,  8-H ) :   0.9697
B(  1-C ,  9-H ) :   0.9697 B(  2-C ,  3-C ) :   0.9384 B(  2-C , 10-H ) :   0.9657
B(  2-C , 11-H ) :   0.9659 B(  3-C ,  4-S ) :   0.9707 B(  3-C , 12-H ) :   0.9592
B(  3-C , 13-H ) :   0.9593 B(  4-S , 14-H ) :   0.9544

Dispersion correction           -0.003470179
FINAL SINGLE POINT ENERGY      -556.557218028424

DIPOLE MOMENT
-------------

Method             : SCF
Type of density    : Electron Density
Multiplicity       :   1
Irrep              :   0
Energy             :  -556.5639240017947031 Eh
Relativity type    :
Basis              : AO
                                X                 Y                 Z
Electronic contribution:     -9.588832093      -0.355192209       1.083514608
Nuclear contribution   :     10.190609808       0.890854991      -1.619551731
                        -----------------------------------------
Total Dipole Moment    :      0.601777715       0.535662782      -0.536037123
                        -----------------------------------------
Magnitude (a.u.)       :      0.967681162
Magnitude (Debye)      :      2.459650043

Rotational constants in cm-1:             0.534888             0.044633             0.042507
Rotational constants in MHz :         16035.535915          1338.067396          1274.325491

                             ****ORCA TERMINATED NORMALLY****
TOTAL RUN TIME: 0 days 0 hours 0 minutes 16 seconds 76 msec
