                         Program Version 6.0.0  -   RELEASE  -
|  1> ! r2scan-3c def2/J RI DEFGRID2 scfconv6 printgap
|  2> %output
|  3>     printlevel normal
|  4> end
|  5> * xyz 0 1
|  6> C 1.8244344534 1.1109679171 0.2959261067
|  7> C 1.3916036586 -0.1852841562 -0.3883452945
|  8> H 2.0529893677 -0.3628218975 -1.2464546821
|  9> C -0.0507424917 -0.139936548 -0.9299682822
| 10> C -1.1379718738 0.4696478889 -0.0342851106
| 11> C -2.4517412877 0.5038910674 -0.8172919827
| 12> C -1.3414444824 -0.302324185 1.2689298115
| 13> O 1.6279632651 -1.3151102981 0.4351444822
| 14> H 1.6811084928 1.9498474883 -0.3784230967
| 15> H 1.2527838975 1.2837139415 1.2039662522
| 16> H 2.8773116347 1.0473566265 0.5600907057
| 17> H -0.0258733093 0.4315190885 -1.8600711934
| 18> H -0.3319909591 -1.1657144278 -1.1825198766
| 19> H -0.8625942577 1.5013821004 0.2052787966
| 20> H -2.7712790578 -0.5061270078 -1.0647979346
| 21> H -2.3346947363 1.0627352234 -1.7426875054
| 22> H -3.2341811319 0.9769281733 -0.2286668341
| 23> H -2.2415221061 0.0475292377 1.7704755106
| 24> H -1.4564670055 -1.3651780229 1.0677912084
| 25> H -0.5100006055 -0.1578358316 1.9544491498
| 26> H 1.1056532549 -1.2296871975 1.2442004908
| 27> *
| 28>
| 29>                          ****END OF INPUT****

CARTESIAN COORDINATES (ANGSTROEM)
---------------------------------
  C      1.824434    1.110968    0.295926
  C      1.391604   -0.185284   -0.388345
  H      2.052989   -0.362822   -1.246455
  C     -0.050742   -0.139937   -0.929968
  C     -1.137972    0.469648   -0.034285
  C     -2.451741    0.503891   -0.817292
  C     -1.341444   -0.302324    1.268930
  O      1.627963   -1.315110    0.435144
  H      1.681108    1.949847   -0.378423
  H      1.252784    1.283714    1.203966
  H      2.877312    1.047357    0.560091
  H     -0.025873    0.431519   -1.860071
  H     -0.331991   -1.165714   -1.182520
  H     -0.862594    1.501382    0.205279
  H     -2.771279   -0.506127   -1.064798
  H     -2.334695    1.062735   -1.742688
  H     -3.234181    0.976928   -0.228667
  H     -2.241522    0.047529    1.770476
  H     -1.456467   -1.365178    1.067791
  H     -0.510001   -0.157836    1.954449
  H      1.105653   -1.229687    1.244200

 Total Charge           Charge          ....    0
 Multiplicity           Mult            ....    1
 Number of Electrons    NEL             ....   58
 Basis Dimension        Dim             ....  208

ORBITAL ENERGIES
----------------

  NO   OCC          E(Eh)            E(eV)
   0   2.0000     -18.939799      -515.3781
   1   2.0000     -10.078800      -274.2581
   2   2.0000     -10.038463      -273.1605
   3   2.0000     -10.024641      -272.7844
   4   2.0000     -10.022317      -272.7211
   5   2.0000     -10.019203      -272.6364
   6   2.0000     -10.018403      -272.6146
   7   2.0000      -0.978942       -26.6384
   8   2.0000      -0.780870       -21.2486
   9   2.0000      -0.720485       -19.6054
  10   2.0000      -0.659433       -17.9441
  11   2.0000      -0.649395       -17.6709
  12   2.0000      -0.576251       -15.6806
  13   2.0000      -0.525888       -14.3101
  14   2.0000      -0.459149       -12.4941
  15   2.0000      -0.438988       -11.9455
  16   2.0000      -0.421673       -11.4743
  17   2.0000      -0.410751       -11.1771
  18   2.0000      -0.389083       -10.5875
  19   2.0000      -0.377042       -10.2598
  20   2.0000      -0.362700        -9.8696
  21   2.0000      -0.347737        -9.4624
  22   2.0000      -0.341892        -9.3034
  23   2.0000      -0.325969        -8.8701
  24   2.0000      -0.318932        -8.6786
  25   2.0000      -0.300818        -8.1857
  26   2.0000      -0.295463        -8.0399
  27   2.0000      -0.270163        -7.3515
  28   2.0000      -0.229823        -6.2538
  29   0.0000       0.059190         1.6106
  30   0.0000       0.092280         2.5111
  31   0.0000       0.103309         2.8112
  32   0.0000       0.114762         3.1228
  33   0.0000       0.127051         3.4572

MULLIKEN ATOMIC CHARGES
-----------------------
   0 C :   -0.485227
   1 C :   -0.030587
   2 H :    0.143888
   3 C :   -0.303297
   4 C :   -0.033228
   5 C :   -0.484043
   6 C :   -0.512366
   7 O :   -0.403171
   8 H :    0.151465
   9 H :    0.144637
  10 H :    0.162641
  11 H :    0.142754
  12 H :    0.166031
  13 H :    0.154953
  14 H :    0.149297
  15 H :    0.144312
  16 H :    0.147411
  17 H :    0.147711
  18 H :    0.173524
  19 H :    0.128960
  20 H :    0.294334
Sum of atomic charges:    0.0000000

LOEWDIN ATOMIC CHARGES
----------------------
   0 C :   -0.400398
   1 C :    0.044233
   2 H :    0.181941
   3 C :   -0.286284
   4 C :   -0.245871
   5 C :   -0.415274
   6 C :   -0.419387
   7 O :   -0.608341
   8 H :    0.158607
   9 H :    0.153454
  10 H :    0.161156
  11 H :    0.163515
  12 H :    0.171796
  13 H :    0.157407
  14 H :    0.155267
  15 H :    0.153476
  16 H :    0.151631
  17 H :    0.155947
  18 H :    0.158405
  19 H :    0.143932
  20 H :    0.264788

  Mayer bond orders larger than 0.100000
B(  0-C ,  1-C ) :   0.9243 B(  0-C ,  8-H ) :   0.9764 B(  0-C ,  9-H ) :   0.9653
B(  0-C , 10-H ) :   0.9680 B(  1-C ,  2-H ) :   0.9772 B(  1-C ,  3-C ) :   0.8980
B(  1-C ,  7-O ) :   0.9672 B(  3-C ,  4-C ) :   0.8920 B(  3-C , 11-H ) :   0.9706
B(  3-C , 12-H ) :   0.9927 B(  4-C ,  5-C ) :   0.9193 B(  4-C ,  6-C ) :   0.8771
B(  4-C , 13-H ) :   0.9467 B(  5-C , 14-H ) :   0.9858 B(  5-C , 15-H ) :   0.9756
B(  5-C , 16-H ) :   0.9768 B(  6-C , 17-H ) :   0.9691 B(  6-C , 18-H ) :   0.9874
B(  6-C , 19-H ) :   0.9642 B(  7-O , 20-H ) :   0.8803

Dispersion correction           -0.005748312
FINAL SINGLE POINT ENERGY      -312.200901082609

DIPOLE MOMENT
-------------

Method             : SCF
Type of density    : Electron Density
Multiplicity       :   1
Irrep              :   0
Energy             :  -312.2064751774772162 Eh
Relativity type    :
Basis              : AO
                                X                 Y                 Z
Electronic contribution:      4.036074526      -2.748541322      -0.211706957
Nuclear contribution   :     -4.477858205       3.276858742       0.290375245
                        -----------------------------------------
Total Dipole Moment    :     -0.441783680       0.528317420       0.078668288
                        -----------------------------------------
Magnitude (a.u.)       :      0.693167235
Magnitude (Debye)      :      1.761891092

Rotational constants in cm-1:             0.132980             0.052283             0.048679
Rotational constants in MHz :          3986.626997          1567.403293          1459.352597

                             ****ORCA TERMINATED NORMALLY****
TOTAL RUN TIME: 0 days 0 hours 0 minutes 30 seconds 363 msec
