                         Program Version 6.0.0  -   RELEASE  -
|  1> ! r2scan-3c def2/J RI DEFGRID2 scfconv6 printgap
|  2> %output
|  3>     printlevel normal
|  4> end
|  5> %cpcm
|  6>     smd true
|  7>     smdsolvent "water"
|  8> end
|  9> * xyz 0 1
| 10> C 1.8244344534 1.1109679171 0.2959261067
| 11> C 1.3916036586 -0.1852841562 -0.3883452945
| 12> H 2.0529893677 -0.3628218975 -1.2464546821
| 13> C -0.0507424917 -0.139936548 -0.9299682822
| 14> C -1.1379718738 0.4696478889 -0.0342851106
| 15> C -2.4517412877 0.5038910674 -0.8172919827
| 16> C -1.3414444824 -0.302324185 1.2689298115
| 17> O 1.6279632651 -1.3151102981 0.4351444822
| 18> H 1.6811084928 1.9498474883 -0.3784230967
| 19> H 1.2527838975 1.2837139415 1.2039662522
| 20> H 2.8773116347 1.0473566265 0.5600907057
| 21> H -0.0258733093 0.4315190885 -1.8600711934
| 22> H -0.3319909591 -1.1657144278 -1.1825198766
| 23> H -0.8625942577 1.5013821004 0.2052787966
| 24> H -2.7712790578 -0.5061270078 -1.0647979346
| 25> H -2.3346947363 1.0627352234 -1.7426875054
| 26> H -3.2341811319 0.9769281733 -0.2286668341
| 27> H -2.2415221061 0.0475292377 1.7704755106
| 28> H -1.4564670055 -1.3651780229 1.0677912084
| 29> H -0.5100006055 -0.1578358316 1.9544491498
| 30> H 1.1056532549 -1.2296871975 1.2442004908
| 31> *
| 32>
| 33>                          ****END OF INPUT****

CARTESIAN COORDINATES (ANGSTROEM)
---------------------------------
  C      1.824434    1.110968    0.295926
  C      1.391604   -0.185284   -0.388345
  H      2.052989   -0.362822   -1.246455
  C     -0.050742   -0.139937   -0.929968
  C     -1.137972    0.469648   -0.034285
  C     -2.451741    0.503891   -0.817292
  C     -1.341444   -0.302324    1.268930
  O      1.627963   -1.315110    0.435144
  H      1.681108    1.949847   -0.378423
  H      1.252784    1.283714    1.203966
  H      2.877312    1.047357    0.560091
  H     -0.025873    0.431519   -1.860071
  H     -0.331991   -1.165714   -1.182520
  H     -0.862594    1.501382    0.205279
  H     -2.771279   -0.506127   -1.064798
  H     -2.334695    1.062735   -1.742688
  H     -3.234181    0.976928   -0.228667
  H     -2.241522    0.047529    1.770476
  H     -1.456467   -1.365178    1.067791
  H     -0.510001   -0.157836    1.954449
  H      1.105653   -1.229687    1.244200

 Total Charge           Charge          ....    0
 Multiplicity           Mult            ....    1
 Number of Electrons    NEL             ....   58
 Basis Dimension        Dim             ....  208

ORBITAL ENERGIES
----------------

  NO   OCC          E(Eh)            E(eV)
   0   2.0000     -18.946693      -515.5657
   1   2.0000     -10.074546      -274.1423
   2   2.0000     -10.025744      -272.8144
   3   2.0000     -10.013369      -272.4776
   4   2.0000     -10.009227      -272.3649
   5   2.0000     -10.008266      -272.3388
   6   2.0000     -10.006239      -272.2836
   7   2.0000      -0.984443       -26.7881
   8   2.0000      -0.769391       -20.9362
   9   2.0000      -0.712529       -19.3889
  10   2.0000      -0.646682       -17.5971
  11   2.0000      -0.639065       -17.3898
  12   2.0000      -0.570596       -15.5267
  13   2.0000      -0.516082       -14.0433
  14   2.0000      -0.452618       -12.3164
  15   2.0000      -0.433380       -11.7929
  16   2.0000      -0.411449       -11.1961
  17   2.0000      -0.401810       -10.9338
  18   2.0000      -0.380323       -10.3491
  19   2.0000      -0.366463        -9.9720
  20   2.0000      -0.351757        -9.5718
  21   2.0000      -0.338795        -9.2191
  22   2.0000      -0.332229        -9.0404
  23   2.0000      -0.317645        -8.6436
  24   2.0000      -0.313072        -8.5191
  25   2.0000      -0.290373        -7.9015
  26   2.0000      -0.284412        -7.7393
  27   2.0000      -0.265136        -7.2147
  28   2.0000      -0.235348        -6.4041
  29   0.0000       0.072961         1.9854
  30   0.0000       0.104649         2.8476
  31   0.0000       0.114305         3.1104
  32   0.0000       0.126492         3.4420
  33   0.0000       0.138350         3.7647

MULLIKEN ATOMIC CHARGES
-----------------------
   0 C :   -0.531011
   1 C :   -0.004192
   2 H :    0.153304
   3 C :   -0.337428
   4 C :    0.004373
   5 C :   -0.533367
   6 C :   -0.561922
   7 O :   -0.498313
   8 H :    0.169419
   9 H :    0.170141
  10 H :    0.163197
  11 H :    0.159722
  12 H :    0.164938
  13 H :    0.161807
  14 H :    0.158901
  15 H :    0.155626
  16 H :    0.159482
  17 H :    0.156879
  18 H :    0.177751
  19 H :    0.158739
  20 H :    0.351953
Sum of atomic charges:   -0.0000000

LOEWDIN ATOMIC CHARGES
----------------------
   0 C :   -0.404869
   1 C :    0.043560
   2 H :    0.184625
   3 C :   -0.286982
   4 C :   -0.241969
   5 C :   -0.424760
   6 C :   -0.426122
   7 O :   -0.648574
   8 H :    0.165394
   9 H :    0.161889
  10 H :    0.159870
  11 H :    0.169496
  12 H :    0.170162
  13 H :    0.160432
  14 H :    0.156660
  15 H :    0.155356
  16 H :    0.154565
  17 H :    0.157495
  18 H :    0.158883
  19 H :    0.153971
  20 H :    0.280917

  Mayer bond orders larger than 0.100000
B(  0-C ,  1-C ) :   0.9166 B(  0-C ,  8-H ) :   0.9709 B(  0-C ,  9-H ) :   0.9632
B(  0-C , 10-H ) :   0.9658 B(  1-C ,  2-H ) :   0.9757 B(  1-C ,  3-C ) :   0.9052
B(  1-C ,  7-O ) :   0.9453 B(  3-C ,  4-C ) :   0.8913 B(  3-C , 11-H ) :   0.9667
B(  3-C , 12-H ) :   0.9945 B(  4-C ,  5-C ) :   0.9031 B(  4-C ,  6-C ) :   0.8652
B(  4-C , 13-H ) :   0.9467 B(  5-C , 14-H ) :   0.9854 B(  5-C , 15-H ) :   0.9741
B(  5-C , 16-H ) :   0.9744 B(  6-C , 17-H ) :   0.9673 B(  6-C , 18-H ) :   0.9864
B(  6-C , 19-H ) :   0.9611 B(  7-O , 20-H ) :   0.8545

Dispersion correction           -0.005748312
FINAL SINGLE POINT ENERGY      -312.207087021943

DIPOLE MOMENT
-------------

Method             : SCF
Type of density    : Electron Density
Multiplicity       :   1
Irrep              :   0
Energy             :  -312.2126611168106933 Eh
Relativity type    :
Basis              : AO
                                X                 Y                 Z
Electronic contribution:      3.904740193      -2.514354260      -0.129816075
Nuclear contribution   :     -4.477858205       3.276858742       0.290375245
                        -----------------------------------------
Total Dipole Moment    :     -0.573118012       0.762504482       0.160559170
                        -----------------------------------------
Magnitude (a.u.)       :      0.967293434
Magnitude (Debye)      :      2.458664516

Rotational constants in cm-1:             0.132980             0.052283             0.048679
Rotational constants in MHz :          3986.626997          1567.403293          1459.352597

                             ****ORCA TERMINATED NORMALLY****
TOTAL RUN TIME: 0 days 0 hours 0 minutes 36 seconds 418 msec
