                         Program Version 6.0.0  -   RELEASE  -
|  1> ! pbe def2-sv(p) def2/J RI DEFGRID1 loosescf d4 GCP(DFT/SV(P)) printgap
|  2> %output
|  3>     printlevel normal
|  4> end
|  5> * xyz 0 1
|  6> C -2.8310863204 -0.8010103925 0.8477567089
|  7> C -2.4030221008 -0.3196769871 -0.5348900351
|  8> O -1.3896436289 0.6738567006 -0.4803661824
|  9> C -0.0968076707 0.319716448 -0.21978209
| 10> C 0.7970612376 1.3857529149 -0.0990976652
| 11> C 2.1342750236 1.1538423569 0.1459728444
| 12> C 2.6063794932 -0.1435216553 0.2751958608
| 13> C 1.724342064 -1.2005955995 0.1537237469
| 14> C 0.3783132049 -0.9806256121 -0.0912876112
| 15> H -3.6463090629 -1.5108510421 0.7471775574
| 16> H -2.0043989893 -1.2796403604 1.36665579
| 17> H -3.1661528393 0.0444945368 1.4427906969
| 18> H -3.2367409907 0.1851495656 -1.0291610781
| 19> H -2.0819799764 -1.1576523804 -1.1637605765
| 20> H 0.4108891438 2.3874687337 -0.2048210871
| 21> H 2.8117147502 1.9891734569 0.2369287953
| 22> H 3.6518764354 -0.3259363553 0.4686637324
| 23> H 2.0799290654 -2.2154313408 0.2513165033
| 24> H -0.2810746906 -1.8288824362 -0.1818523688
| 25> *
| 26>
| 27>                          ****END OF INPUT****

CARTESIAN COORDINATES (ANGSTROEM)
---------------------------------
  C     -2.831086   -0.801010    0.847757
  C     -2.403022   -0.319677   -0.534890
  O     -1.389644    0.673857   -0.480366
  C     -0.096808    0.319716   -0.219782
  C      0.797061    1.385753   -0.099098
  C      2.134275    1.153842    0.145973
  C      2.606379   -0.143522    0.275196
  C      1.724342   -1.200596    0.153724
  C      0.378313   -0.980626   -0.091288
  H     -3.646309   -1.510851    0.747178
  H     -2.004399   -1.279640    1.366656
  H     -3.166153    0.044495    1.442791
  H     -3.236741    0.185150   -1.029161
  H     -2.081980   -1.157652   -1.163761
  H      0.410889    2.387469   -0.204821
  H      2.811715    1.989173    0.236929
  H      3.651876   -0.325936    0.468664
  H      2.079929   -2.215431    0.251317
  H     -0.281075   -1.828882   -0.181852

 Total Charge           Charge          ....    0
 Multiplicity           Mult            ....    1
 Number of Electrons    NEL             ....   66
 Basis Dimension        Dim             ....  146

ORBITAL ENERGIES
----------------

  NO   OCC          E(Eh)            E(eV)
   0   2.0000     -18.778876      -510.9992
   1   2.0000      -9.948067      -270.7007
   2   2.0000      -9.945851      -270.6404
   3   2.0000      -9.890981      -269.1473
   4   2.0000      -9.889260      -269.1005
   5   2.0000      -9.888607      -269.0827
   6   2.0000      -9.885925      -269.0097
   7   2.0000      -9.882939      -268.9284
   8   2.0000      -9.882478      -268.9159
   9   2.0000      -0.962281       -26.1850
  10   2.0000      -0.769979       -20.9522
  11   2.0000      -0.699884       -19.0448
  12   2.0000      -0.668490       -18.1906
  13   2.0000      -0.652381       -17.7522
  14   2.0000      -0.582473       -15.8499
  15   2.0000      -0.543666       -14.7939
  16   2.0000      -0.518203       -14.1010
  17   2.0000      -0.482491       -13.1292
  18   2.0000      -0.437367       -11.9014
  19   2.0000      -0.432145       -11.7593
  20   2.0000      -0.402769       -10.9599
  21   2.0000      -0.398288       -10.8380
  22   2.0000      -0.381257       -10.3745
  23   2.0000      -0.371095       -10.0980
  24   2.0000      -0.353907        -9.6303
  25   2.0000      -0.339065        -9.2264
  26   2.0000      -0.330877        -9.0036
  27   2.0000      -0.316443        -8.6109
  28   2.0000      -0.303487        -8.2583
  29   2.0000      -0.278352        -7.5743
  30   2.0000      -0.272233        -7.4078
  31   2.0000      -0.226546        -6.1646
  32   2.0000      -0.190219        -5.1761
  33   0.0000      -0.031330        -0.8525
  34   0.0000      -0.017171        -0.4673
  35   0.0000       0.037585         1.0227
  36   0.0000       0.053351         1.4518
  37   0.0000       0.074258         2.0207

MULLIKEN ATOMIC CHARGES
-----------------------
   0 C :   -0.305454
   1 C :   -0.020289
   2 O :   -0.267692
   3 C :    0.264172
   4 C :   -0.112443
   5 C :   -0.054593
   6 C :   -0.048826
   7 C :   -0.056934
   8 C :   -0.185756
   9 H :    0.108689
  10 H :    0.123037
  11 H :    0.116414
  12 H :    0.102305
  13 H :    0.097531
  14 H :    0.043655
  15 H :    0.053009
  16 H :    0.047138
  17 H :    0.050216
  18 H :    0.045818
Sum of atomic charges:   -0.0000000

LOEWDIN ATOMIC CHARGES
----------------------
   0 C :   -0.361262
   1 C :   -0.112205
   2 O :   -0.087451
   3 C :    0.035022
   4 C :   -0.143580
   5 C :   -0.116986
   6 C :   -0.148694
   7 C :   -0.116451
   8 C :   -0.176435
   9 H :    0.128229
  10 H :    0.125441
  11 H :    0.127865
  12 H :    0.118623
  13 H :    0.105878
  14 H :    0.128703
  15 H :    0.123885
  16 H :    0.121587
  17 H :    0.122935
  18 H :    0.124897

  Mayer bond orders larger than 0.100000
B(  0-C ,  1-C ) :   1.1583 B(  0-C ,  9-H ) :   0.9422 B(  0-C , 10-H ) :   0.9458
B(  0-C , 11-H ) :   0.9457 B(  1-C ,  2-O ) :   0.9828 B(  1-C , 12-H ) :   0.9358
B(  1-C , 13-H ) :   0.9168 B(  2-O ,  3-C ) :   1.1282 B(  3-C ,  4-C ) :   1.3555
B(  3-C ,  8-C ) :   1.3065 B(  4-C ,  5-C ) :   1.3905 B(  4-C , 14-H ) :   0.9627
B(  5-C ,  6-C ) :   1.3515 B(  5-C , 15-H ) :   0.9650 B(  6-C ,  7-C ) :   1.3937
B(  6-C , 16-H ) :   0.9678 B(  7-C ,  8-C ) :   1.3634 B(  7-C , 17-H ) :   0.9608
B(  8-C , 18-H ) :   0.9546

Dispersion correction           -0.018389088
FINAL SINGLE POINT ENERGY      -385.229148697389

DIPOLE MOMENT
-------------

Method             : SCF
Type of density    : Electron Density
Multiplicity       :   1
Irrep              :   0
Energy             :  -385.2889332450669144 Eh
Relativity type    :
Basis              : AO
                                X                 Y                 Z
Electronic contribution:      4.736421905       3.068491620      -1.764597902
Nuclear contribution   :     -5.145104055      -3.472596675       1.807241057
                        -----------------------------------------
Total Dipole Moment    :     -0.408682149      -0.404105055       0.042643154
                        -----------------------------------------
Magnitude (a.u.)       :      0.576316261
Magnitude (Debye)      :      1.464879521

Rotational constants in cm-1:             0.130320             0.035598             0.030151
Rotational constants in MHz :          3906.896661          1067.208312           903.914883

                             ****ORCA TERMINATED NORMALLY****
TOTAL RUN TIME: 0 days 0 hours 0 minutes 9 seconds 894 msec
