                         Program Version 6.0.0  -   RELEASE  -
|  1> ! r2scan-3c def2/J RI DEFGRID2 scfconv6 printgap
|  2> %output
|  3>     printlevel normal
|  4> end
|  5> * xyz 0 1
|  6> C -2.5161844943 0.5665002401 0.6547964828
|  7> C -1.3382709851 -0.2119550035 0.0703911149
|  8> C -1.5359962066 -0.4006967094 -1.432058176
|  9> C -0.0228992179 0.5150292965 0.3741312844
| 10> C 1.2376584258 -0.3190092373 0.0687898757
| 11> C 2.0837618299 0.3324621855 -1.0240014756
| 12> C 2.0784326697 -0.5202421683 1.3291633333
| 13> H -2.5652055884 1.561340316 0.2170729219
| 14> H -3.4528296647 0.0542204747 0.4477372226
| 15> H -2.4131627531 0.6702658409 1.7325133911
| 16> H -1.3063161437 -1.1987940888 0.5470453068
| 17> H -0.7158032014 -0.9656417711 -1.8673004336
| 18> H -2.4612693286 -0.9378186656 -1.6286559037
| 19> H -1.5892530372 0.5664940641 -1.9279568978
| 20> H -0.0211415767 0.7912474328 1.4303538889
| 21> H 0.0003142773 1.4433594412 -0.2000124538
| 22> H 0.9288245444 -1.3086997058 -0.2846916096
| 23> H 2.9473288373 -0.2865278291 -1.2586543715
| 24> H 1.5016577668 0.4670688784 -1.9325478901
| 25> H 2.4407782352 1.3062454683 -0.6947622507
| 26> H 2.9499805158 -1.1344408289 1.1128539709
| 27> H 2.4218723767 0.4381596616 1.7132392401
| 28> H 1.4950782158 -1.0146940084 2.1026431267
| 29> *
| 30>
| 31>                          ****END OF INPUT****

CARTESIAN COORDINATES (ANGSTROEM)
---------------------------------
  C     -2.516184    0.566500    0.654796
  C     -1.338271   -0.211955    0.070391
  C     -1.535996   -0.400697   -1.432058
  C     -0.022899    0.515029    0.374131
  C      1.237658   -0.319009    0.068790
  C      2.083762    0.332462   -1.024001
  C      2.078433   -0.520242    1.329163
  H     -2.565206    1.561340    0.217073
  H     -3.452830    0.054220    0.447737
  H     -2.413163    0.670266    1.732513
  H     -1.306316   -1.198794    0.547045
  H     -0.715803   -0.965642   -1.867300
  H     -2.461269   -0.937819   -1.628656
  H     -1.589253    0.566494   -1.927957
  H     -0.021142    0.791247    1.430354
  H      0.000314    1.443359   -0.200012
  H      0.928825   -1.308700   -0.284692
  H      2.947329   -0.286528   -1.258654
  H      1.501658    0.467069   -1.932548
  H      2.440778    1.306245   -0.694762
  H      2.949981   -1.134441    1.112854
  H      2.421872    0.438160    1.713239
  H      1.495078   -1.014694    2.102643

 Total Charge           Charge          ....    0
 Multiplicity           Mult            ....    1
 Number of Electrons    NEL             ....   58
 Basis Dimension        Dim             ....  213

ORBITAL ENERGIES
----------------

  NO   OCC          E(Eh)            E(eV)
   0   2.0000     -10.030519      -272.9443
   1   2.0000     -10.029356      -272.9127
   2   2.0000     -10.016078      -272.5513
   3   2.0000     -10.012868      -272.4640
   4   2.0000     -10.012532      -272.4548
   5   2.0000     -10.012169      -272.4450
   6   2.0000     -10.012162      -272.4448
   7   2.0000      -0.785591       -21.3770
   8   2.0000      -0.743328       -20.2270
   9   2.0000      -0.649717       -17.6797
  10   2.0000      -0.644906       -17.5488
  11   2.0000      -0.639727       -17.4079
  12   2.0000      -0.534532       -14.5454
  13   2.0000      -0.521749       -14.1975
  14   2.0000      -0.435074       -11.8390
  15   2.0000      -0.422877       -11.5071
  16   2.0000      -0.407209       -11.0807
  17   2.0000      -0.391465       -10.6523
  18   2.0000      -0.379344       -10.3225
  19   2.0000      -0.363524        -9.8920
  20   2.0000      -0.352877        -9.6023
  21   2.0000      -0.348981        -9.4962
  22   2.0000      -0.330307        -8.9881
  23   2.0000      -0.322506        -8.7758
  24   2.0000      -0.303152        -8.2492
  25   2.0000      -0.298543        -8.1238
  26   2.0000      -0.283516        -7.7149
  27   2.0000      -0.280153        -7.6234
  28   2.0000      -0.270272        -7.3545
  29   0.0000       0.080985         2.2037
  30   0.0000       0.097093         2.6420
  31   0.0000       0.111097         3.0231
  32   0.0000       0.119313         3.2467
  33   0.0000       0.131839         3.5875

MULLIKEN ATOMIC CHARGES
-----------------------
   0 C :   -0.482678
   1 C :   -0.042927
   2 C :   -0.503508
   3 C :   -0.333077
   4 C :    0.010649
   5 C :   -0.510064
   6 C :   -0.513804
   7 H :    0.145305
   8 H :    0.145640
   9 H :    0.144499
  10 H :    0.147270
  11 H :    0.149177
  12 H :    0.144870
  13 H :    0.153009
  14 H :    0.150743
  15 H :    0.157929
  16 H :    0.150298
  17 H :    0.144112
  18 H :    0.149353
  19 H :    0.150619
  20 H :    0.143871
  21 H :    0.151783
  22 H :    0.146928
Sum of atomic charges:    0.0000000

LOEWDIN ATOMIC CHARGES
----------------------
   0 C :   -0.418674
   1 C :   -0.243885
   2 C :   -0.418096
   3 C :   -0.296080
   4 C :   -0.248577
   5 C :   -0.418457
   6 C :   -0.417928
   7 H :    0.153661
   8 H :    0.152063
   9 H :    0.152157
  10 H :    0.153864
  11 H :    0.153129
  12 H :    0.152683
  13 H :    0.153260
  14 H :    0.161213
  15 H :    0.161577
  16 H :    0.155235
  17 H :    0.151134
  18 H :    0.152596
  19 H :    0.152679
  20 H :    0.151266
  21 H :    0.152999
  22 H :    0.152182

  Mayer bond orders larger than 0.100000
B(  0-C ,  1-C ) :   0.9078 B(  0-C ,  7-H ) :   0.9840 B(  0-C ,  8-H ) :   0.9777
B(  0-C ,  9-H ) :   0.9781 B(  1-C ,  2-C ) :   0.9003 B(  1-C ,  3-C ) :   0.8792
B(  1-C , 10-H ) :   0.9634 B(  2-C , 11-H ) :   0.9683 B(  2-C , 12-H ) :   0.9725
B(  2-C , 13-H ) :   0.9901 B(  3-C ,  4-C ) :   0.8053 B(  3-C , 14-H ) :   0.9823
B(  3-C , 15-H ) :   0.9900 B(  4-C ,  5-C ) :   0.9033 B(  4-C ,  6-C ) :   0.9036
B(  4-C , 16-H ) :   0.9671 B(  5-C , 17-H ) :   0.9776 B(  5-C , 18-H ) :   0.9724
B(  5-C , 19-H ) :   0.9869 B(  6-C , 20-H ) :   0.9773 B(  6-C , 21-H ) :   0.9881
B(  6-C , 22-H ) :   0.9763

Dispersion correction           -0.006290884
FINAL SINGLE POINT ENERGY      -276.285688657108

DIPOLE MOMENT
-------------

Method             : SCF
Type of density    : Electron Density
Multiplicity       :   1
Irrep              :   0
Energy             :  -276.2903594244898500 Eh
Relativity type    :
Basis              : AO
                                X                 Y                 Z
Electronic contribution:     -0.169628883      -0.474661201       0.473314148
Nuclear contribution   :      0.150906528       0.423846965      -0.460752417
                        -----------------------------------------
Total Dipole Moment    :     -0.018722355      -0.050814236       0.012561731
                        -----------------------------------------
Magnitude (a.u.)       :      0.055591458
Magnitude (Debye)      :      0.141302257

Rotational constants in cm-1:             0.136255             0.048074             0.040557
Rotational constants in MHz :          4084.835478          1441.223532          1215.863165

                             ****ORCA TERMINATED NORMALLY****
TOTAL RUN TIME: 0 days 0 hours 0 minutes 23 seconds 740 msec
