                         Program Version 6.0.0  -   RELEASE  -
|  1> ! r2scan-3c def2/J RI DEFGRID2 scfconv6 printgap
|  2> %output
|  3>     printlevel normal
|  4> end
|  5> %cpcm
|  6>     smd true
|  7>     smdsolvent "water"
|  8> end
|  9> * xyz 0 1
| 10> C -2.5161844943 0.5665002401 0.6547964828
| 11> C -1.3382709851 -0.2119550035 0.0703911149
| 12> C -1.5359962066 -0.4006967094 -1.432058176
| 13> C -0.0228992179 0.5150292965 0.3741312844
| 14> C 1.2376584258 -0.3190092373 0.0687898757
| 15> C 2.0837618299 0.3324621855 -1.0240014756
| 16> C 2.0784326697 -0.5202421683 1.3291633333
| 17> H -2.5652055884 1.561340316 0.2170729219
| 18> H -3.4528296647 0.0542204747 0.4477372226
| 19> H -2.4131627531 0.6702658409 1.7325133911
| 20> H -1.3063161437 -1.1987940888 0.5470453068
| 21> H -0.7158032014 -0.9656417711 -1.8673004336
| 22> H -2.4612693286 -0.9378186656 -1.6286559037
| 23> H -1.5892530372 0.5664940641 -1.9279568978
| 24> H -0.0211415767 0.7912474328 1.4303538889
| 25> H 0.0003142773 1.4433594412 -0.2000124538
| 26> H 0.9288245444 -1.3086997058 -0.2846916096
| 27> H 2.9473288373 -0.2865278291 -1.2586543715
| 28> H 1.5016577668 0.4670688784 -1.9325478901
| 29> H 2.4407782352 1.3062454683 -0.6947622507
| 30> H 2.9499805158 -1.1344408289 1.1128539709
| 31> H 2.4218723767 0.4381596616 1.7132392401
| 32> H 1.4950782158 -1.0146940084 2.1026431267
| 33> *
| 34>
| 35>                          ****END OF INPUT****

CARTESIAN COORDINATES (ANGSTROEM)
---------------------------------
  C     -2.516184    0.566500    0.654796
  C     -1.338271   -0.211955    0.070391
  C     -1.535996   -0.400697   -1.432058
  C     -0.022899    0.515029    0.374131
  C      1.237658   -0.319009    0.068790
  C      2.083762    0.332462   -1.024001
  C      2.078433   -0.520242    1.329163
  H     -2.565206    1.561340    0.217073
  H     -3.452830    0.054220    0.447737
  H     -2.413163    0.670266    1.732513
  H     -1.306316   -1.198794    0.547045
  H     -0.715803   -0.965642   -1.867300
  H     -2.461269   -0.937819   -1.628656
  H     -1.589253    0.566494   -1.927957
  H     -0.021142    0.791247    1.430354
  H      0.000314    1.443359   -0.200012
  H      0.928825   -1.308700   -0.284692
  H      2.947329   -0.286528   -1.258654
  H      1.501658    0.467069   -1.932548
  H      2.440778    1.306245   -0.694762
  H      2.949981   -1.134441    1.112854
  H      2.421872    0.438160    1.713239
  H      1.495078   -1.014694    2.102643

 Total Charge           Charge          ....    0
 Multiplicity           Mult            ....    1
 Number of Electrons    NEL             ....   58
 Basis Dimension        Dim             ....  213

ORBITAL ENERGIES
----------------

  NO   OCC          E(Eh)            E(eV)
   0   2.0000     -10.022830      -272.7351
   1   2.0000     -10.021688      -272.7040
   2   2.0000     -10.008017      -272.3320
   3   2.0000     -10.005021      -272.2505
   4   2.0000     -10.004798      -272.2444
   5   2.0000     -10.004766      -272.2435
   6   2.0000     -10.004747      -272.2430
   7   2.0000      -0.777895       -21.1676
   8   2.0000      -0.735925       -20.0255
   9   2.0000      -0.642694       -17.4886
  10   2.0000      -0.637996       -17.3608
  11   2.0000      -0.632460       -17.2101
  12   2.0000      -0.527387       -14.3509
  13   2.0000      -0.514067       -13.9885
  14   2.0000      -0.427318       -11.6279
  15   2.0000      -0.415449       -11.3050
  16   2.0000      -0.399857       -10.8807
  17   2.0000      -0.384101       -10.4519
  18   2.0000      -0.371883       -10.1194
  19   2.0000      -0.356331        -9.6963
  20   2.0000      -0.345701        -9.4070
  21   2.0000      -0.341636        -9.2964
  22   2.0000      -0.322872        -8.7858
  23   2.0000      -0.314987        -8.5712
  24   2.0000      -0.295759        -8.0480
  25   2.0000      -0.290895        -7.9157
  26   2.0000      -0.275484        -7.4963
  27   2.0000      -0.272471        -7.4143
  28   2.0000      -0.262811        -7.1515
  29   0.0000       0.089227         2.4280
  30   0.0000       0.104950         2.8558
  31   0.0000       0.119628         3.2552
  32   0.0000       0.125984         3.4282
  33   0.0000       0.138394         3.7659

MULLIKEN ATOMIC CHARGES
-----------------------
   0 C :   -0.530037
   1 C :   -0.020853
   2 C :   -0.546104
   3 C :   -0.352016
   4 C :    0.026271
   5 C :   -0.550746
   6 C :   -0.553699
   7 H :    0.156487
   8 H :    0.156623
   9 H :    0.155724
  10 H :    0.153774
  11 H :    0.159410
  12 H :    0.155583
  13 H :    0.163513
  14 H :    0.157167
  15 H :    0.165247
  16 H :    0.158796
  17 H :    0.154473
  18 H :    0.157536
  19 H :    0.160398
  20 H :    0.154251
  21 H :    0.161245
  22 H :    0.156955
Sum of atomic charges:    0.0000000

LOEWDIN ATOMIC CHARGES
----------------------
   0 C :   -0.427994
   1 C :   -0.241779
   2 C :   -0.426359
   3 C :   -0.298673
   4 C :   -0.246738
   5 C :   -0.426675
   6 C :   -0.426473
   7 H :    0.155764
   8 H :    0.154366
   9 H :    0.154434
  10 H :    0.155885
  11 H :    0.155658
  12 H :    0.154643
  13 H :    0.155617
  14 H :    0.162488
  15 H :    0.163108
  16 H :    0.157928
  17 H :    0.153090
  18 H :    0.154311
  19 H :    0.154741
  20 H :    0.153180
  21 H :    0.154987
  22 H :    0.154488

  Mayer bond orders larger than 0.100000
B(  0-C ,  1-C ) :   0.8953 B(  0-C ,  7-H ) :   0.9830 B(  0-C ,  8-H ) :   0.9755
B(  0-C ,  9-H ) :   0.9757 B(  1-C ,  2-C ) :   0.8925 B(  1-C ,  3-C ) :   0.8759
B(  1-C , 10-H ) :   0.9641 B(  2-C , 11-H ) :   0.9664 B(  2-C , 12-H ) :   0.9711
B(  2-C , 13-H ) :   0.9876 B(  3-C ,  4-C ) :   0.8037 B(  3-C , 14-H ) :   0.9818
B(  3-C , 15-H ) :   0.9894 B(  4-C ,  5-C ) :   0.8950 B(  4-C ,  6-C ) :   0.8949
B(  4-C , 16-H ) :   0.9679 B(  5-C , 17-H ) :   0.9763 B(  5-C , 18-H ) :   0.9708
B(  5-C , 19-H ) :   0.9844 B(  6-C , 20-H ) :   0.9761 B(  6-C , 21-H ) :   0.9855
B(  6-C , 22-H ) :   0.9737

Dispersion correction           -0.006290884
FINAL SINGLE POINT ENERGY      -276.281724828694

DIPOLE MOMENT
-------------

Method             : SCF
Type of density    : Electron Density
Multiplicity       :   1
Irrep              :   0
Energy             :  -276.2863955960766589 Eh
Relativity type    :
Basis              : AO
                                X                 Y                 Z
Electronic contribution:     -0.175553377      -0.494518392       0.473962096
Nuclear contribution   :      0.150906528       0.423846965      -0.460752417
                        -----------------------------------------
Total Dipole Moment    :     -0.024646849      -0.070671427       0.013209680
                        -----------------------------------------
Magnitude (a.u.)       :      0.076002720
Magnitude (Debye)      :      0.193183561

Rotational constants in cm-1:             0.136255             0.048074             0.040557
Rotational constants in MHz :          4084.835478          1441.223532          1215.863165

                             ****ORCA TERMINATED NORMALLY****
TOTAL RUN TIME: 0 days 0 hours 0 minutes 27 seconds 536 msec
