                         Program Version 6.0.0  -   RELEASE  -
|  1> ! pbe def2-sv(p) def2/J RI DEFGRID1 loosescf d4 GCP(DFT/SV(P)) printgap
|  2> %output
|  3>     printlevel normal
|  4> end
|  5> * xyz 0 1
|  6> C 2.2418697354 -0.2186800345 -0.0945804661
|  7> O 0.8886602456 -0.2984035841 0.2904086037
|  8> C 0.0886041863 0.7312114114 -0.2617764939
|  9> C -1.3469401406 0.5599438719 0.2544148193
| 10> N -1.979097728 -0.6883745561 -0.1301655756
| 11> H 2.3455447845 -0.3025547105 -1.1824666101
| 12> H 2.7466372775 -1.0509936227 0.3892619619
| 13> H 2.6860979677 0.7274413764 0.2338625922
| 14> H 0.4820935703 1.7140640514 0.0351376193
| 15> H 0.1110261312 0.6668212057 -1.3613907769
| 16> H -1.3298071943 0.6013903066 1.345541231
| 17> H -1.9534563067 1.387111494 -0.1209591172
| 18> H -1.415264481 -1.4575754042 0.2174598199
| 19> H -1.996548116 -0.7628761941 -1.142625399
| 20> *
| 21>
| 22>                          ****END OF INPUT****

CARTESIAN COORDINATES (ANGSTROEM)
---------------------------------
  C      2.241870   -0.218680   -0.094580
  O      0.888660   -0.298404    0.290409
  C      0.088604    0.731211   -0.261776
  C     -1.346940    0.559944    0.254415
  N     -1.979098   -0.688375   -0.130166
  H      2.345545   -0.302555   -1.182467
  H      2.746637   -1.050994    0.389262
  H      2.686098    0.727441    0.233863
  H      0.482094    1.714064    0.035138
  H      0.111026    0.666821   -1.361391
  H     -1.329807    0.601390    1.345541
  H     -1.953456    1.387111   -0.120959
  H     -1.415264   -1.457575    0.217460
  H     -1.996548   -0.762876   -1.142625

 Total Charge           Charge          ....    0
 Multiplicity           Mult            ....    1
 Number of Electrons    NEL             ....   42
 Basis Dimension        Dim             ....   88

ORBITAL ENERGIES
----------------

  NO   OCC          E(Eh)            E(eV)
   0   2.0000     -18.753667      -510.3132
   1   2.0000     -13.956186      -379.7671
   2   2.0000      -9.927061      -270.1291
   3   2.0000      -9.927035      -270.1283
   4   2.0000      -9.904926      -269.5267
   5   2.0000      -0.934637       -25.4328
   6   2.0000      -0.790951       -21.5229
   7   2.0000      -0.661923       -18.0118
   8   2.0000      -0.593916       -16.1613
   9   2.0000      -0.533135       -14.5073
  10   2.0000      -0.456133       -12.4120
  11   2.0000      -0.429374       -11.6839
  12   2.0000      -0.418211       -11.3801
  13   2.0000      -0.411605       -11.2003
  14   2.0000      -0.376127       -10.2349
  15   2.0000      -0.347037        -9.4433
  16   2.0000      -0.326949        -8.8967
  17   2.0000      -0.313780        -8.5384
  18   2.0000      -0.271692        -7.3931
  19   2.0000      -0.208549        -5.6749
  20   2.0000      -0.180590        -4.9141
  21   0.0000       0.033524         0.9122
  22   0.0000       0.057740         1.5712
  23   0.0000       0.075883         2.0649
  24   0.0000       0.082037         2.2324
  25   0.0000       0.097457         2.6519

MULLIKEN ATOMIC CHARGES
-----------------------
   0 C :   -0.099193
   1 O :   -0.348071
   2 C :   -0.019677
   3 C :   -0.068523
   4 N :   -0.452220
   5 H :    0.084297
   6 H :    0.115264
   7 H :    0.086558
   8 H :    0.064204
   9 H :    0.055792
  10 H :    0.093342
  11 H :    0.086580
  12 H :    0.206982
  13 H :    0.194667
Sum of atomic charges:    0.0000000

LOEWDIN ATOMIC CHARGES
----------------------
   0 C :   -0.206880
   1 O :   -0.188532
   2 C :   -0.134469
   3 C :   -0.191581
   4 N :   -0.406720
   5 H :    0.095969
   6 H :    0.115339
   7 H :    0.096884
   8 H :    0.093983
   9 H :    0.087908
  10 H :    0.118837
  11 H :    0.115471
  12 H :    0.203980
  13 H :    0.199811

  Mayer bond orders larger than 0.100000
B(  0-C ,  1-O ) :   1.0211 B(  0-C ,  5-H ) :   0.9425 B(  0-C ,  6-H ) :   0.9638
B(  0-C ,  7-H ) :   0.9433 B(  1-O ,  2-C ) :   1.0138 B(  2-C ,  3-C ) :   1.0802
B(  2-C ,  8-H ) :   0.9047 B(  2-C ,  9-H ) :   0.9069 B(  3-C ,  4-N ) :   1.1498
B(  3-C , 10-H ) :   0.9269 B(  3-C , 11-H ) :   0.9282 B(  4-N , 12-H ) :   0.9062
B(  4-N , 13-H ) :   0.9117

Dispersion correction           -0.008160868
FINAL SINGLE POINT ENERGY      -249.095415291285

DIPOLE MOMENT
-------------

Method             : SCF
Type of density    : Electron Density
Multiplicity       :   1
Irrep              :   0
Energy             :  -249.1567810142692281 Eh
Relativity type    :
Basis              : AO
                                X                 Y                 Z
Electronic contribution:     -0.909544689      -1.197529988       1.021028663
Nuclear contribution   :      1.574998029       1.420445290      -1.484506038
                        -----------------------------------------
Total Dipole Moment    :      0.665453340       0.222915301      -0.463477375
                        -----------------------------------------
Magnitude (a.u.)       :      0.841029522
Magnitude (Debye)      :      2.137727156

Rotational constants in cm-1:             0.432359             0.087768             0.079860
Rotational constants in MHz :         12961.793866          2631.220705          2394.133140

                             ****ORCA TERMINATED NORMALLY****
TOTAL RUN TIME: 0 days 0 hours 0 minutes 5 seconds 917 msec
