                         Program Version 6.0.0  -   RELEASE  -
|  1> ! pbe def2-sv(p) def2/J RI DEFGRID1 loosescf d4 GCP(DFT/SV(P)) printgap
|  2> %output
|  3>     printlevel normal
|  4> end
|  5> * xyz 0 1
|  6> C -2.4743025 0.6134261926 -0.835705983
|  7> C -2.1641346278 0.2134671533 0.602033179
|  8> C -0.8507978024 -0.5497157844 0.710916101
|  9> O 0.2311511899 0.3406977095 0.3990222221
| 10> C 1.3472789184 -0.1653002703 -0.1065717674
| 11> O 1.5120601275 -1.3518407002 -0.310565751
| 12> C 2.3572827507 0.9035078273 -0.3993891899
| 13> H -3.4126734892 1.1585973134 -0.880932289
| 14> H -1.6850023365 1.2497187747 -1.2282400727
| 15> H -2.5541660434 -0.2679757137 -1.4680409061
| 16> H -2.9563064543 -0.4259406497 0.9911889536
| 17> H -2.0985650286 1.1045878583 1.226873026
| 18> H -0.6946694519 -0.9221218316 1.7282906186
| 19> H -0.8157200446 -1.3976557912 0.0187940505
| 20> H 3.3237491734 0.6019119364 -0.0057637925
| 21> H 2.03700434 1.8445254588 0.0340462706
| 22> H 2.4523165813 1.0050327786 -1.4781492321
| 23> *
| 24>
| 25>                          ****END OF INPUT****

CARTESIAN COORDINATES (ANGSTROEM)
---------------------------------
  C     -2.474302    0.613426   -0.835706
  C     -2.164135    0.213467    0.602033
  C     -0.850798   -0.549716    0.710916
  O      0.231151    0.340698    0.399022
  C      1.347279   -0.165300   -0.106572
  O      1.512060   -1.351841   -0.310566
  C      2.357283    0.903508   -0.399389
  H     -3.412673    1.158597   -0.880932
  H     -1.685002    1.249719   -1.228240
  H     -2.554166   -0.267976   -1.468041
  H     -2.956306   -0.425941    0.991189
  H     -2.098565    1.104588    1.226873
  H     -0.694669   -0.922122    1.728291
  H     -0.815720   -1.397656    0.018794
  H      3.323749    0.601912   -0.005764
  H      2.037004    1.844525    0.034046
  H      2.452317    1.005033   -1.478149

 Total Charge           Charge          ....    0
 Multiplicity           Mult            ....    1
 Number of Electrons    NEL             ....   56
 Basis Dimension        Dim             ....  118

ORBITAL ENERGIES
----------------

  NO   OCC          E(Eh)            E(eV)
   0   2.0000     -18.798308      -511.5280
   1   2.0000     -18.730199      -509.6746
   2   2.0000     -10.004786      -272.2441
   3   2.0000      -9.941589      -270.5244
   4   2.0000      -9.896247      -269.2906
   5   2.0000      -9.891018      -269.1483
   6   2.0000      -9.880503      -268.8622
   7   2.0000      -1.004021       -27.3208
   8   2.0000      -0.906382       -24.6639
   9   2.0000      -0.725119       -19.7315
  10   2.0000      -0.676861       -18.4183
  11   2.0000      -0.622122       -16.9288
  12   2.0000      -0.548422       -14.9233
  13   2.0000      -0.503483       -13.7005
  14   2.0000      -0.444660       -12.0998
  15   2.0000      -0.434166       -11.8143
  16   2.0000      -0.410316       -11.1653
  17   2.0000      -0.401239       -10.9183
  18   2.0000      -0.394047       -10.7226
  19   2.0000      -0.365601        -9.9485
  20   2.0000      -0.358086        -9.7440
  21   2.0000      -0.341723        -9.2987
  22   2.0000      -0.318540        -8.6679
  23   2.0000      -0.311873        -8.4865
  24   2.0000      -0.307308        -8.3623
  25   2.0000      -0.290171        -7.8960
  26   2.0000      -0.254111        -6.9147
  27   2.0000      -0.216070        -5.8796
  28   0.0000      -0.017971        -0.4890
  29   0.0000       0.037097         1.0095
  30   0.0000       0.056107         1.5267
  31   0.0000       0.078829         2.1450
  32   0.0000       0.081466         2.2168

MULLIKEN ATOMIC CHARGES
-----------------------
   0 C :   -0.290857
   1 C :   -0.182540
   2 C :   -0.006253
   3 O :   -0.241746
   4 C :    0.082547
   5 O :   -0.216248
   6 C :   -0.252771
   7 H :    0.108652
   8 H :    0.109432
   9 H :    0.102254
  10 H :    0.095642
  11 H :    0.098031
  12 H :    0.103096
  13 H :    0.106414
  14 H :    0.132302
  15 H :    0.116521
  16 H :    0.135523
Sum of atomic charges:    0.0000000

LOEWDIN ATOMIC CHARGES
----------------------
   0 C :   -0.343487
   1 C :   -0.245445
   2 C :   -0.105230
   3 O :   -0.068332
   4 C :    0.028078
   5 O :   -0.176718
   6 C :   -0.360386
   7 H :    0.121755
   8 H :    0.120111
   9 H :    0.119379
  10 H :    0.125223
  11 H :    0.122761
  12 H :    0.115812
  13 H :    0.117833
  14 H :    0.145774
  15 H :    0.133543
  16 H :    0.149328

  Mayer bond orders larger than 0.100000
B(  0-C ,  1-C ) :   1.1472 B(  0-C ,  7-H ) :   0.9540 B(  0-C ,  8-H ) :   0.9545
B(  0-C ,  9-H ) :   0.9554 B(  1-C ,  2-C ) :   1.1126 B(  1-C , 10-H ) :   0.9203
B(  1-C , 11-H ) :   0.9211 B(  2-C ,  3-O ) :   0.9144 B(  2-C , 12-H ) :   0.9335
B(  2-C , 13-H ) :   0.9125 B(  3-O ,  4-C ) :   1.2043 B(  4-C ,  5-O ) :   2.0531
B(  4-C ,  6-C ) :   1.0825 B(  6-C , 14-H ) :   0.9346 B(  6-C , 15-H ) :   0.9386
B(  6-C , 16-H ) :   0.9265

Dispersion correction           -0.011766253
FINAL SINGLE POINT ENERGY      -346.244188600839

DIPOLE MOMENT
-------------

Method             : SCF
Type of density    : Electron Density
Multiplicity       :   1
Irrep              :   0
Energy             :  -346.3090689334659373 Eh
Relativity type    :
Basis              : AO
                                X                 Y                 Z
Electronic contribution:      5.553474330      -3.055921712       1.168009348
Nuclear contribution   :     -5.982208362       3.691407161      -0.994959591
                        -----------------------------------------
Total Dipole Moment    :     -0.428734032       0.635485449       0.173049757
                        -----------------------------------------
Magnitude (a.u.)       :      0.785875846
Magnitude (Debye)      :      1.997537653

Rotational constants in cm-1:             0.175625             0.047260             0.043401
Rotational constants in MHz :          5265.101123          1416.811846          1301.134849

                             ****ORCA TERMINATED NORMALLY****
TOTAL RUN TIME: 0 days 0 hours 0 minutes 8 seconds 347 msec
