                         Program Version 6.0.0  -   RELEASE  -
|  1> ! r2scan-3c def2/J RI DEFGRID2 scfconv6 printgap
|  2> %output
|  3>     printlevel normal
|  4> end
|  5> * xyz 0 1
|  6> C 1.8646628354 -0.2883080747 0.8981219956
|  7> C 1.5314382989 0.2231352201 -0.4979008449
|  8> C 0.246308879 -0.3538269836 -1.0997116553
|  9> C -1.0661732028 0.0032814738 -0.3634471319
| 10> H -1.8774425516 0.0051464476 -1.1121498929
| 11> C -1.4469463321 -1.0180720481 0.706364403
| 12> O -1.0207009243 1.2784439812 0.2554935097
| 13> H 2.8578327002 0.0478012274 1.1885976053
| 14> H 1.8482029247 -1.3756012602 0.9253000762
| 15> H 1.1535877135 0.0978636702 1.6234087235
| 16> H 1.461623729 1.3117367347 -0.4631472373
| 17> H 2.3504611578 -0.032432188 -1.1748575543
| 18> H 0.1750894128 0.0103832246 -2.1277993374
| 19> H 0.3232745757 -1.4407896396 -1.142054587
| 20> H -2.368505421 -0.701303047 1.1885788937
| 21> H -1.6016177015 -1.9903692621 0.2484037313
| 22> H -0.6738781358 -1.0956387467 1.4622044791
| 23> H -0.903619541 1.9554639869 -0.4229555339
| 24> *
| 25>
| 26>                          ****END OF INPUT****

CARTESIAN COORDINATES (ANGSTROEM)
---------------------------------
  C      1.864663   -0.288308    0.898122
  C      1.531438    0.223135   -0.497901
  C      0.246309   -0.353827   -1.099712
  C     -1.066173    0.003281   -0.363447
  H     -1.877443    0.005146   -1.112150
  C     -1.446946   -1.018072    0.706364
  O     -1.020701    1.278444    0.255494
  H      2.857833    0.047801    1.188598
  H      1.848203   -1.375601    0.925300
  H      1.153588    0.097864    1.623409
  H      1.461624    1.311737   -0.463147
  H      2.350461   -0.032432   -1.174858
  H      0.175089    0.010383   -2.127799
  H      0.323275   -1.440790   -1.142055
  H     -2.368505   -0.701303    1.188579
  H     -1.601618   -1.990369    0.248404
  H     -0.673878   -1.095639    1.462204
  H     -0.903620    1.955464   -0.422956

 Total Charge           Charge          ....    0
 Multiplicity           Mult            ....    1
 Number of Electrons    NEL             ....   50
 Basis Dimension        Dim             ....  179

ORBITAL ENERGIES
----------------

  NO   OCC          E(Eh)            E(eV)
   0   2.0000     -18.945919      -515.5447
   1   2.0000     -10.080273      -274.2982
   2   2.0000     -10.023473      -272.7526
   3   2.0000     -10.023332      -272.7487
   4   2.0000     -10.013477      -272.4806
   5   2.0000     -10.010164      -272.3904
   6   2.0000      -0.983785       -26.7701
   7   2.0000      -0.758866       -20.6498
   8   2.0000      -0.709896       -19.3173
   9   2.0000      -0.650338       -17.6966
  10   2.0000      -0.572501       -15.5785
  11   2.0000      -0.533356       -14.5134
  12   2.0000      -0.474955       -12.9242
  13   2.0000      -0.436539       -11.8788
  14   2.0000      -0.418522       -11.3886
  15   2.0000      -0.383593       -10.4381
  16   2.0000      -0.377137       -10.2624
  17   2.0000      -0.352625        -9.5954
  18   2.0000      -0.345170        -9.3926
  19   2.0000      -0.340037        -9.2529
  20   2.0000      -0.315671        -8.5898
  21   2.0000      -0.297595        -8.0980
  22   2.0000      -0.293648        -7.9906
  23   2.0000      -0.276372        -7.5205
  24   2.0000      -0.232027        -6.3138
  25   0.0000       0.052159         1.4193
  26   0.0000       0.104726         2.8498
  27   0.0000       0.116306         3.1648
  28   0.0000       0.124075         3.3763
  29   0.0000       0.134645         3.6639

MULLIKEN ATOMIC CHARGES
-----------------------
   0 C :   -0.543304
   1 C :   -0.148973
   2 C :   -0.326640
   3 C :    0.046388
   4 H :    0.127159
   5 C :   -0.498210
   6 O :   -0.424637
   7 H :    0.142990
   8 H :    0.146285
   9 H :    0.173449
  10 H :    0.126846
  11 H :    0.139424
  12 H :    0.149693
  13 H :    0.142501
  14 H :    0.155370
  15 H :    0.146319
  16 H :    0.157373
  17 H :    0.287969
Sum of atomic charges:   -0.0000000

LOEWDIN ATOMIC CHARGES
----------------------
   0 C :   -0.428061
   1 C :   -0.307394
   2 C :   -0.296236
   3 C :    0.048838
   4 H :    0.161076
   5 C :   -0.387080
   6 O :   -0.618800
   7 H :    0.149771
   8 H :    0.148418
   9 H :    0.156720
  10 H :    0.154816
  11 H :    0.150793
  12 H :    0.156800
  13 H :    0.162635
  14 H :    0.161833
  15 H :    0.156276
  16 H :    0.161431
  17 H :    0.268164

  Mayer bond orders larger than 0.100000
B(  0-C ,  1-C ) :   0.8592 B(  0-C ,  7-H ) :   0.9665 B(  0-C ,  8-H ) :   0.9812
B(  0-C ,  9-H ) :   0.9832 B(  1-C ,  2-C ) :   0.9160 B(  1-C , 10-H ) :   0.9835
B(  1-C , 11-H ) :   0.9666 B(  2-C ,  3-C ) :   0.8921 B(  2-C , 12-H ) :   0.9685
B(  2-C , 13-H ) :   0.9783 B(  3-C ,  4-H ) :   0.9579 B(  3-C ,  5-C ) :   0.9509
B(  3-C ,  6-O ) :   0.9007 B(  5-C , 14-H ) :   0.9702 B(  5-C , 15-H ) :   0.9750
B(  5-C , 16-H ) :   0.9701 B(  6-O , 17-H ) :   0.9012

Dispersion correction           -0.004468723
FINAL SINGLE POINT ENERGY      -272.897829465180

DIPOLE MOMENT
-------------

Method             : SCF
Type of density    : Electron Density
Multiplicity       :   1
Irrep              :   0
Energy             :  -272.9030280104562394 Eh
Relativity type    :
Basis              : AO
                                X                 Y                 Z
Electronic contribution:     -2.495115912       2.928055471      -0.752045632
Nuclear contribution   :      2.560119811      -2.990411234       0.185353851
                        -----------------------------------------
Total Dipole Moment    :      0.065003900      -0.062355763      -0.566691781
                        -----------------------------------------
Magnitude (a.u.)       :      0.573805997
Magnitude (Debye)      :      1.458498936

Rotational constants in cm-1:             0.153101             0.081041             0.075711
Rotational constants in MHz :          4589.841680          2429.533869          2269.747774

                             ****ORCA TERMINATED NORMALLY****
TOTAL RUN TIME: 0 days 0 hours 0 minutes 23 seconds 274 msec
