                         Program Version 6.0.0  -   RELEASE  -
|  1> ! r2scan-3c def2/J RI DEFGRID2 scfconv6 printgap
|  2> %output
|  3>     printlevel normal
|  4> end
|  5> %cpcm
|  6>     smd true
|  7>     smdsolvent "water"
|  8> end
|  9> * xyz 0 1
| 10> C 1.8646628354 -0.2883080747 0.8981219956
| 11> C 1.5314382989 0.2231352201 -0.4979008449
| 12> C 0.246308879 -0.3538269836 -1.0997116553
| 13> C -1.0661732028 0.0032814738 -0.3634471319
| 14> H -1.8774425516 0.0051464476 -1.1121498929
| 15> C -1.4469463321 -1.0180720481 0.706364403
| 16> O -1.0207009243 1.2784439812 0.2554935097
| 17> H 2.8578327002 0.0478012274 1.1885976053
| 18> H 1.8482029247 -1.3756012602 0.9253000762
| 19> H 1.1535877135 0.0978636702 1.6234087235
| 20> H 1.461623729 1.3117367347 -0.4631472373
| 21> H 2.3504611578 -0.032432188 -1.1748575543
| 22> H 0.1750894128 0.0103832246 -2.1277993374
| 23> H 0.3232745757 -1.4407896396 -1.142054587
| 24> H -2.368505421 -0.701303047 1.1885788937
| 25> H -1.6016177015 -1.9903692621 0.2484037313
| 26> H -0.6738781358 -1.0956387467 1.4622044791
| 27> H -0.903619541 1.9554639869 -0.4229555339
| 28> *
| 29>
| 30>                          ****END OF INPUT****

CARTESIAN COORDINATES (ANGSTROEM)
---------------------------------
  C      1.864663   -0.288308    0.898122
  C      1.531438    0.223135   -0.497901
  C      0.246309   -0.353827   -1.099712
  C     -1.066173    0.003281   -0.363447
  H     -1.877443    0.005146   -1.112150
  C     -1.446946   -1.018072    0.706364
  O     -1.020701    1.278444    0.255494
  H      2.857833    0.047801    1.188598
  H      1.848203   -1.375601    0.925300
  H      1.153588    0.097864    1.623409
  H      1.461624    1.311737   -0.463147
  H      2.350461   -0.032432   -1.174858
  H      0.175089    0.010383   -2.127799
  H      0.323275   -1.440790   -1.142055
  H     -2.368505   -0.701303    1.188579
  H     -1.601618   -1.990369    0.248404
  H     -0.673878   -1.095639    1.462204
  H     -0.903620    1.955464   -0.422956

 Total Charge           Charge          ....    0
 Multiplicity           Mult            ....    1
 Number of Electrons    NEL             ....   50
 Basis Dimension        Dim             ....  179

ORBITAL ENERGIES
----------------

  NO   OCC          E(Eh)            E(eV)
   0   2.0000     -18.947754      -515.5946
   1   2.0000     -10.074648      -274.1451
   2   2.0000     -10.016450      -272.5615
   3   2.0000     -10.013903      -272.4922
   4   2.0000     -10.008226      -272.3377
   5   2.0000     -10.005921      -272.2750
   6   2.0000      -0.984479       -26.7890
   7   2.0000      -0.752376       -20.4732
   8   2.0000      -0.705135       -19.1877
   9   2.0000      -0.644401       -17.5350
  10   2.0000      -0.567440       -15.4408
  11   2.0000      -0.528234       -14.3740
  12   2.0000      -0.470273       -12.7968
  13   2.0000      -0.431748       -11.7485
  14   2.0000      -0.411120       -11.1872
  15   2.0000      -0.380666       -10.3584
  16   2.0000      -0.373897       -10.1743
  17   2.0000      -0.347198        -9.4477
  18   2.0000      -0.340831        -9.2745
  19   2.0000      -0.336202        -9.1485
  20   2.0000      -0.312988        -8.5168
  21   2.0000      -0.291155        -7.9227
  22   2.0000      -0.289732        -7.8840
  23   2.0000      -0.272118        -7.4047
  24   2.0000      -0.233307        -6.3486
  25   0.0000       0.067485         1.8364
  26   0.0000       0.114188         3.1072
  27   0.0000       0.124592         3.3903
  28   0.0000       0.130514         3.5515
  29   0.0000       0.143034         3.8921

MULLIKEN ATOMIC CHARGES
-----------------------
   0 C :   -0.558390
   1 C :   -0.203766
   2 C :   -0.316910
   3 C :    0.062618
   4 H :    0.140538
   5 C :   -0.541240
   6 O :   -0.507278
   7 H :    0.153942
   8 H :    0.159046
   9 H :    0.165590
  10 H :    0.143867
  11 H :    0.149864
  12 H :    0.160760
  13 H :    0.155525
  14 H :    0.158859
  15 H :    0.168090
  16 H :    0.166750
  17 H :    0.342134
Sum of atomic charges:   -0.0000000

LOEWDIN ATOMIC CHARGES
----------------------
   0 C :   -0.435855
   1 C :   -0.311584
   2 C :   -0.293292
   3 C :    0.051270
   4 H :    0.168699
   5 C :   -0.397028
   6 O :   -0.653267
   7 H :    0.151767
   8 H :    0.152722
   9 H :    0.152876
  10 H :    0.156940
  11 H :    0.154271
  12 H :    0.162261
  13 H :    0.166561
  14 H :    0.160411
  15 H :    0.164424
  16 H :    0.162191
  17 H :    0.286632

  Mayer bond orders larger than 0.100000
B(  0-C ,  1-C ) :   0.8639 B(  0-C ,  7-H ) :   0.9657 B(  0-C ,  8-H ) :   0.9772
B(  0-C ,  9-H ) :   0.9809 B(  1-C ,  2-C ) :   0.8970 B(  1-C , 10-H ) :   0.9902
B(  1-C , 11-H ) :   0.9638 B(  2-C ,  3-C ) :   0.9005 B(  2-C , 12-H ) :   0.9645
B(  2-C , 13-H ) :   0.9788 B(  3-C ,  4-H ) :   0.9527 B(  3-C ,  5-C ) :   0.9389
B(  3-C ,  6-O ) :   0.8867 B(  5-C , 14-H ) :   0.9703 B(  5-C , 15-H ) :   0.9690
B(  5-C , 16-H ) :   0.9678 B(  6-O , 17-H ) :   0.8751

Dispersion correction           -0.004468723
FINAL SINGLE POINT ENERGY      -272.903668154967

DIPOLE MOMENT
-------------

Method             : SCF
Type of density    : Electron Density
Multiplicity       :   1
Irrep              :   0
Energy             :  -272.9088667002438910 Eh
Relativity type    :
Basis              : AO
                                X                 Y                 Z
Electronic contribution:     -2.458792399       2.861473455      -1.063778225
Nuclear contribution   :      2.560119811      -2.990411234       0.185353851
                        -----------------------------------------
Total Dipole Moment    :      0.101327412      -0.128937779      -0.878424373
                        -----------------------------------------
Magnitude (a.u.)       :      0.893600344
Magnitude (Debye)      :      2.271351568

Rotational constants in cm-1:             0.153101             0.081041             0.075711
Rotational constants in MHz :          4589.841680          2429.533869          2269.747774

                             ****ORCA TERMINATED NORMALLY****
TOTAL RUN TIME: 0 days 0 hours 0 minutes 27 seconds 212 msec
