                         Program Version 6.0.0  -   RELEASE  -
|  1> ! pbe def2-sv(p) def2/J RI DEFGRID1 loosescf d4 GCP(DFT/SV(P)) printgap
|  2> %output
|  3>     printlevel normal
|  4> end
|  5> * xyz 0 1
|  6> C 5.4388686397 -0.0216717271 -0.864529648
|  7> C 4.5046513754 -0.5811820546 0.2091923508
|  8> C 3.2259482944 0.2304732674 0.2606801107
|  9> O 3.235176865 1.4386837219 0.4338199514
| 10> N 2.0921714516 -0.5060736897 0.096690233
| 11> C 0.7654889676 -0.0839750367 0.095386044
| 12> C 0.3857239278 1.2491642512 0.2444039769
| 13> C -0.9509421077 1.5965580857 0.2319024073
| 14> C -1.9285975842 0.6275758348 0.0714044284
| 15> C -1.5558739631 -0.7028823472 -0.0778897532
| 16> C -0.2208339621 -1.0588911958 -0.0665868353
| 17> Cl -2.7641624744 -1.9292711489 -0.2784805247
| 18> Cl -3.60513283 1.0752918594 0.0570994719
| 19> H 5.0111741327 -0.1620931363 -1.8541245957
| 20> H 6.4016684862 -0.522323474 -0.824641471
| 21> H 5.5880080489 1.0431758525 -0.7031508282
| 22> H 4.9875943018 -0.483332998 1.183436904
| 23> H 4.301513836 -1.6338654921 0.0217230871
| 24> H 2.2114107771 -1.5023427229 -0.0373767366
| 25> H 1.140033222 2.0075043139 0.3696795196
| 26> H -1.2432172511 2.6270716872 0.3462289909
| 27> H 0.0429375702 -2.0974392657 -0.1837355065
| 28> *
| 29>
| 30>                          ****END OF INPUT****

CARTESIAN COORDINATES (ANGSTROEM)
---------------------------------
  C      5.438869   -0.021672   -0.864530
  C      4.504651   -0.581182    0.209192
  C      3.225948    0.230473    0.260680
  O      3.235177    1.438684    0.433820
  N      2.092171   -0.506074    0.096690
  C      0.765489   -0.083975    0.095386
  C      0.385724    1.249164    0.244404
  C     -0.950942    1.596558    0.231902
  C     -1.928598    0.627576    0.071404
  C     -1.555874   -0.702882   -0.077890
  C     -0.220834   -1.058891   -0.066587
  Cl    -2.764162   -1.929271   -0.278481
  Cl    -3.605133    1.075292    0.057099
  H      5.011174   -0.162093   -1.854125
  H      6.401668   -0.522323   -0.824641
  H      5.588008    1.043176   -0.703151
  H      4.987594   -0.483333    1.183437
  H      4.301514   -1.633865    0.021723
  H      2.211411   -1.502343   -0.037377
  H      1.140033    2.007504    0.369680
  H     -1.243217    2.627072    0.346229
  H      0.042938   -2.097439   -0.183736

 Total Charge           Charge          ....    0
 Multiplicity           Mult            ....    1
 Number of Electrons    NEL             ....  112
 Basis Dimension        Dim             ....  208

ORBITAL ENERGIES
----------------

  NO   OCC          E(Eh)            E(eV)
   0   2.0000    -100.647964     -2738.7703
   1   2.0000    -100.643268     -2738.6426
   2   2.0000     -18.735019      -509.8058
   3   2.0000     -14.052084      -382.3766
   4   2.0000     -10.000608      -272.1304
   5   2.0000      -9.965284      -271.1692
   6   2.0000      -9.959324      -271.0070
   7   2.0000      -9.957734      -270.9637
   8   2.0000      -9.918701      -269.9016
   9   2.0000      -9.911918      -269.7170
  10   2.0000      -9.911088      -269.6944
  11   2.0000      -9.901430      -269.4316
  12   2.0000      -9.890845      -269.1436
  13   2.0000      -9.183689      -249.9009
  14   2.0000      -9.178866      -249.7697
  15   2.0000      -7.015266      -190.8951
  16   2.0000      -7.010458      -190.7643
  17   2.0000      -7.003678      -190.5798
  18   2.0000      -7.002892      -190.5584
  19   2.0000      -6.998855      -190.4485
  20   2.0000      -6.998093      -190.4278
  21   2.0000      -0.954342       -25.9690
  22   2.0000      -0.875095       -23.8125
  23   2.0000      -0.836120       -22.7520
  24   2.0000      -0.782482       -21.2924
  25   2.0000      -0.764489       -20.8028
  26   2.0000      -0.716644       -19.5009
  27   2.0000      -0.684475       -18.6255
  28   2.0000      -0.664349       -18.0779
  29   2.0000      -0.602516       -16.3953
  30   2.0000      -0.582010       -15.8373
  31   2.0000      -0.559767       -15.2320
  32   2.0000      -0.523229       -14.2378
  33   2.0000      -0.502646       -13.6777
  34   2.0000      -0.455592       -12.3973
  35   2.0000      -0.447567       -12.1789
  36   2.0000      -0.434744       -11.8300
  37   2.0000      -0.425715       -11.5843
  38   2.0000      -0.412173       -11.2158
  39   2.0000      -0.399845       -10.8803
  40   2.0000      -0.395793       -10.7701
  41   2.0000      -0.376321       -10.2402
  42   2.0000      -0.373047       -10.1511
  43   2.0000      -0.357415        -9.7257
  44   2.0000      -0.343769        -9.3544
  45   2.0000      -0.337044        -9.1714
  46   2.0000      -0.333064        -9.0631
  47   2.0000      -0.323888        -8.8134
  48   2.0000      -0.306886        -8.3508
  49   2.0000      -0.305074        -8.3015
  50   2.0000      -0.284328        -7.7370
  51   2.0000      -0.264915        -7.2087
  52   2.0000      -0.261228        -7.1084
  53   2.0000      -0.233268        -6.3475
  54   2.0000      -0.215868        -5.8741
  55   2.0000      -0.204034        -5.5520
  56   0.0000      -0.060468        -1.6454
  57   0.0000      -0.054018        -1.4699
  58   0.0000      -0.020548        -0.5592
  59   0.0000      -0.004033        -0.1097
  60   0.0000       0.008249         0.2245

MULLIKEN ATOMIC CHARGES
-----------------------
   0 C :   -0.290046
   1 C :   -0.177588
   2 C :    0.081950
   3 O :   -0.211668
   4 N :   -0.190030
   5 C :    0.212625
   6 C :   -0.126537
   7 C :   -0.101492
   8 C :    0.090516
   9 C :    0.074226
  10 C :   -0.192281
  11 Cl:   -0.057393
  12 Cl:   -0.061855
  13 H :    0.106423
  14 H :    0.111338
  15 H :    0.130525
  16 H :    0.119827
  17 H :    0.076174
  18 H :    0.233559
  19 H :    0.083308
  20 H :    0.058254
  21 H :    0.030166
Sum of atomic charges:    0.0000000

LOEWDIN ATOMIC CHARGES
----------------------
   0 C :   -0.332845
   1 C :   -0.253810
   2 C :    0.034909
   3 O :   -0.179223
   4 N :   -0.102982
   5 C :    0.006794
   6 C :   -0.139001
   7 C :   -0.122404
   8 C :   -0.164949
   9 C :   -0.148714
  10 C :   -0.160658
  11 Cl:    0.141124
  12 Cl:    0.135408
  13 H :    0.120961
  14 H :    0.122778
  15 H :    0.131036
  16 H :    0.143388
  17 H :    0.114084
  18 H :    0.240271
  19 H :    0.147277
  20 H :    0.136975
  21 H :    0.129581

  Mayer bond orders larger than 0.100000
B(  0-C ,  1-C ) :   1.1413 B(  0-C , 13-H ) :   0.9567 B(  0-C , 14-H ) :   0.9520
B(  0-C , 15-H ) :   0.9470 B(  1-C ,  2-C ) :   1.0107 B(  1-C , 16-H ) :   0.8964
B(  1-C , 17-H ) :   0.9167 B(  2-C ,  3-O ) :   2.0259 B(  2-C ,  4-N ) :   1.1623
B(  4-N ,  5-C ) :   1.0946 B(  4-N , 18-H ) :   0.8380 B(  5-C ,  6-C ) :   1.3656
B(  5-C , 10-C ) :   1.2658 B(  6-C ,  7-C ) :   1.3148 B(  6-C , 19-H ) :   0.9429
B(  7-C ,  8-C ) :   1.3666 B(  7-C , 20-H ) :   0.9669 B(  8-C ,  9-C ) :   1.4110
B(  8-C , 12-Cl) :   1.0285 B(  9-C , 10-C ) :   1.4024 B(  9-C , 11-Cl) :   1.0316
B( 10-C , 21-H ) :   0.9586

Dispersion correction           -0.027618127
FINAL SINGLE POINT ENERGY     -1397.095340854014

DIPOLE MOMENT
-------------

Method             : SCF
Type of density    : Electron Density
Multiplicity       :   1
Irrep              :   0
Energy             : -1397.1559667013898434 Eh
Relativity type    :
Basis              : AO
                                X                 Y                 Z
Electronic contribution:    -34.367955985      -1.508363467       1.141376324
Nuclear contribution   :     35.291015706       0.485822010      -1.273879885
                        -----------------------------------------
Total Dipole Moment    :      0.923059721      -1.022541457      -0.132503561
                        -----------------------------------------
Magnitude (a.u.)       :      1.383902986
Magnitude (Debye)      :      3.517601842

Rotational constants in cm-1:             0.050799             0.008650             0.007512
Rotational constants in MHz :          1522.902120           259.314622           225.205698

                             ****ORCA TERMINATED NORMALLY****
TOTAL RUN TIME: 0 days 0 hours 0 minutes 16 seconds 987 msec
