                         Program Version 6.0.0  -   RELEASE  -
|  1> ! r2scan-3c def2/J RI DEFGRID2 scfconv6 printgap
|  2> %output
|  3>     printlevel normal
|  4> end
|  5> * xyz 0 1
|  6> C -2.6694039614 1.0704848469 -0.109433032
|  7> C -2.1654345975 -0.2244825015 0.5168532886
|  8> C -0.8808406165 -0.7080472722 -0.1407937147
|  9> O 0.1640310765 0.2314528778 0.1515845907
| 10> C 1.4149727165 -0.1320144214 -0.098104585
| 11> O 1.7113490368 -1.2126044275 -0.5672882789
| 12> C 2.3894687418 0.9442399648 0.2750206543
| 13> H -2.8981448153 0.9204760431 -1.1616693673
| 14> H -3.5695323295 1.4077909017 0.3962761428
| 15> H -1.911589055 1.8447081611 -0.0263768923
| 16> H -2.9140482186 -1.0094879348 0.410059266
| 17> H -1.974917459 -0.0705892253 1.5795258766
| 18> H -0.5780852381 -1.6916244066 0.23391423
| 19> H -0.9906699944 -0.7746330563 -1.2283727747
| 20> H 3.3963681602 0.6262206301 0.0265534823
| 21> H 2.3095328809 1.1417626696 1.3406747089
| 22> H 2.1372569535 1.8570050694 -0.2573400178
| 23> *
| 24>
| 25>                          ****END OF INPUT****

CARTESIAN COORDINATES (ANGSTROEM)
---------------------------------
  C     -2.669404    1.070485   -0.109433
  C     -2.165435   -0.224483    0.516853
  C     -0.880841   -0.708047   -0.140794
  O      0.164031    0.231453    0.151585
  C      1.414973   -0.132014   -0.098105
  O      1.711349   -1.212604   -0.567288
  C      2.389469    0.944240    0.275021
  H     -2.898145    0.920476   -1.161669
  H     -3.569532    1.407791    0.396276
  H     -1.911589    1.844708   -0.026377
  H     -2.914048   -1.009488    0.410059
  H     -1.974917   -0.070589    1.579526
  H     -0.578085   -1.691624    0.233914
  H     -0.990670   -0.774633   -1.228373
  H      3.396368    0.626221    0.026553
  H      2.309533    1.141763    1.340675
  H      2.137257    1.857005   -0.257340

 Total Charge           Charge          ....    0
 Multiplicity           Mult            ....    1
 Number of Electrons    NEL             ....   56
 Basis Dimension        Dim             ....  193

ORBITAL ENERGIES
----------------

  NO   OCC          E(Eh)            E(eV)
   0   2.0000     -18.996680      -516.9260
   1   2.0000     -18.927755      -515.0504
   2   2.0000     -10.155067      -276.3334
   3   2.0000     -10.088699      -274.5275
   4   2.0000     -10.039283      -273.1828
   5   2.0000     -10.038850      -273.1710
   6   2.0000     -10.022580      -272.7283
   7   2.0000      -1.072608       -29.1871
   8   2.0000      -0.974555       -26.5190
   9   2.0000      -0.770464       -20.9654
  10   2.0000      -0.721538       -19.6341
  11   2.0000      -0.659896       -17.9567
  12   2.0000      -0.581242       -15.8164
  13   2.0000      -0.531621       -14.4662
  14   2.0000      -0.466196       -12.6858
  15   2.0000      -0.457624       -12.4526
  16   2.0000      -0.437489       -11.9047
  17   2.0000      -0.418645       -11.3919
  18   2.0000      -0.404742       -11.0136
  19   2.0000      -0.390466       -10.6251
  20   2.0000      -0.376502       -10.2451
  21   2.0000      -0.352552        -9.5934
  22   2.0000      -0.340782        -9.2731
  23   2.0000      -0.324348        -8.8260
  24   2.0000      -0.317047        -8.6273
  25   2.0000      -0.305575        -8.3151
  26   2.0000      -0.271342        -7.3836
  27   2.0000      -0.235012        -6.3950
  28   0.0000      -0.013427        -0.3654
  29   0.0000       0.072522         1.9734
  30   0.0000       0.094810         2.5799
  31   0.0000       0.109935         2.9915
  32   0.0000       0.121974         3.3191

MULLIKEN ATOMIC CHARGES
-----------------------
   0 C :   -0.472590
   1 C :   -0.222575
   2 C :   -0.162644
   3 O :   -0.170633
   4 C :    0.418020
   5 O :   -0.427500
   6 C :   -0.523979
   7 H :    0.141545
   8 H :    0.147677
   9 H :    0.160138
  10 H :    0.139713
  11 H :    0.144236
  12 H :    0.165970
  13 H :    0.150570
  14 H :    0.178189
  15 H :    0.167365
  16 H :    0.166499
Sum of atomic charges:    0.0000000

LOEWDIN ATOMIC CHARGES
----------------------
   0 C :   -0.418580
   1 C :   -0.285708
   2 C :    0.039881
   3 O :   -0.603734
   4 C :    0.351666
   5 O :   -0.428644
   6 C :   -0.336737
   7 H :    0.151439
   8 H :    0.151465
   9 H :    0.159296
  10 H :    0.160131
  11 H :    0.162543
  12 H :    0.187439
  13 H :    0.179106
  14 H :    0.174682
  15 H :    0.178203
  16 H :    0.177551

  Mayer bond orders larger than 0.100000
B(  0-C ,  1-C ) :   0.9102 B(  0-C ,  7-H ) :   0.9764 B(  0-C ,  8-H ) :   0.9721
B(  0-C ,  9-H ) :   0.9801 B(  1-C ,  2-C ) :   0.9514 B(  1-C , 10-H ) :   0.9622
B(  1-C , 11-H ) :   0.9717 B(  2-C ,  3-O ) :   0.8017 B(  2-C , 12-H ) :   0.9546
B(  2-C , 13-H ) :   0.9524 B(  3-O ,  4-C ) :   1.0685 B(  4-C ,  5-O ) :   1.8227
B(  4-C ,  6-C ) :   0.9496 B(  6-C , 14-H ) :   0.9893 B(  6-C , 15-H ) :   0.9507
B(  6-C , 16-H ) :   0.9546

Dispersion correction           -0.003899982
FINAL SINGLE POINT ENERGY      -346.936853302861

DIPOLE MOMENT
-------------

Method             : SCF
Type of density    : Electron Density
Multiplicity       :   1
Irrep              :   0
Energy             :  -346.9433298242872752 Eh
Relativity type    :
Basis              : AO
                                X                 Y                 Z
Electronic contribution:      5.977374725      -3.338151110      -0.881966982
Nuclear contribution   :     -6.533576409       3.974192035       1.225879774
                        -----------------------------------------
Total Dipole Moment    :     -0.556201684       0.636040925       0.343912792
                        -----------------------------------------
Magnitude (a.u.)       :      0.912241405
Magnitude (Debye)      :      2.318733378

Rotational constants in cm-1:             0.195716             0.045673             0.039495
Rotational constants in MHz :          5867.431625          1369.234419          1184.037486

                             ****ORCA TERMINATED NORMALLY****
TOTAL RUN TIME: 0 days 0 hours 0 minutes 20 seconds 653 msec
