                         Program Version 6.0.0  -   RELEASE  -
|  1> ! r2scan-3c def2/J RI DEFGRID2 scfconv6 printgap
|  2> %output
|  3>     printlevel normal
|  4> end
|  5> %cpcm
|  6>     smd true
|  7>     smdsolvent "water"
|  8> end
|  9> * xyz 0 1
| 10> C -2.6694039614 1.0704848469 -0.109433032
| 11> C -2.1654345975 -0.2244825015 0.5168532886
| 12> C -0.8808406165 -0.7080472722 -0.1407937147
| 13> O 0.1640310765 0.2314528778 0.1515845907
| 14> C 1.4149727165 -0.1320144214 -0.098104585
| 15> O 1.7113490368 -1.2126044275 -0.5672882789
| 16> C 2.3894687418 0.9442399648 0.2750206543
| 17> H -2.8981448153 0.9204760431 -1.1616693673
| 18> H -3.5695323295 1.4077909017 0.3962761428
| 19> H -1.911589055 1.8447081611 -0.0263768923
| 20> H -2.9140482186 -1.0094879348 0.410059266
| 21> H -1.974917459 -0.0705892253 1.5795258766
| 22> H -0.5780852381 -1.6916244066 0.23391423
| 23> H -0.9906699944 -0.7746330563 -1.2283727747
| 24> H 3.3963681602 0.6262206301 0.0265534823
| 25> H 2.3095328809 1.1417626696 1.3406747089
| 26> H 2.1372569535 1.8570050694 -0.2573400178
| 27> *
| 28>
| 29>                          ****END OF INPUT****

CARTESIAN COORDINATES (ANGSTROEM)
---------------------------------
  C     -2.669404    1.070485   -0.109433
  C     -2.165435   -0.224483    0.516853
  C     -0.880841   -0.708047   -0.140794
  O      0.164031    0.231453    0.151585
  C      1.414973   -0.132014   -0.098105
  O      1.711349   -1.212604   -0.567288
  C      2.389469    0.944240    0.275021
  H     -2.898145    0.920476   -1.161669
  H     -3.569532    1.407791    0.396276
  H     -1.911589    1.844708   -0.026377
  H     -2.914048   -1.009488    0.410059
  H     -1.974917   -0.070589    1.579526
  H     -0.578085   -1.691624    0.233914
  H     -0.990670   -0.774633   -1.228373
  H      3.396368    0.626221    0.026553
  H      2.309533    1.141763    1.340675
  H      2.137257    1.857005   -0.257340

 Total Charge           Charge          ....    0
 Multiplicity           Mult            ....    1
 Number of Electrons    NEL             ....   56
 Basis Dimension        Dim             ....  193

ORBITAL ENERGIES
----------------

  NO   OCC          E(Eh)            E(eV)
   0   2.0000     -19.001825      -517.0660
   1   2.0000     -18.943697      -515.4842
   2   2.0000     -10.165226      -276.6099
   3   2.0000     -10.081088      -274.3204
   4   2.0000     -10.030414      -272.9414
   5   2.0000     -10.026465      -272.8340
   6   2.0000     -10.010910      -272.4107
   7   2.0000      -1.079523       -29.3753
   8   2.0000      -0.988381       -26.8952
   9   2.0000      -0.762903       -20.7596
  10   2.0000      -0.714879       -19.4528
  11   2.0000      -0.652122       -17.7451
  12   2.0000      -0.573348       -15.6016
  13   2.0000      -0.528431       -14.3793
  14   2.0000      -0.465819       -12.6756
  15   2.0000      -0.462407       -12.5827
  16   2.0000      -0.444332       -12.0909
  17   2.0000      -0.411302       -11.1921
  18   2.0000      -0.398120       -10.8334
  19   2.0000      -0.382737       -10.4148
  20   2.0000      -0.369608       -10.0576
  21   2.0000      -0.348994        -9.4966
  22   2.0000      -0.340322        -9.2606
  23   2.0000      -0.318109        -8.6562
  24   2.0000      -0.307791        -8.3754
  25   2.0000      -0.300282        -8.1711
  26   2.0000      -0.276218        -7.5163
  27   2.0000      -0.252323        -6.8661
  28   0.0000      -0.021089        -0.5738
  29   0.0000       0.077552         2.1103
  30   0.0000       0.103953         2.8287
  31   0.0000       0.119814         3.2603
  32   0.0000       0.132472         3.6047

MULLIKEN ATOMIC CHARGES
-----------------------
   0 C :   -0.507600
   1 C :   -0.246116
   2 C :   -0.170945
   3 O :   -0.183576
   4 C :    0.468009
   5 O :   -0.518129
   6 C :   -0.560167
   7 H :    0.157191
   8 H :    0.160875
   9 H :    0.159401
  10 H :    0.159015
  11 H :    0.157457
  12 H :    0.171804
  13 H :    0.173260
  14 H :    0.186028
  15 H :    0.197598
  16 H :    0.195895
Sum of atomic charges:    0.0000000

LOEWDIN ATOMIC CHARGES
----------------------
   0 C :   -0.425464
   1 C :   -0.283568
   2 C :    0.041106
   3 O :   -0.603748
   4 C :    0.363286
   5 O :   -0.493524
   6 C :   -0.335161
   7 H :    0.155793
   8 H :    0.155312
   9 H :    0.157447
  10 H :    0.167972
  11 H :    0.165563
  12 H :    0.189907
  13 H :    0.186394
  14 H :    0.178286
  15 H :    0.190616
  16 H :    0.189783

  Mayer bond orders larger than 0.100000
B(  0-C ,  1-C ) :   0.9018 B(  0-C ,  7-H ) :   0.9738 B(  0-C ,  8-H ) :   0.9696
B(  0-C ,  9-H ) :   0.9788 B(  1-C ,  2-C ) :   0.9572 B(  1-C , 10-H ) :   0.9575
B(  1-C , 11-H ) :   0.9753 B(  2-C ,  3-O ) :   0.7875 B(  2-C , 12-H ) :   0.9485
B(  2-C , 13-H ) :   0.9432 B(  3-O ,  4-C ) :   1.0984 B(  4-C ,  5-O ) :   1.7498
B(  4-C ,  6-C ) :   0.9482 B(  6-C , 14-H ) :   0.9826 B(  6-C , 15-H ) :   0.9383
B(  6-C , 16-H ) :   0.9421

Dispersion correction           -0.003899982
FINAL SINGLE POINT ENERGY      -346.942600080452

DIPOLE MOMENT
-------------

Method             : SCF
Type of density    : Electron Density
Multiplicity       :   1
Irrep              :   0
Energy             :  -346.9490766018788008 Eh
Relativity type    :
Basis              : AO
                                X                 Y                 Z
Electronic contribution:      5.782374780      -3.096292699      -0.755206769
Nuclear contribution   :     -6.533576409       3.974192035       1.225879774
                        -----------------------------------------
Total Dipole Moment    :     -0.751201629       0.877899336       0.470673005
                        -----------------------------------------
Magnitude (a.u.)       :      1.247615410
Magnitude (Debye)      :      3.171186353

Rotational constants in cm-1:             0.195716             0.045673             0.039495
Rotational constants in MHz :          5867.431625          1369.234419          1184.037486

                             ****ORCA TERMINATED NORMALLY****
TOTAL RUN TIME: 0 days 0 hours 0 minutes 27 seconds 817 msec
