                         Program Version 6.0.0  -   RELEASE  -
|  1> ! pbe def2-sv(p) def2/J RI DEFGRID1 loosescf d4 GCP(DFT/SV(P)) printgap
|  2> %output
|  3>     printlevel normal
|  4> end
|  5> * xyz 0 1
|  6> C 1.8000772751 -0.0502960105 1.052351576
|  7> C 1.1373863657 -0.4230970132 -0.2705052574
|  8> C 2.1512050727 -0.3605470603 -1.411214372
|  9> C -0.0514947158 0.5066125355 -0.5814264004
| 10> C -1.2752340467 0.2007008261 0.2490649987
| 11> O -1.2438206033 0.0792507696 1.4586518599
| 12> C -2.5469554716 0.0507326718 -0.5332978017
| 13> H 2.5897428792 -0.7577931672 1.2939268895
| 14> H 2.2352478828 0.9450977717 0.9904576488
| 15> H 1.0696638302 -0.0602527545 1.8572754039
| 16> H 0.7590876246 -1.4490390126 -0.1920400478
| 17> H 1.7026221891 -0.6823711473 -2.34773115
| 18> H 2.996705259 -1.0088767112 -1.1959922786
| 19> H 2.5196325459 0.6552897847 -1.5332527272
| 20> H -0.3056056936 0.4370667345 -1.6382464432
| 21> H 0.2475981103 1.535029785 -0.3649684328
| 22> H -3.3908202459 -0.0969807519 0.1349741666
| 23> H -2.7052882791 0.9347506402 -1.1455408463
| 24> H -2.4529796146 -0.8055289917 -1.1974693716
| 25> *
| 26>
| 27>                          ****END OF INPUT****

CARTESIAN COORDINATES (ANGSTROEM)
---------------------------------
  C      1.800077   -0.050296    1.052352
  C      1.137386   -0.423097   -0.270505
  C      2.151205   -0.360547   -1.411214
  C     -0.051495    0.506613   -0.581426
  C     -1.275234    0.200701    0.249065
  O     -1.243821    0.079251    1.458652
  C     -2.546955    0.050733   -0.533298
  H      2.589743   -0.757793    1.293927
  H      2.235248    0.945098    0.990458
  H      1.069664   -0.060253    1.857275
  H      0.759088   -1.449039   -0.192040
  H      1.702622   -0.682371   -2.347731
  H      2.996705   -1.008877   -1.195992
  H      2.519633    0.655290   -1.533253
  H     -0.305606    0.437067   -1.638246
  H      0.247598    1.535030   -0.364968
  H     -3.390820   -0.096981    0.134974
  H     -2.705288    0.934751   -1.145541
  H     -2.452980   -0.805529   -1.197469

 Total Charge           Charge          ....    0
 Multiplicity           Mult            ....    1
 Number of Electrons    NEL             ....   56
 Basis Dimension        Dim             ....  122

ORBITAL ENERGIES
----------------

  NO   OCC          E(Eh)            E(eV)
   0   2.0000     -18.737963      -509.8859
   1   2.0000      -9.973856      -271.4024
   2   2.0000      -9.903631      -269.4915
   3   2.0000      -9.891474      -269.1607
   4   2.0000      -9.886857      -269.0351
   5   2.0000      -9.876638      -268.7570
   6   2.0000      -9.864663      -268.4311
   7   2.0000      -0.935429       -25.4543
   8   2.0000      -0.736192       -20.0328
   9   2.0000      -0.683062       -18.5871
  10   2.0000      -0.624728       -16.9997
  11   2.0000      -0.608892       -16.5688
  12   2.0000      -0.511120       -13.9083
  13   2.0000      -0.472012       -12.8441
  14   2.0000      -0.422561       -11.4985
  15   2.0000      -0.416032       -11.3208
  16   2.0000      -0.406600       -11.0642
  17   2.0000      -0.386692       -10.5224
  18   2.0000      -0.375121       -10.2076
  19   2.0000      -0.360146        -9.8001
  20   2.0000      -0.345103        -9.3907
  21   2.0000      -0.337580        -9.1860
  22   2.0000      -0.327126        -8.9016
  23   2.0000      -0.309134        -8.4120
  24   2.0000      -0.293970        -7.9993
  25   2.0000      -0.288979        -7.8635
  26   2.0000      -0.286509        -7.7963
  27   2.0000      -0.193972        -5.2783
  28   0.0000      -0.050444        -1.3727
  29   0.0000       0.029750         0.8095
  30   0.0000       0.055984         1.5234
  31   0.0000       0.069885         1.9017
  32   0.0000       0.086124         2.3436

MULLIKEN ATOMIC CHARGES
-----------------------
   0 C :   -0.253475
   1 C :   -0.204671
   2 C :   -0.224656
   3 C :   -0.120956
   4 C :   -0.004049
   5 O :   -0.166337
   6 C :   -0.258331
   7 H :    0.094635
   8 H :    0.087062
   9 H :    0.126818
  10 H :    0.080544
  11 H :    0.096302
  12 H :    0.101896
  13 H :    0.092332
  14 H :    0.079053
  15 H :    0.105917
  16 H :    0.116051
  17 H :    0.125449
  18 H :    0.126417
Sum of atomic charges:    0.0000000

LOEWDIN ATOMIC CHARGES
----------------------
   0 C :   -0.338286
   1 C :   -0.146275
   2 C :   -0.329410
   3 C :   -0.242906
   4 C :    0.045563
   5 O :   -0.129560
   6 C :   -0.361682
   7 H :    0.116033
   8 H :    0.113667
   9 H :    0.126580
  10 H :    0.116395
  11 H :    0.114951
  12 H :    0.119799
  13 H :    0.117144
  14 H :    0.119461
  15 H :    0.142854
  16 H :    0.132119
  17 H :    0.140385
  18 H :    0.143169

  Mayer bond orders larger than 0.100000
B(  0-C ,  1-C ) :   1.1090 B(  0-C ,  7-H ) :   0.9474 B(  0-C ,  8-H ) :   0.9481
B(  0-C ,  9-H ) :   0.9312 B(  1-C ,  2-C ) :   1.1145 B(  1-C ,  3-C ) :   1.0552
B(  1-C , 10-H ) :   0.9129 B(  2-C , 11-H ) :   0.9483 B(  2-C , 12-H ) :   0.9503
B(  2-C , 13-H ) :   0.9473 B(  3-C ,  4-C ) :   0.9788 B(  3-C , 14-H ) :   0.9170
B(  3-C , 15-H ) :   0.8752 B(  4-C ,  5-O ) :   2.1621 B(  4-C ,  6-C ) :   1.0843
B(  6-C , 16-H ) :   0.9350 B(  6-C , 17-H ) :   0.9261 B(  6-C , 18-H ) :   0.9232

Dispersion correction           -0.014712989
FINAL SINGLE POINT ENERGY      -310.354911443031

DIPOLE MOMENT
-------------

Method             : SCF
Type of density    : Electron Density
Multiplicity       :   1
Irrep              :   0
Energy             :  -310.4198703625478402 Eh
Relativity type    :
Basis              : AO
                                X                 Y                 Z
Electronic contribution:     -4.930033095       0.391309719       4.024300822
Nuclear contribution   :      4.921557332      -0.330566907      -4.986857172
                        -----------------------------------------
Total Dipole Moment    :     -0.008475763       0.060742812      -0.962556349
                        -----------------------------------------
Magnitude (a.u.)       :      0.964508296
Magnitude (Debye)      :      2.451585258

Rotational constants in cm-1:             0.152048             0.054103             0.042838
Rotational constants in MHz :          4558.287121          1621.952503          1284.244841

                             ****ORCA TERMINATED NORMALLY****
TOTAL RUN TIME: 0 days 0 hours 0 minutes 9 seconds 563 msec
