                         Program Version 6.0.0  -   RELEASE  -
|  1> ! r2scan-3c def2/J RI DEFGRID2 scfconv6 printgap
|  2> %output
|  3>     printlevel normal
|  4> end
|  5> * xyz 0 1
|  6> C 2.0682851591 -0.5337960521 -0.0053726406
|  7> O 1.2664870064 0.5927578651 0.2894478594
|  8> C -0.0074505276 0.590115669 -0.3209733209
|  9> C -0.9911360591 -0.4170009534 0.2885114127
| 10> N -2.3330941987 -0.1360570245 -0.200291454
| 11> H 1.6778278234 -1.4420147598 0.4625959601
| 12> H 3.0525333401 -0.3130194607 0.4008094474
| 13> H 2.1413280513 -0.6861297636 -1.0875929971
| 14> H -0.4003977933 1.5973353929 -0.1703010944
| 15> H 0.0944482594 0.405298901 -1.4007764817
| 16> H -0.6549504285 -1.4431916993 0.0636192456
| 17> H -0.9893544457 -0.2884952461 1.3743272383
| 18> H -2.9881497058 -0.794953299 0.2043762927
| 19> H -2.3618296209 -0.2552718067 -1.2074052119
| 20> *
| 21>
| 22>                          ****END OF INPUT****

CARTESIAN COORDINATES (ANGSTROEM)
---------------------------------
  C      2.068285   -0.533796   -0.005373
  O      1.266487    0.592758    0.289448
  C     -0.007451    0.590116   -0.320973
  C     -0.991136   -0.417001    0.288511
  N     -2.333094   -0.136057   -0.200291
  H      1.677828   -1.442015    0.462596
  H      3.052533   -0.313019    0.400809
  H      2.141328   -0.686130   -1.087593
  H     -0.400398    1.597335   -0.170301
  H      0.094448    0.405299   -1.400776
  H     -0.654950   -1.443192    0.063619
  H     -0.989354   -0.288495    1.374327
  H     -2.988150   -0.794953    0.204376
  H     -2.361830   -0.255272   -1.207405

 Total Charge           Charge          ....    0
 Multiplicity           Mult            ....    1
 Number of Electrons    NEL             ....   42
 Basis Dimension        Dim             ....  150

ORBITAL ENERGIES
----------------

  NO   OCC          E(Eh)            E(eV)
   0   2.0000     -18.950071      -515.6577
   1   2.0000     -14.142216      -384.8293
   2   2.0000     -10.071998      -274.0730
   3   2.0000     -10.069564      -274.0068
   4   2.0000     -10.052333      -273.5379
   5   2.0000      -0.994494       -27.0616
   6   2.0000      -0.852115       -23.1872
   7   2.0000      -0.701835       -19.0979
   8   2.0000      -0.637686       -17.3523
   9   2.0000      -0.562129       -15.2963
  10   2.0000      -0.470944       -12.8150
  11   2.0000      -0.456753       -12.4289
  12   2.0000      -0.438065       -11.9204
  13   2.0000      -0.409808       -11.1514
  14   2.0000      -0.398670       -10.8484
  15   2.0000      -0.376662       -10.2495
  16   2.0000      -0.340182        -9.2568
  17   2.0000      -0.324694        -8.8354
  18   2.0000      -0.278181        -7.5697
  19   2.0000      -0.226707        -6.1690
  20   2.0000      -0.206365        -5.6155
  21   0.0000       0.056512         1.5378
  22   0.0000       0.080618         2.1937
  23   0.0000       0.108188         2.9440
  24   0.0000       0.122467         3.3325
  25   0.0000       0.141793         3.8584

MULLIKEN ATOMIC CHARGES
-----------------------
   0 C :   -0.292299
   1 O :   -0.243311
   2 C :   -0.166707
   3 C :   -0.181830
   4 N :   -0.561937
   5 H :    0.134399
   6 H :    0.147809
   7 H :    0.130107
   8 H :    0.161795
   9 H :    0.118859
  10 H :    0.120382
  11 H :    0.149611
  12 H :    0.242569
  13 H :    0.240554
Sum of atomic charges:   -0.0000000

LOEWDIN ATOMIC CHARGES
----------------------
   0 C :   -0.076788
   1 O :   -0.782207
   2 C :    0.028261
   3 C :   -0.058358
   4 N :   -0.738266
   5 H :    0.152761
   6 H :    0.174634
   7 H :    0.155366
   8 H :    0.188366
   9 H :    0.158011
  10 H :    0.147075
  11 H :    0.177718
  12 H :    0.237694
  13 H :    0.235734

  Mayer bond orders larger than 0.100000
B(  0-C ,  1-O ) :   0.8914 B(  0-C ,  5-H ) :   0.9621 B(  0-C ,  6-H ) :   0.9743
B(  0-C ,  7-H ) :   0.9683 B(  1-O ,  2-C ) :   0.9247 B(  2-C ,  3-C ) :   0.9153
B(  2-C ,  8-H ) :   0.9642 B(  2-C ,  9-H ) :   0.9684 B(  3-C ,  4-N ) :   0.9447
B(  3-C , 10-H ) :   0.9649 B(  3-C , 11-H ) :   0.9734 B(  4-N , 12-H ) :   0.9173
B(  4-N , 13-H ) :   0.9199

Dispersion correction           -0.002768454
FINAL SINGLE POINT ENERGY      -249.614550254295

DIPOLE MOMENT
-------------

Method             : SCF
Type of density    : Electron Density
Multiplicity       :   1
Irrep              :   0
Energy             :  -249.6244043289782439 Eh
Relativity type    :
Basis              : AO
                                X                 Y                 Z
Electronic contribution:      0.295288752       2.166742826       0.879752156
Nuclear contribution   :     -0.396060608      -3.013261406      -1.273038128
                        -----------------------------------------
Total Dipole Moment    :     -0.100771856      -0.846518580      -0.393285972
                        -----------------------------------------
Magnitude (a.u.)       :      0.938841056
Magnitude (Debye)      :      2.386344319

Rotational constants in cm-1:             0.491779             0.080579             0.075654
Rotational constants in MHz :         14743.165889          2415.689215          2268.043534

                             ****ORCA TERMINATED NORMALLY****
TOTAL RUN TIME: 0 days 0 hours 0 minutes 15 seconds 925 msec
