                         Program Version 6.0.0  -   RELEASE  -
|  1> ! r2scan-3c def2/J RI DEFGRID2 scfconv6 printgap
|  2> %output
|  3>     printlevel normal
|  4> end
|  5> %cpcm
|  6>     smd true
|  7>     smdsolvent "water"
|  8> end
|  9> * xyz 0 1
| 10> C 2.0682851591 -0.5337960521 -0.0053726406
| 11> O 1.2664870064 0.5927578651 0.2894478594
| 12> C -0.0074505276 0.590115669 -0.3209733209
| 13> C -0.9911360591 -0.4170009534 0.2885114127
| 14> N -2.3330941987 -0.1360570245 -0.200291454
| 15> H 1.6778278234 -1.4420147598 0.4625959601
| 16> H 3.0525333401 -0.3130194607 0.4008094474
| 17> H 2.1413280513 -0.6861297636 -1.0875929971
| 18> H -0.4003977933 1.5973353929 -0.1703010944
| 19> H 0.0944482594 0.405298901 -1.4007764817
| 20> H -0.6549504285 -1.4431916993 0.0636192456
| 21> H -0.9893544457 -0.2884952461 1.3743272383
| 22> H -2.9881497058 -0.794953299 0.2043762927
| 23> H -2.3618296209 -0.2552718067 -1.2074052119
| 24> *
| 25>
| 26>                          ****END OF INPUT****

CARTESIAN COORDINATES (ANGSTROEM)
---------------------------------
  C      2.068285   -0.533796   -0.005373
  O      1.266487    0.592758    0.289448
  C     -0.007451    0.590116   -0.320973
  C     -0.991136   -0.417001    0.288511
  N     -2.333094   -0.136057   -0.200291
  H      1.677828   -1.442015    0.462596
  H      3.052533   -0.313019    0.400809
  H      2.141328   -0.686130   -1.087593
  H     -0.400398    1.597335   -0.170301
  H      0.094448    0.405299   -1.400776
  H     -0.654950   -1.443192    0.063619
  H     -0.989354   -0.288495    1.374327
  H     -2.988150   -0.794953    0.204376
  H     -2.361830   -0.255272   -1.207405

 Total Charge           Charge          ....    0
 Multiplicity           Mult            ....    1
 Number of Electrons    NEL             ....   42
 Basis Dimension        Dim             ....  150

ORBITAL ENERGIES
----------------

  NO   OCC          E(Eh)            E(eV)
   0   2.0000     -18.956890      -515.8432
   1   2.0000     -14.134497      -384.6192
   2   2.0000     -10.068222      -273.9702
   3   2.0000     -10.062264      -273.8081
   4   2.0000     -10.044568      -273.3266
   5   2.0000      -0.999675       -27.2025
   6   2.0000      -0.843771       -22.9602
   7   2.0000      -0.698345       -19.0029
   8   2.0000      -0.631780       -17.1916
   9   2.0000      -0.556306       -15.1379
  10   2.0000      -0.464921       -12.6511
  11   2.0000      -0.453868       -12.3504
  12   2.0000      -0.433364       -11.7924
  13   2.0000      -0.404836       -11.0161
  14   2.0000      -0.393678       -10.7125
  15   2.0000      -0.370013       -10.0686
  16   2.0000      -0.335001        -9.1158
  17   2.0000      -0.318213        -8.6590
  18   2.0000      -0.282338        -7.6828
  19   2.0000      -0.229496        -6.2449
  20   2.0000      -0.205448        -5.5905
  21   0.0000       0.063149         1.7184
  22   0.0000       0.091260         2.4833
  23   0.0000       0.118999         3.2381
  24   0.0000       0.134150         3.6504
  25   0.0000       0.148463         4.0399

MULLIKEN ATOMIC CHARGES
-----------------------
   0 C :   -0.309742
   1 O :   -0.315703
   2 C :   -0.162322
   3 C :   -0.208630
   4 N :   -0.647541
   5 H :    0.153996
   6 H :    0.161189
   7 H :    0.152830
   8 H :    0.159736
   9 H :    0.147691
  10 H :    0.140611
  11 H :    0.156518
  12 H :    0.285570
  13 H :    0.285796
Sum of atomic charges:   -0.0000000

LOEWDIN ATOMIC CHARGES
----------------------
   0 C :   -0.076653
   1 O :   -0.824867
   2 C :    0.024449
   3 C :   -0.058878
   4 N :   -0.756362
   5 H :    0.162174
   6 H :    0.178995
   7 H :    0.165847
   8 H :    0.186133
   9 H :    0.170698
  10 H :    0.156437
  11 H :    0.177629
  12 H :    0.247933
  13 H :    0.246466

  Mayer bond orders larger than 0.100000
B(  0-C ,  1-O ) :   0.8826 B(  0-C ,  5-H ) :   0.9560 B(  0-C ,  6-H ) :   0.9677
B(  0-C ,  7-H ) :   0.9629 B(  1-O ,  2-C ) :   0.9176 B(  2-C ,  3-C ) :   0.9064
B(  2-C ,  8-H ) :   0.9621 B(  2-C ,  9-H ) :   0.9592 B(  3-C ,  4-N ) :   0.9644
B(  3-C , 10-H ) :   0.9673 B(  3-C , 11-H ) :   0.9756 B(  4-N , 12-H ) :   0.9002
B(  4-N , 13-H ) :   0.9025

Dispersion correction           -0.002768454
FINAL SINGLE POINT ENERGY      -249.624382562834

DIPOLE MOMENT
-------------

Method             : SCF
Type of density    : Electron Density
Multiplicity       :   1
Irrep              :   0
Energy             :  -249.6342366375174038 Eh
Relativity type    :
Basis              : AO
                                X                 Y                 Z
Electronic contribution:      0.263077970       1.788582239       0.665890784
Nuclear contribution   :     -0.396060608      -3.013261406      -1.273038128
                        -----------------------------------------
Total Dipole Moment    :     -0.132982638      -1.224679166      -0.607147344
                        -----------------------------------------
Magnitude (a.u.)       :      1.373372251
Magnitude (Debye)      :      3.490834842

Rotational constants in cm-1:             0.491779             0.080579             0.075654
Rotational constants in MHz :         14743.165889          2415.689215          2268.043534

                             ****ORCA TERMINATED NORMALLY****
TOTAL RUN TIME: 0 days 0 hours 0 minutes 18 seconds 126 msec
