                         Program Version 6.0.0  -   RELEASE  -
|  1> ! r2scan-3c def2/J RI DEFGRID2 scfconv6 printgap
|  2> %output
|  3>     printlevel normal
|  4> end
|  5> * xyz 0 1
|  6> C -1.3898281853 -1.2552578703 0.6907595242
|  7> C -1.0799170284 -0.3314389848 -0.4854435621
|  8> C -2.3722008721 0.370096063 -0.9164694818
|  9> C 0.0380051835 0.7095075082 -0.248072546
| 10> C -0.2848716011 1.6819313345 0.8878128847
| 11> C 1.4790248388 0.1578270536 -0.1004564623
| 12> C 1.837180179 -0.4147082001 1.271006382
| 13> C 1.8234099505 -0.8589229034 -1.1890748148
| 14> H -0.5667712537 -1.9329409087 0.8939310061
| 15> H -1.6087838378 -0.6891086062 1.5915186305
| 16> H -2.2637259769 -1.8591481993 0.4531680778
| 17> H -0.7622892661 -0.9558031695 -1.3266118128
| 18> H -2.8283608617 0.893563862 -0.080351297
| 19> H -3.0880219045 -0.3620040779 -1.2841562782
| 20> H -2.180185431 1.0863727922 -1.7123443231
| 21> H 0.0645887324 1.3032505685 -1.172687613
| 22> H -1.1764487842 2.2576733456 0.6561835257
| 23> H 0.5389563043 2.3801959281 1.0207210153
| 24> H -0.4467163993 1.1614848666 1.8267465842
| 25> H 2.1322570258 1.0278450575 -0.2524595402
| 26> H 1.6625592021 0.3108651709 2.059335584
| 27> H 1.2715290717 -1.3129272188 1.4943153889
| 28> H 2.8943426714 -0.6740855995 1.2828070862
| 29> H 1.3130519481 -1.8032139227 -1.0172825234
| 30> H 2.8940505839 -1.0520458247 -1.1898216276
| 31> H 1.544562475 -0.4834737985 -2.1712327068
| 32> *
| 33>
| 34>                          ****END OF INPUT****

CARTESIAN COORDINATES (ANGSTROEM)
---------------------------------
  C     -1.389828   -1.255258    0.690760
  C     -1.079917   -0.331439   -0.485444
  C     -2.372201    0.370096   -0.916469
  C      0.038005    0.709508   -0.248073
  C     -0.284872    1.681931    0.887813
  C      1.479025    0.157827   -0.100456
  C      1.837180   -0.414708    1.271006
  C      1.823410   -0.858923   -1.189075
  H     -0.566771   -1.932941    0.893931
  H     -1.608784   -0.689109    1.591519
  H     -2.263726   -1.859148    0.453168
  H     -0.762289   -0.955803   -1.326612
  H     -2.828361    0.893564   -0.080351
  H     -3.088022   -0.362004   -1.284156
  H     -2.180185    1.086373   -1.712344
  H      0.064589    1.303251   -1.172688
  H     -1.176449    2.257673    0.656184
  H      0.538956    2.380196    1.020721
  H     -0.446716    1.161485    1.826747
  H      2.132257    1.027845   -0.252460
  H      1.662559    0.310865    2.059336
  H      1.271529   -1.312927    1.494315
  H      2.894343   -0.674086    1.282807
  H      1.313052   -1.803214   -1.017283
  H      2.894051   -1.052046   -1.189822
  H      1.544562   -0.483474   -2.171233

 Total Charge           Charge          ....    0
 Multiplicity           Mult            ....    1
 Number of Electrons    NEL             ....   66
 Basis Dimension        Dim             ....  242

ORBITAL ENERGIES
----------------

  NO   OCC          E(Eh)            E(eV)
   0   2.0000     -10.029613      -272.9196
   1   2.0000     -10.028730      -272.8956
   2   2.0000     -10.027428      -272.8602
   3   2.0000     -10.012514      -272.4543
   4   2.0000     -10.011881      -272.4371
   5   2.0000     -10.011803      -272.4350
   6   2.0000     -10.011476      -272.4261
   7   2.0000     -10.010152      -272.3901
   8   2.0000      -0.792303       -21.5597
   9   2.0000      -0.741513       -20.1776
  10   2.0000      -0.690065       -18.7776
  11   2.0000      -0.650032       -17.6883
  12   2.0000      -0.643499       -17.5105
  13   2.0000      -0.599553       -16.3147
  14   2.0000      -0.546856       -14.8807
  15   2.0000      -0.486591       -13.2408
  16   2.0000      -0.438641       -11.9360
  17   2.0000      -0.434920       -11.8348
  18   2.0000      -0.414141       -11.2694
  19   2.0000      -0.392190       -10.6720
  20   2.0000      -0.382966       -10.4210
  21   2.0000      -0.365982        -9.9589
  22   2.0000      -0.359142        -9.7728
  23   2.0000      -0.352302        -9.5866
  24   2.0000      -0.348084        -9.4718
  25   2.0000      -0.335689        -9.1346
  26   2.0000      -0.327328        -8.9071
  27   2.0000      -0.314912        -8.5692
  28   2.0000      -0.302777        -8.2390
  29   2.0000      -0.299555        -8.1513
  30   2.0000      -0.274861        -7.4793
  31   2.0000      -0.270536        -7.3616
  32   2.0000      -0.262509        -7.1432
  33   0.0000       0.073084         1.9887
  34   0.0000       0.105023         2.8578
  35   0.0000       0.107849         2.9347
  36   0.0000       0.116759         3.1772
  37   0.0000       0.122929         3.3451

MULLIKEN ATOMIC CHARGES
-----------------------
   0 C :   -0.510703
   1 C :   -0.039343
   2 C :   -0.524689
   3 C :   -0.032289
   4 C :   -0.575372
   5 C :   -0.056862
   6 C :   -0.498600
   7 C :   -0.521005
   8 H :    0.140542
   9 H :    0.161714
  10 H :    0.142024
  11 H :    0.162192
  12 H :    0.158266
  13 H :    0.149196
  14 H :    0.147071
  15 H :    0.159818
  16 H :    0.158286
  17 H :    0.152838
  18 H :    0.166999
  19 H :    0.154314
  20 H :    0.155989
  21 H :    0.148412
  22 H :    0.142545
  23 H :    0.157270
  24 H :    0.148862
  25 H :    0.152524
Sum of atomic charges:   -0.0000000

LOEWDIN ATOMIC CHARGES
----------------------
   0 C :   -0.414154
   1 C :   -0.237468
   2 C :   -0.416665
   3 C :   -0.227693
   4 C :   -0.415506
   5 C :   -0.238124
   6 C :   -0.414851
   7 C :   -0.418395
   8 H :    0.149626
   9 H :    0.154391
  10 H :    0.154021
  11 H :    0.160690
  12 H :    0.153413
  13 H :    0.152144
  14 H :    0.153164
  15 H :    0.162499
  16 H :    0.155309
  17 H :    0.156267
  18 H :    0.153571
  19 H :    0.157523
  20 H :    0.155725
  21 H :    0.151798
  22 H :    0.153193
  23 H :    0.152416
  24 H :    0.153016
  25 H :    0.154091

  Mayer bond orders larger than 0.100000
B(  0-C ,  1-C ) :   0.8811 B(  0-C ,  8-H ) :   0.9711 B(  0-C ,  9-H ) :   0.9892
B(  0-C , 10-H ) :   0.9691 B(  1-C ,  2-C ) :   0.8954 B(  1-C ,  3-C ) :   0.8545
B(  1-C , 11-H ) :   0.9646 B(  2-C , 12-H ) :   0.9870 B(  2-C , 13-H ) :   0.9737
B(  2-C , 14-H ) :   0.9772 B(  3-C ,  4-C ) :   0.8610 B(  3-C ,  5-C ) :   0.8917
B(  3-C , 15-H ) :   0.9886 B(  4-C , 16-H ) :   0.9732 B(  4-C , 17-H ) :   0.9732
B(  4-C , 18-H ) :   0.9855 B(  5-C ,  6-C ) :   0.9127 B(  5-C ,  7-C ) :   0.8759
B(  5-C , 19-H ) :   0.9769 B(  6-C , 20-H ) :   0.9709 B(  6-C , 21-H ) :   0.9809
B(  6-C , 22-H ) :   0.9717 B(  7-C , 23-H ) :   0.9823 B(  7-C , 24-H ) :   0.9717
B(  7-C , 25-H ) :   0.9792

Dispersion correction           -0.008240815
FINAL SINGLE POINT ENERGY      -315.581887543016

DIPOLE MOMENT
-------------

Method             : SCF
Type of density    : Electron Density
Multiplicity       :   1
Irrep              :   0
Energy             :  -315.5867208196893330 Eh
Relativity type    :
Basis              : AO
                                X                 Y                 Z
Electronic contribution:      0.603619687       0.685069452      -1.068046799
Nuclear contribution   :     -0.567968401      -0.659996460       1.005502103
                        -----------------------------------------
Total Dipole Moment    :      0.035651286       0.025072992      -0.062544696
                        -----------------------------------------
Magnitude (a.u.)       :      0.076233248
Magnitude (Debye)      :      0.193769518

Rotational constants in cm-1:             0.085189             0.046186             0.042780
Rotational constants in MHz :          2553.906251          1384.617261          1282.517482

                             ****ORCA TERMINATED NORMALLY****
TOTAL RUN TIME: 0 days 0 hours 0 minutes 28 seconds 19 msec
