                         Program Version 6.0.0  -   RELEASE  -
|  1> ! r2scan-3c def2/J RI DEFGRID2 scfconv6 printgap
|  2> %output
|  3>     printlevel normal
|  4> end
|  5> %cpcm
|  6>     smd true
|  7>     smdsolvent "water"
|  8> end
|  9> * xyz 0 1
| 10> C -1.3898281853 -1.2552578703 0.6907595242
| 11> C -1.0799170284 -0.3314389848 -0.4854435621
| 12> C -2.3722008721 0.370096063 -0.9164694818
| 13> C 0.0380051835 0.7095075082 -0.248072546
| 14> C -0.2848716011 1.6819313345 0.8878128847
| 15> C 1.4790248388 0.1578270536 -0.1004564623
| 16> C 1.837180179 -0.4147082001 1.271006382
| 17> C 1.8234099505 -0.8589229034 -1.1890748148
| 18> H -0.5667712537 -1.9329409087 0.8939310061
| 19> H -1.6087838378 -0.6891086062 1.5915186305
| 20> H -2.2637259769 -1.8591481993 0.4531680778
| 21> H -0.7622892661 -0.9558031695 -1.3266118128
| 22> H -2.8283608617 0.893563862 -0.080351297
| 23> H -3.0880219045 -0.3620040779 -1.2841562782
| 24> H -2.180185431 1.0863727922 -1.7123443231
| 25> H 0.0645887324 1.3032505685 -1.172687613
| 26> H -1.1764487842 2.2576733456 0.6561835257
| 27> H 0.5389563043 2.3801959281 1.0207210153
| 28> H -0.4467163993 1.1614848666 1.8267465842
| 29> H 2.1322570258 1.0278450575 -0.2524595402
| 30> H 1.6625592021 0.3108651709 2.059335584
| 31> H 1.2715290717 -1.3129272188 1.4943153889
| 32> H 2.8943426714 -0.6740855995 1.2828070862
| 33> H 1.3130519481 -1.8032139227 -1.0172825234
| 34> H 2.8940505839 -1.0520458247 -1.1898216276
| 35> H 1.544562475 -0.4834737985 -2.1712327068
| 36> *
| 37>
| 38>                          ****END OF INPUT****

CARTESIAN COORDINATES (ANGSTROEM)
---------------------------------
  C     -1.389828   -1.255258    0.690760
  C     -1.079917   -0.331439   -0.485444
  C     -2.372201    0.370096   -0.916469
  C      0.038005    0.709508   -0.248073
  C     -0.284872    1.681931    0.887813
  C      1.479025    0.157827   -0.100456
  C      1.837180   -0.414708    1.271006
  C      1.823410   -0.858923   -1.189075
  H     -0.566771   -1.932941    0.893931
  H     -1.608784   -0.689109    1.591519
  H     -2.263726   -1.859148    0.453168
  H     -0.762289   -0.955803   -1.326612
  H     -2.828361    0.893564   -0.080351
  H     -3.088022   -0.362004   -1.284156
  H     -2.180185    1.086373   -1.712344
  H      0.064589    1.303251   -1.172688
  H     -1.176449    2.257673    0.656184
  H      0.538956    2.380196    1.020721
  H     -0.446716    1.161485    1.826747
  H      2.132257    1.027845   -0.252460
  H      1.662559    0.310865    2.059336
  H      1.271529   -1.312927    1.494315
  H      2.894343   -0.674086    1.282807
  H      1.313052   -1.803214   -1.017283
  H      2.894051   -1.052046   -1.189822
  H      1.544562   -0.483474   -2.171233

 Total Charge           Charge          ....    0
 Multiplicity           Mult            ....    1
 Number of Electrons    NEL             ....   66
 Basis Dimension        Dim             ....  242

ORBITAL ENERGIES
----------------

  NO   OCC          E(Eh)            E(eV)
   0   2.0000     -10.021628      -272.7024
   1   2.0000     -10.020716      -272.6776
   2   2.0000     -10.018964      -272.6299
   3   2.0000     -10.004281      -272.2303
   4   2.0000     -10.003871      -272.2192
   5   2.0000     -10.003398      -272.2063
   6   2.0000     -10.002997      -272.1954
   7   2.0000     -10.002501      -272.1819
   8   2.0000      -0.784132       -21.3373
   9   2.0000      -0.733689       -19.9647
  10   2.0000      -0.682136       -18.5619
  11   2.0000      -0.642597       -17.4859
  12   2.0000      -0.636136       -17.3102
  13   2.0000      -0.591731       -16.1018
  14   2.0000      -0.539188       -14.6721
  15   2.0000      -0.478695       -13.0259
  16   2.0000      -0.430504       -11.7146
  17   2.0000      -0.426807       -11.6140
  18   2.0000      -0.406358       -11.0576
  19   2.0000      -0.384221       -10.4552
  20   2.0000      -0.375160       -10.2086
  21   2.0000      -0.357939        -9.7400
  22   2.0000      -0.351325        -9.5601
  23   2.0000      -0.344307        -9.3691
  24   2.0000      -0.340367        -9.2619
  25   2.0000      -0.327818        -8.9204
  26   2.0000      -0.319418        -8.6918
  27   2.0000      -0.306632        -8.3439
  28   2.0000      -0.295016        -8.0278
  29   2.0000      -0.291673        -7.9368
  30   2.0000      -0.266755        -7.2588
  31   2.0000      -0.262415        -7.1407
  32   2.0000      -0.254306        -6.9200
  33   0.0000       0.081975         2.2306
  34   0.0000       0.112634         3.0649
  35   0.0000       0.116146         3.1605
  36   0.0000       0.124835         3.3969
  37   0.0000       0.130533         3.5520

MULLIKEN ATOMIC CHARGES
-----------------------
   0 C :   -0.560577
   1 C :   -0.020952
   2 C :   -0.564073
   3 C :   -0.031936
   4 C :   -0.607226
   5 C :   -0.039039
   6 C :   -0.545879
   7 C :   -0.561530
   8 H :    0.156254
   9 H :    0.173040
  10 H :    0.151697
  11 H :    0.166281
  12 H :    0.167351
  13 H :    0.159646
  14 H :    0.157227
  15 H :    0.166571
  16 H :    0.166106
  17 H :    0.161649
  18 H :    0.177386
  19 H :    0.160662
  20 H :    0.164198
  21 H :    0.161162
  22 H :    0.153049
  23 H :    0.168034
  24 H :    0.159292
  25 H :    0.161609
Sum of atomic charges:   -0.0000000

LOEWDIN ATOMIC CHARGES
----------------------
   0 C :   -0.423174
   1 C :   -0.235573
   2 C :   -0.425210
   3 C :   -0.226821
   4 C :   -0.422827
   5 C :   -0.236245
   6 C :   -0.423849
   7 C :   -0.426601
   8 H :    0.153407
   9 H :    0.156728
  10 H :    0.155589
  11 H :    0.161956
  12 H :    0.155507
  13 H :    0.154007
  14 H :    0.155325
  15 H :    0.164598
  16 H :    0.156630
  17 H :    0.157997
  18 H :    0.156416
  19 H :    0.159334
  20 H :    0.157183
  21 H :    0.154550
  22 H :    0.155066
  23 H :    0.155083
  24 H :    0.154748
  25 H :    0.156178

  Mayer bond orders larger than 0.100000
B(  0-C ,  1-C ) :   0.8698 B(  0-C ,  8-H ) :   0.9697 B(  0-C ,  9-H ) :   0.9857
B(  0-C , 10-H ) :   0.9681 B(  1-C ,  2-C ) :   0.8870 B(  1-C ,  3-C ) :   0.8573
B(  1-C , 11-H ) :   0.9664 B(  2-C , 12-H ) :   0.9840 B(  2-C , 13-H ) :   0.9722
B(  2-C , 14-H ) :   0.9755 B(  3-C ,  4-C ) :   0.8612 B(  3-C ,  5-C ) :   0.8942
B(  3-C , 15-H ) :   0.9876 B(  4-C , 16-H ) :   0.9713 B(  4-C , 17-H ) :   0.9715
B(  4-C , 18-H ) :   0.9808 B(  5-C ,  6-C ) :   0.9017 B(  5-C ,  7-C ) :   0.8688
B(  5-C , 19-H ) :   0.9782 B(  6-C , 20-H ) :   0.9691 B(  6-C , 21-H ) :   0.9798
B(  6-C , 22-H ) :   0.9708 B(  7-C , 23-H ) :   0.9800 B(  7-C , 24-H ) :   0.9707
B(  7-C , 25-H ) :   0.9762

Dispersion correction           -0.008240815
FINAL SINGLE POINT ENERGY      -315.577783854090

DIPOLE MOMENT
-------------

Method             : SCF
Type of density    : Electron Density
Multiplicity       :   1
Irrep              :   0
Energy             :  -315.5826171307631398 Eh
Relativity type    :
Basis              : AO
                                X                 Y                 Z
Electronic contribution:      0.617590517       0.687631518      -1.085181519
Nuclear contribution   :     -0.567968401      -0.659996460       1.005502103
                        -----------------------------------------
Total Dipole Moment    :      0.049622116       0.027635058      -0.079679416
                        -----------------------------------------
Magnitude (a.u.)       :      0.097851214
Magnitude (Debye)      :      0.248718021

Rotational constants in cm-1:             0.085189             0.046186             0.042780
Rotational constants in MHz :          2553.906251          1384.617261          1282.517482

                             ****ORCA TERMINATED NORMALLY****
TOTAL RUN TIME: 0 days 0 hours 0 minutes 33 seconds 483 msec
