                         Program Version 6.0.0  -   RELEASE  -
|  1> ! pbe def2-sv(p) def2/J RI DEFGRID1 loosescf d4 GCP(DFT/SV(P)) printgap
|  2> %output
|  3>     printlevel normal
|  4> end
|  5> * xyz 0 1
|  6> C 2.0362483594 -0.965807736 0.1957455312
|  7> C 1.2011643544 0.0872102124 0.9179927793
|  8> C 0.1677557681 0.8201155168 0.0428455008
|  9> H -0.0499199504 1.7774498643 0.5511426067
| 10> C -1.197579736 0.119082112 -0.1466986278
| 11> C -1.0923624394 -1.2588751106 -0.7943012404
| 12> C -1.9777397246 0.0431370816 1.1636927087
| 13> O 0.7769708577 1.1018987626 -1.2063404082
| 14> H 2.4570058337 -0.5411097674 -0.7113894039
| 15> H 1.4487309351 -1.8372125288 -0.0710152644
| 16> H 2.8507100297 -1.285305653 0.8417795364
| 17> H 0.6882313439 -0.3568797988 1.7702168021
| 18> H 1.8864045529 0.8461201636 1.3021021615
| 19> H -1.7642359921 0.7651590501 -0.8312740042
| 20> H -2.0694752268 -1.5759847278 -1.1521025074
| 21> H -0.4065390681 -1.2281323885 -1.6371579491
| 22> H -0.7404763693 -1.9948680189 -0.0768087311
| 23> H -2.9821497409 -0.3261455098 0.9725732151
| 24> H -2.0524374001 1.0243786691 1.6268841317
| 25> H -1.4970287884 -0.6337448102 1.8651107644
| 26> H 0.1759969101 1.6403527874 -1.7372616131
| 27> *
| 28>
| 29>                          ****END OF INPUT****

CARTESIAN COORDINATES (ANGSTROEM)
---------------------------------
  C      2.036248   -0.965808    0.195746
  C      1.201164    0.087210    0.917993
  C      0.167756    0.820116    0.042846
  H     -0.049920    1.777450    0.551143
  C     -1.197580    0.119082   -0.146699
  C     -1.092362   -1.258875   -0.794301
  C     -1.977740    0.043137    1.163693
  O      0.776971    1.101899   -1.206340
  H      2.457006   -0.541110   -0.711389
  H      1.448731   -1.837213   -0.071015
  H      2.850710   -1.285306    0.841780
  H      0.688231   -0.356880    1.770217
  H      1.886405    0.846120    1.302102
  H     -1.764236    0.765159   -0.831274
  H     -2.069475   -1.575985   -1.152103
  H     -0.406539   -1.228132   -1.637158
  H     -0.740476   -1.994868   -0.076809
  H     -2.982150   -0.326146    0.972573
  H     -2.052437    1.024379    1.626884
  H     -1.497029   -0.633745    1.865111
  H      0.175997    1.640353   -1.737262

 Total Charge           Charge          ....    0
 Multiplicity           Mult            ....    1
 Number of Electrons    NEL             ....   58
 Basis Dimension        Dim             ....  126

ORBITAL ENERGIES
----------------

  NO   OCC          E(Eh)            E(eV)
   0   2.0000     -18.740293      -509.9493
   1   2.0000      -9.932547      -270.2784
   2   2.0000      -9.893917      -269.2272
   3   2.0000      -9.879189      -268.8264
   4   2.0000      -9.875314      -268.7210
   5   2.0000      -9.868979      -268.5486
   6   2.0000      -9.861193      -268.3367
   7   2.0000      -0.917560       -24.9681
   8   2.0000      -0.724626       -19.7181
   9   2.0000      -0.678939       -18.4749
  10   2.0000      -0.612203       -16.6589
  11   2.0000      -0.596904       -16.2426
  12   2.0000      -0.532370       -14.4865
  13   2.0000      -0.497012       -13.5244
  14   2.0000      -0.446353       -12.1459
  15   2.0000      -0.430259       -11.7080
  16   2.0000      -0.394189       -10.7264
  17   2.0000      -0.374514       -10.1911
  18   2.0000      -0.367929       -10.0119
  19   2.0000      -0.354035        -9.6338
  20   2.0000      -0.340990        -9.2788
  21   2.0000      -0.327695        -8.9170
  22   2.0000      -0.317969        -8.6524
  23   2.0000      -0.302397        -8.2286
  24   2.0000      -0.297728        -8.1016
  25   2.0000      -0.282142        -7.6775
  26   2.0000      -0.280248        -7.6259
  27   2.0000      -0.257917        -7.0183
  28   2.0000      -0.209850        -5.7103
  29   0.0000       0.019164         0.5215
  30   0.0000       0.048660         1.3241
  31   0.0000       0.063457         1.7267
  32   0.0000       0.071171         1.9367
  33   0.0000       0.084884         2.3098

MULLIKEN ATOMIC CHARGES
-----------------------
   0 C :   -0.280090
   1 C :   -0.175807
   2 C :    0.070394
   3 H :    0.049243
   4 C :   -0.185765
   5 C :   -0.245887
   6 C :   -0.256761
   7 O :   -0.417489
   8 H :    0.116839
   9 H :    0.098577
  10 H :    0.095028
  11 H :    0.086950
  12 H :    0.084106
  13 H :    0.052302
  14 H :    0.094387
  15 H :    0.108289
  16 H :    0.106856
  17 H :    0.099663
  18 H :    0.097209
  19 H :    0.106406
  20 H :    0.295551
Sum of atomic charges:   -0.0000000

LOEWDIN ATOMIC CHARGES
----------------------
   0 C :   -0.345580
   1 C :   -0.235502
   2 C :   -0.045596
   3 H :    0.093326
   4 C :   -0.170656
   5 C :   -0.333980
   6 C :   -0.330677
   7 O :   -0.325008
   8 H :    0.125458
   9 H :    0.114837
  10 H :    0.116759
  11 H :    0.117992
  12 H :    0.121321
  13 H :    0.106808
  14 H :    0.117445
  15 H :    0.120085
  16 H :    0.116984
  17 H :    0.120594
  18 H :    0.116308
  19 H :    0.117150
  20 H :    0.281931

  Mayer bond orders larger than 0.100000
B(  0-C ,  1-C ) :   1.1666 B(  0-C ,  8-H ) :   0.9428 B(  0-C ,  9-H ) :   0.9454
B(  0-C , 10-H ) :   0.9498 B(  1-C ,  2-C ) :   1.0647 B(  1-C , 11-H ) :   0.9232
B(  1-C , 12-H ) :   0.9158 B(  2-C ,  3-H ) :   0.9041 B(  2-C ,  4-C ) :   1.0287
B(  2-C ,  7-O ) :   1.0489 B(  4-C ,  5-C ) :   1.1142 B(  4-C ,  6-C ) :   1.1009
B(  4-C , 13-H ) :   0.8916 B(  5-C , 14-H ) :   0.9458 B(  5-C , 15-H ) :   0.9368
B(  5-C , 16-H ) :   0.9406 B(  6-C , 17-H ) :   0.9466 B(  6-C , 18-H ) :   0.9478
B(  6-C , 19-H ) :   0.9414 B(  7-O , 20-H ) :   0.8484

Dispersion correction           -0.017253151
FINAL SINGLE POINT ENERGY      -311.514929236365

DIPOLE MOMENT
-------------

Method             : SCF
Type of density    : Electron Density
Multiplicity       :   1
Irrep              :   0
Energy             :  -311.5943957833148943 Eh
Relativity type    :
Basis              : AO
                                X                 Y                 Z
Electronic contribution:      1.388398478       3.721272356      -2.483184279
Nuclear contribution   :     -1.916566859      -3.479171797       2.527146806
                        -----------------------------------------
Total Dipole Moment    :     -0.528168382       0.242100559       0.043962526
                        -----------------------------------------
Magnitude (a.u.)       :      0.582672484
Magnitude (Debye)      :      1.481035755

Rotational constants in cm-1:             0.106614             0.061839             0.058504
Rotational constants in MHz :          3196.216613          1853.877467          1753.905835

                             ****ORCA TERMINATED NORMALLY****
TOTAL RUN TIME: 0 days 0 hours 0 minutes 9 seconds 209 msec
