                         Program Version 6.0.0  -   RELEASE  -
|  1> ! r2scan-3c def2/J RI DEFGRID2 scfconv6 printgap
|  2> %output
|  3>     printlevel normal
|  4> end
|  5> * xyz 0 1
|  6> C -3.0180726277 0.2506339379 0.724588311
|  7> C -2.2857148515 0.213684299 -0.6121104894
|  8> C -1.0672920438 -0.7119194681 -0.6078938104
|  9> C 0.069806137 -0.2513380546 0.3054581841
| 10> C 1.2679228896 -1.2297122758 0.2758094281
| 11> C 2.469889519 -0.4187544291 -0.217798146
| 12> C 2.1413826697 1.007929347 0.2090045475
| 13> C 0.6516197656 1.1125993649 -0.1035216335
| 14> H -3.2926231137 -0.7549210158 1.0357796938
| 15> H -2.3967660164 0.693132052 1.4986693228
| 16> H -3.9255497031 0.8438659215 0.6400409037
| 17> H -2.9780158371 -0.1370068096 -1.3813938001
| 18> H -1.9767602203 1.2243045506 -0.8841202461
| 19> H -1.3867397296 -1.7097801082 -0.2962243035
| 20> H -0.6835346348 -0.7903592237 -1.6284970732
| 21> H -0.3095127156 -0.1887273228 1.3281772602
| 22> H 1.4632679725 -1.613764427 1.2773550902
| 23> H 1.0696926108 -2.0824564143 -0.3726239649
| 24> H 3.4103668503 -0.7781581422 0.1972378593
| 25> H 2.5349629726 -0.4673034267 -1.305859601
| 26> H 2.3095108923 1.1246793531 1.2809409511
| 27> H 2.7341662458 1.7542572828 -0.3181595256
| 28> H 0.174424029 1.9394421377 0.4204974053
| 29> H 0.5176977066 1.2630882759 -1.1764569376
| 30> *
| 31>
| 32>                          ****END OF INPUT****

CARTESIAN COORDINATES (ANGSTROEM)
---------------------------------
  C     -3.018073    0.250634    0.724588
  C     -2.285715    0.213684   -0.612110
  C     -1.067292   -0.711919   -0.607894
  C      0.069806   -0.251338    0.305458
  C      1.267923   -1.229712    0.275809
  C      2.469890   -0.418754   -0.217798
  C      2.141383    1.007929    0.209005
  C      0.651620    1.112599   -0.103522
  H     -3.292623   -0.754921    1.035780
  H     -2.396766    0.693132    1.498669
  H     -3.925550    0.843866    0.640041
  H     -2.978016   -0.137007   -1.381394
  H     -1.976760    1.224305   -0.884120
  H     -1.386740   -1.709780   -0.296224
  H     -0.683535   -0.790359   -1.628497
  H     -0.309513   -0.188727    1.328177
  H      1.463268   -1.613764    1.277355
  H      1.069693   -2.082456   -0.372624
  H      3.410367   -0.778158    0.197238
  H      2.534963   -0.467303   -1.305860
  H      2.309511    1.124679    1.280941
  H      2.734166    1.754257   -0.318160
  H      0.174424    1.939442    0.420497
  H      0.517698    1.263088   -1.176457

 Total Charge           Charge          ....    0
 Multiplicity           Mult            ....    1
 Number of Electrons    NEL             ....   64
 Basis Dimension        Dim             ....  232

ORBITAL ENERGIES
----------------

  NO   OCC          E(Eh)            E(eV)
   0   2.0000     -10.023591      -272.7558
   1   2.0000     -10.020222      -272.6641
   2   2.0000     -10.018484      -272.6168
   3   2.0000     -10.018034      -272.6046
   4   2.0000     -10.017896      -272.6008
   5   2.0000     -10.016963      -272.5754
   6   2.0000     -10.015844      -272.5450
   7   2.0000     -10.012853      -272.4636
   8   2.0000      -0.805210       -21.9109
   9   2.0000      -0.749266       -20.3886
  10   2.0000      -0.685124       -18.6432
  11   2.0000      -0.670990       -18.2586
  12   2.0000      -0.622019       -16.9260
  13   2.0000      -0.552978       -15.0473
  14   2.0000      -0.532148       -14.4805
  15   2.0000      -0.506664       -13.7870
  16   2.0000      -0.451798       -12.2940
  17   2.0000      -0.435320       -11.8457
  18   2.0000      -0.418483       -11.3875
  19   2.0000      -0.399439       -10.8693
  20   2.0000      -0.381445       -10.3796
  21   2.0000      -0.369679       -10.0595
  22   2.0000      -0.361136        -9.8270
  23   2.0000      -0.325773        -8.8647
  24   2.0000      -0.312165        -8.4944
  25   2.0000      -0.307327        -8.3628
  26   2.0000      -0.300767        -8.1843
  27   2.0000      -0.298259        -8.1160
  28   2.0000      -0.290570        -7.9068
  29   2.0000      -0.277082        -7.5398
  30   2.0000      -0.276474        -7.5232
  31   2.0000      -0.266312        -7.2467
  32   0.0000       0.081123         2.2075
  33   0.0000       0.092074         2.5055
  34   0.0000       0.102625         2.7926
  35   0.0000       0.115020         3.1299
  36   0.0000       0.128752         3.5035

MULLIKEN ATOMIC CHARGES
-----------------------
   0 C :   -0.497965
   1 C :   -0.207328
   2 C :   -0.368651
   3 C :    0.021050
   4 C :   -0.392066
   5 C :   -0.300586
   6 C :   -0.246189
   7 C :   -0.421683
   8 H :    0.145211
   9 H :    0.149413
  10 H :    0.145931
  11 H :    0.142601
  12 H :    0.140498
  13 H :    0.148723
  14 H :    0.148176
  15 H :    0.164245
  16 H :    0.153937
  17 H :    0.155955
  18 H :    0.149423
  19 H :    0.151604
  20 H :    0.145984
  21 H :    0.150855
  22 H :    0.157368
  23 H :    0.163494
Sum of atomic charges:    0.0000000

LOEWDIN ATOMIC CHARGES
----------------------
   0 C :   -0.426803
   1 C :   -0.315166
   2 C :   -0.303326
   3 C :   -0.227955
   4 C :   -0.298454
   5 C :   -0.302936
   6 C :   -0.301691
   7 C :   -0.301965
   8 H :    0.150121
   9 H :    0.148012
  10 H :    0.150257
  11 H :    0.151217
  12 H :    0.153658
  13 H :    0.155991
  14 H :    0.156810
  15 H :    0.159612
  16 H :    0.156895
  17 H :    0.159708
  18 H :    0.155291
  19 H :    0.154065
  20 H :    0.155434
  21 H :    0.155103
  22 H :    0.157617
  23 H :    0.158502

  Mayer bond orders larger than 0.100000
B(  0-C ,  1-C ) :   0.8960 B(  0-C ,  8-H ) :   0.9823 B(  0-C ,  9-H ) :   0.9828
B(  0-C , 10-H ) :   0.9711 B(  1-C ,  2-C ) :   0.8886 B(  1-C , 11-H ) :   0.9698
B(  1-C , 12-H ) :   0.9698 B(  2-C ,  3-C ) :   0.8880 B(  2-C , 13-H ) :   0.9964
B(  2-C , 14-H ) :   0.9851 B(  3-C ,  4-C ) :   0.9164 B(  3-C ,  7-C ) :   0.8817
B(  3-C , 15-H ) :   0.9617 B(  4-C ,  5-C ) :   0.9292 B(  4-C , 16-H ) :   0.9801
B(  4-C , 17-H ) :   0.9831 B(  5-C ,  6-C ) :   0.8988 B(  5-C , 18-H ) :   0.9539
B(  5-C , 19-H ) :   0.9948 B(  6-C ,  7-C ) :   0.8850 B(  6-C , 20-H ) :   0.9834
B(  6-C , 21-H ) :   0.9598 B(  7-C , 22-H ) :   0.9507 B(  7-C , 23-H ) :   1.0076

Dispersion correction           -0.007065380
FINAL SINGLE POINT ENERGY      -314.382177799492

DIPOLE MOMENT
-------------

Method             : SCF
Type of density    : Electron Density
Multiplicity       :   1
Irrep              :   0
Energy             :  -314.3853265110876691 Eh
Relativity type    :
Basis              : AO
                                X                 Y                 Z
Electronic contribution:      2.565040468      -0.290571820      -0.291194147
Nuclear contribution   :     -2.566263084       0.300486757       0.295861943
                        -----------------------------------------
Total Dipole Moment    :     -0.001222616       0.009914937       0.004667796
                        -----------------------------------------
Magnitude (a.u.)       :      0.011026744
Magnitude (Debye)      :      0.028027757

Rotational constants in cm-1:             0.144899             0.036879             0.033623
Rotational constants in MHz :          4343.975881          1105.601039          1007.989809

                             ****ORCA TERMINATED NORMALLY****
TOTAL RUN TIME: 0 days 0 hours 0 minutes 25 seconds 639 msec
