                         Program Version 6.0.0  -   RELEASE  -
|  1> ! r2scan-3c def2/J RI DEFGRID2 scfconv6 printgap
|  2> %output
|  3>     printlevel normal
|  4> end
|  5> %cpcm
|  6>     smd true
|  7>     smdsolvent "water"
|  8> end
|  9> * xyz 0 1
| 10> C -3.0180726277 0.2506339379 0.724588311
| 11> C -2.2857148515 0.213684299 -0.6121104894
| 12> C -1.0672920438 -0.7119194681 -0.6078938104
| 13> C 0.069806137 -0.2513380546 0.3054581841
| 14> C 1.2679228896 -1.2297122758 0.2758094281
| 15> C 2.469889519 -0.4187544291 -0.217798146
| 16> C 2.1413826697 1.007929347 0.2090045475
| 17> C 0.6516197656 1.1125993649 -0.1035216335
| 18> H -3.2926231137 -0.7549210158 1.0357796938
| 19> H -2.3967660164 0.693132052 1.4986693228
| 20> H -3.9255497031 0.8438659215 0.6400409037
| 21> H -2.9780158371 -0.1370068096 -1.3813938001
| 22> H -1.9767602203 1.2243045506 -0.8841202461
| 23> H -1.3867397296 -1.7097801082 -0.2962243035
| 24> H -0.6835346348 -0.7903592237 -1.6284970732
| 25> H -0.3095127156 -0.1887273228 1.3281772602
| 26> H 1.4632679725 -1.613764427 1.2773550902
| 27> H 1.0696926108 -2.0824564143 -0.3726239649
| 28> H 3.4103668503 -0.7781581422 0.1972378593
| 29> H 2.5349629726 -0.4673034267 -1.305859601
| 30> H 2.3095108923 1.1246793531 1.2809409511
| 31> H 2.7341662458 1.7542572828 -0.3181595256
| 32> H 0.174424029 1.9394421377 0.4204974053
| 33> H 0.5176977066 1.2630882759 -1.1764569376
| 34> *
| 35>
| 36>                          ****END OF INPUT****

CARTESIAN COORDINATES (ANGSTROEM)
---------------------------------
  C     -3.018073    0.250634    0.724588
  C     -2.285715    0.213684   -0.612110
  C     -1.067292   -0.711919   -0.607894
  C      0.069806   -0.251338    0.305458
  C      1.267923   -1.229712    0.275809
  C      2.469890   -0.418754   -0.217798
  C      2.141383    1.007929    0.209005
  C      0.651620    1.112599   -0.103522
  H     -3.292623   -0.754921    1.035780
  H     -2.396766    0.693132    1.498669
  H     -3.925550    0.843866    0.640041
  H     -2.978016   -0.137007   -1.381394
  H     -1.976760    1.224305   -0.884120
  H     -1.386740   -1.709780   -0.296224
  H     -0.683535   -0.790359   -1.628497
  H     -0.309513   -0.188727    1.328177
  H      1.463268   -1.613764    1.277355
  H      1.069693   -2.082456   -0.372624
  H      3.410367   -0.778158    0.197238
  H      2.534963   -0.467303   -1.305860
  H      2.309511    1.124679    1.280941
  H      2.734166    1.754257   -0.318160
  H      0.174424    1.939442    0.420497
  H      0.517698    1.263088   -1.176457

 Total Charge           Charge          ....    0
 Multiplicity           Mult            ....    1
 Number of Electrons    NEL             ....   64
 Basis Dimension        Dim             ....  232

ORBITAL ENERGIES
----------------

  NO   OCC          E(Eh)            E(eV)
   0   2.0000     -10.016276      -272.5567
   1   2.0000     -10.013726      -272.4873
   2   2.0000     -10.011689      -272.4319
   3   2.0000     -10.011339      -272.4224
   4   2.0000     -10.010787      -272.4074
   5   2.0000     -10.009487      -272.3720
   6   2.0000     -10.009183      -272.3637
   7   2.0000     -10.006097      -272.2797
   8   2.0000      -0.798355       -21.7244
   9   2.0000      -0.742767       -20.2117
  10   2.0000      -0.678623       -18.4663
  11   2.0000      -0.664456       -18.0808
  12   2.0000      -0.615559       -16.7502
  13   2.0000      -0.546598       -14.8737
  14   2.0000      -0.525713       -14.3054
  15   2.0000      -0.499806       -13.6004
  16   2.0000      -0.444975       -12.1084
  17   2.0000      -0.428731       -11.6664
  18   2.0000      -0.411619       -11.2007
  19   2.0000      -0.392936       -10.6923
  20   2.0000      -0.374411       -10.1882
  21   2.0000      -0.362993        -9.8775
  22   2.0000      -0.354328        -9.6418
  23   2.0000      -0.319152        -8.6846
  24   2.0000      -0.305545        -8.3143
  25   2.0000      -0.300541        -8.1781
  26   2.0000      -0.294344        -8.0095
  27   2.0000      -0.291874        -7.9423
  28   2.0000      -0.283298        -7.7089
  29   2.0000      -0.270026        -7.3478
  30   2.0000      -0.269637        -7.3372
  31   2.0000      -0.259192        -7.0530
  32   0.0000       0.089162         2.4262
  33   0.0000       0.099159         2.6982
  34   0.0000       0.109969         2.9924
  35   0.0000       0.121134         3.2962
  36   0.0000       0.134068         3.6482

MULLIKEN ATOMIC CHARGES
-----------------------
   0 C :   -0.534100
   1 C :   -0.222461
   2 C :   -0.378408
   3 C :    0.020645
   4 C :   -0.408902
   5 C :   -0.317075
   6 C :   -0.267330
   7 C :   -0.435788
   8 H :    0.155530
   9 H :    0.160983
  10 H :    0.155330
  11 H :    0.150026
  12 H :    0.146799
  13 H :    0.155266
  14 H :    0.155557
  15 H :    0.173038
  16 H :    0.161896
  17 H :    0.162078
  18 H :    0.156878
  19 H :    0.160071
  20 H :    0.155356
  21 H :    0.158120
  22 H :    0.165093
  23 H :    0.171397
Sum of atomic charges:    0.0000000

LOEWDIN ATOMIC CHARGES
----------------------
   0 C :   -0.435187
   1 C :   -0.318157
   2 C :   -0.305972
   3 C :   -0.227393
   4 C :   -0.302655
   5 C :   -0.307381
   6 C :   -0.306414
   7 C :   -0.304724
   8 H :    0.152506
   9 H :    0.151054
  10 H :    0.152148
  11 H :    0.152778
  12 H :    0.154776
  13 H :    0.157351
  14 H :    0.158733
  15 H :    0.162023
  16 H :    0.158671
  17 H :    0.160708
  18 H :    0.156711
  19 H :    0.156210
  20 H :    0.157585
  21 H :    0.156615
  22 H :    0.159322
  23 H :    0.160692

  Mayer bond orders larger than 0.100000
B(  0-C ,  1-C ) :   0.8890 B(  0-C ,  8-H ) :   0.9797 B(  0-C ,  9-H ) :   0.9794
B(  0-C , 10-H ) :   0.9690 B(  1-C ,  2-C ) :   0.8836 B(  1-C , 11-H ) :   0.9700
B(  1-C , 12-H ) :   0.9713 B(  2-C ,  3-C ) :   0.8870 B(  2-C , 13-H ) :   0.9947
B(  2-C , 14-H ) :   0.9834 B(  3-C ,  4-C ) :   0.9123 B(  3-C ,  7-C ) :   0.8817
B(  3-C , 15-H ) :   0.9618 B(  4-C ,  5-C ) :   0.9251 B(  4-C , 16-H ) :   0.9791
B(  4-C , 17-H ) :   0.9827 B(  5-C ,  6-C ) :   0.8965 B(  5-C , 18-H ) :   0.9529
B(  5-C , 19-H ) :   0.9923 B(  6-C ,  7-C ) :   0.8829 B(  6-C , 20-H ) :   0.9823
B(  6-C , 21-H ) :   0.9582 B(  7-C , 22-H ) :   0.9500 B(  7-C , 23-H ) :   1.0052

Dispersion correction           -0.007065380
FINAL SINGLE POINT ENERGY      -314.379456400013

DIPOLE MOMENT
-------------

Method             : SCF
Type of density    : Electron Density
Multiplicity       :   1
Irrep              :   0
Energy             :  -314.3826051116080862 Eh
Relativity type    :
Basis              : AO
                                X                 Y                 Z
Electronic contribution:      2.556483952      -0.285895504      -0.287555802
Nuclear contribution   :     -2.566263084       0.300486757       0.295861943
                        -----------------------------------------
Total Dipole Moment    :     -0.009779132       0.014591253       0.008306141
                        -----------------------------------------
Magnitude (a.u.)       :      0.019430082
Magnitude (Debye)      :      0.049387344

Rotational constants in cm-1:             0.144899             0.036879             0.033623
Rotational constants in MHz :          4343.975881          1105.601039          1007.989809

                             ****ORCA TERMINATED NORMALLY****
TOTAL RUN TIME: 0 days 0 hours 0 minutes 30 seconds 275 msec
