                         Program Version 6.0.0  -   RELEASE  -
|  1> ! pbe def2-sv(p) def2/J RI DEFGRID1 loosescf d4 GCP(DFT/SV(P)) printgap
|  2> %output
|  3>     printlevel normal
|  4> end
|  5> * xyz 0 1
|  6> C -2.0345741265 1.1691249654 0.7990806437
|  7> C -1.9619706208 -0.0864052319 -0.058471038
|  8> C -0.5623231231 -0.5155152173 -0.4159368153
|  9> O -0.3138073394 -1.4711629394 -1.1284714692
| 10> O 0.3755164624 0.2437073553 0.1234650801
| 11> C 1.7472250514 -0.0865820439 -0.1477798734
| 12> C 2.6241907319 0.7126414159 0.7967149373
| 13> H -1.5770523092 2.0097447731 0.2853704065
| 14> H -3.0732920657 1.4087313183 1.0069325065
| 15> H -1.5138786753 1.0200151659 1.7404343727
| 16> H -2.500867075 0.0501253355 -0.9986021555
| 17> H -2.4290459243 -0.9323302589 0.4512570212
| 18> H 1.8779543947 -1.1656806168 -0.0147876412
| 19> H 1.9569970318 0.1552035652 -1.1948699325
| 20> H 3.6663507912 0.489267186 0.5937360501
| 21> H 2.4502782054 1.7750053483 0.6548277671
| 22> H 2.3968249726 0.4545876057 1.8268230285
| 23> *
| 24>
| 25>                          ****END OF INPUT****

CARTESIAN COORDINATES (ANGSTROEM)
---------------------------------
  C     -2.034574    1.169125    0.799081
  C     -1.961971   -0.086405   -0.058471
  C     -0.562323   -0.515515   -0.415937
  O     -0.313807   -1.471163   -1.128471
  O      0.375516    0.243707    0.123465
  C      1.747225   -0.086582   -0.147780
  C      2.624191    0.712641    0.796715
  H     -1.577052    2.009745    0.285370
  H     -3.073292    1.408731    1.006933
  H     -1.513879    1.020015    1.740434
  H     -2.500867    0.050125   -0.998602
  H     -2.429046   -0.932330    0.451257
  H      1.877954   -1.165681   -0.014788
  H      1.956997    0.155204   -1.194870
  H      3.666351    0.489267    0.593736
  H      2.450278    1.775005    0.654828
  H      2.396825    0.454588    1.826823

 Total Charge           Charge          ....    0
 Multiplicity           Mult            ....    1
 Number of Electrons    NEL             ....   56
 Basis Dimension        Dim             ....  118

ORBITAL ENERGIES
----------------

  NO   OCC          E(Eh)            E(eV)
   0   2.0000     -18.799063      -511.5485
   1   2.0000     -18.727333      -509.5966
   2   2.0000     -10.000643      -272.1313
   3   2.0000      -9.946440      -270.6564
   4   2.0000      -9.898242      -269.3449
   5   2.0000      -9.889301      -269.1016
   6   2.0000      -9.880068      -268.8503
   7   2.0000      -1.005184       -27.3524
   8   2.0000      -0.903293       -24.5799
   9   2.0000      -0.722292       -19.6546
  10   2.0000      -0.687382       -18.7046
  11   2.0000      -0.597260       -16.2523
  12   2.0000      -0.565147       -15.3784
  13   2.0000      -0.508299       -13.8315
  14   2.0000      -0.450350       -12.2546
  15   2.0000      -0.435833       -11.8596
  16   2.0000      -0.414043       -11.2667
  17   2.0000      -0.398952       -10.8560
  18   2.0000      -0.364895        -9.9293
  19   2.0000      -0.362769        -9.8714
  20   2.0000      -0.356376        -9.6975
  21   2.0000      -0.340874        -9.2757
  22   2.0000      -0.325899        -8.8682
  23   2.0000      -0.321016        -8.7353
  24   2.0000      -0.301484        -8.2038
  25   2.0000      -0.296172        -8.0592
  26   2.0000      -0.253966        -6.9108
  27   2.0000      -0.211544        -5.7564
  28   0.0000      -0.016456        -0.4478
  29   0.0000       0.035127         0.9559
  30   0.0000       0.051816         1.4100
  31   0.0000       0.080265         2.1841
  32   0.0000       0.085041         2.3141

MULLIKEN ATOMIC CHARGES
-----------------------
   0 C :   -0.254087
   1 C :   -0.207066
   2 C :    0.117566
   3 O :   -0.222848
   4 O :   -0.236028
   5 C :   -0.030124
   6 C :   -0.275056
   7 H :    0.105749
   8 H :    0.100913
   9 H :    0.106198
  10 H :    0.119682
  11 H :    0.120245
  12 H :    0.109502
  13 H :    0.104583
  14 H :    0.111625
  15 H :    0.114535
  16 H :    0.114612
Sum of atomic charges:   -0.0000000

LOEWDIN ATOMIC CHARGES
----------------------
   0 C :   -0.342933
   1 C :   -0.256376
   2 C :    0.032197
   3 O :   -0.179022
   4 O :   -0.062072
   5 C :   -0.108375
   6 C :   -0.351003
   7 H :    0.121444
   8 H :    0.120723
   9 H :    0.121517
  10 H :    0.142985
  11 H :    0.143858
  12 H :    0.117770
  13 H :    0.116290
  14 H :    0.130481
  15 H :    0.126285
  16 H :    0.126231

  Mayer bond orders larger than 0.100000
B(  0-C ,  1-C ) :   1.1538 B(  0-C ,  7-H ) :   0.9557 B(  0-C ,  8-H ) :   0.9443
B(  0-C ,  9-H ) :   0.9539 B(  1-C ,  2-C ) :   1.0402 B(  1-C , 10-H ) :   0.9059
B(  1-C , 11-H ) :   0.9022 B(  2-C ,  3-O ) :   2.0385 B(  2-C ,  4-O ) :   1.2310
B(  4-O ,  5-C ) :   0.9074 B(  5-C ,  6-C ) :   1.1511 B(  5-C , 12-H ) :   0.9261
B(  5-C , 13-H ) :   0.9351 B(  6-C , 14-H ) :   0.9445 B(  6-C , 15-H ) :   0.9490
B(  6-C , 16-H ) :   0.9513

Dispersion correction           -0.011751027
FINAL SINGLE POINT ENERGY      -346.243510073208

DIPOLE MOMENT
-------------

Method             : SCF
Type of density    : Electron Density
Multiplicity       :   1
Irrep              :   0
Energy             :  -346.3083993075583180 Eh
Relativity type    :
Basis              : AO
                                X                 Y                 Z
Electronic contribution:     -0.949911328      -4.310232017      -3.597704945
Nuclear contribution   :      1.177629272       4.920941730       4.067179027
                        -----------------------------------------
Total Dipole Moment    :      0.227717943       0.610709712       0.469474082
                        -----------------------------------------
Magnitude (a.u.)       :      0.803260685
Magnitude (Debye)      :      2.041726403

Rotational constants in cm-1:             0.137551             0.058055             0.042222
Rotational constants in MHz :          4123.678958          1740.447295          1265.779835

                             ****ORCA TERMINATED NORMALLY****
TOTAL RUN TIME: 0 days 0 hours 0 minutes 7 seconds 959 msec
