                         Program Version 6.0.0  -   RELEASE  -
|  1> ! wb97x-v def2-tzvp def2/J RIJCOSX DEFGRID2 scfconv7 GCP(DFT/TZ) printgap
|  2> %output
|  3>     printlevel normal
|  4> end
|  5> * xyz 0 1
|  6> C 2.17891949303097 -1.02527947171823 -0.589271007512221
|  7> C 1.2057782128394086 -0.19700301879403104 0.2288051906950096
|  8> C 1.7700055769102794 1.1732797612152763 0.5779956537366691
|  9> O 0.0029857675680030255 -0.05274606720840639 -0.5611189276108854
| 10> C -1.2023168044742332 0.10424666462991983 0.22199652152547966
| 11> C -2.1802909436089375 0.9005735760122923 -0.6216493318192611
| 12> C -1.7570039453151731 -1.260248444789947 0.6079725574709897
| 13> H 3.120202440362025 -1.1497274749964004 -0.045549707673383656
| 14> H 1.766001142637484 -2.0166243797455903 -0.7996882655399233
| 15> H 2.3963785477148654 -0.5274484508018796 -1.5407690259681532
| 16> H 0.9597966510744662 -0.7384150442383828 1.1538384086816074
| 17> H 2.65018861173039 1.0699081814042422 1.22124171822509
| 18> H 1.032416651168661 1.7817971820137182 1.1108101975394769
| 19> H 2.067637253945271 1.702916241045245 -0.3337236981520229
| 20> H -0.9628155955734727 0.6739976007256369 1.1318273615983836
| 21> H -2.3883800938245283 0.3754595340486411 -1.5604726173477343
| 22> H -3.1253121653579954 1.0287403242090194 -0.08520769937791357
| 23> H -1.7775376703393904 1.8905880719933719 -0.8564635641844487
| 24> H -2.046454979693878 -1.8174673881726975 -0.28996752263424136
| 25> H -2.6404330119371378 -1.1467304229071418 1.2449305108942577
| 26> H -1.0167847898807598 -1.8479333171651495 1.1599958207720769
| 27> *
| 28>
| 29>                          ****END OF INPUT****

CARTESIAN COORDINATES (ANGSTROEM)
---------------------------------
  C      2.178919   -1.025279   -0.589271
  C      1.205778   -0.197003    0.228805
  C      1.770006    1.173280    0.577996
  O      0.002986   -0.052746   -0.561119
  C     -1.202317    0.104247    0.221997
  C     -2.180291    0.900574   -0.621649
  C     -1.757004   -1.260248    0.607973
  H      3.120202   -1.149727   -0.045550
  H      1.766001   -2.016624   -0.799688
  H      2.396379   -0.527448   -1.540769
  H      0.959797   -0.738415    1.153838
  H      2.650189    1.069908    1.221242
  H      1.032417    1.781797    1.110810
  H      2.067637    1.702916   -0.333724
  H     -0.962816    0.673998    1.131827
  H     -2.388380    0.375460   -1.560473
  H     -3.125312    1.028740   -0.085208
  H     -1.777538    1.890588   -0.856464
  H     -2.046455   -1.817467   -0.289968
  H     -2.640433   -1.146730    1.244931
  H     -1.016785   -1.847933    1.159996

 Total Charge           Charge          ....    0
 Multiplicity           Mult            ....    1
 Number of Electrons    NEL             ....   58
 Basis Dimension        Dim             ....  301

ORBITAL ENERGIES
----------------

  NO   OCC          E(Eh)            E(eV)
   0   2.0000     -21.659663      -589.3894
   1   2.0000     -12.094090      -329.0969
   2   2.0000     -12.093860      -329.0907
   3   2.0000     -12.032965      -327.4336
   4   2.0000     -12.032932      -327.4327
   5   2.0000     -12.031206      -327.3858
   6   2.0000     -12.031151      -327.3843
   7   2.0000      -1.661589       -45.2141
   8   2.0000      -1.315740       -35.8031
   9   2.0000      -1.267057       -34.4784
  10   2.0000      -1.183088       -32.1935
  11   2.0000      -1.180451       -32.1217
  12   2.0000      -1.111967       -30.2582
  13   2.0000      -1.058021       -28.7902
  14   2.0000      -0.977536       -26.6001
  15   2.0000      -0.939957       -25.5775
  16   2.0000      -0.934558       -25.4306
  17   2.0000      -0.874248       -23.7895
  18   2.0000      -0.863897       -23.5078
  19   2.0000      -0.843175       -22.9440
  20   2.0000      -0.823055       -22.3965
  21   2.0000      -0.817693       -22.2506
  22   2.0000      -0.809685       -22.0327
  23   2.0000      -0.808686       -22.0055
  24   2.0000      -0.804959       -21.9041
  25   2.0000      -0.786127       -21.3916
  26   2.0000      -0.782443       -21.2913
  27   2.0000      -0.762694       -20.7540
  28   2.0000      -0.758885       -20.6503
  29   0.0000      -0.165543        -4.5047
  30   0.0000      -0.103722        -2.8224
  31   0.0000      -0.034263        -0.9323
  32   0.0000      -0.012248        -0.3333
  33   0.0000      -0.005868        -0.1597

MULLIKEN ATOMIC CHARGES
-----------------------
   0 C :   -0.314512
   1 C :    0.088235
   2 C :   -0.322601
   3 O :   -0.308043
   4 C :    0.087693
   5 C :   -0.314550
   6 C :   -0.322670
   7 H :    0.100505
   8 H :    0.113341
   9 H :    0.112004
  10 H :    0.056611
  11 H :    0.107925
  12 H :    0.103191
  13 H :    0.109547
  14 H :    0.056737
  15 H :    0.112074
  16 H :    0.100446
  17 H :    0.113373
  18 H :    0.109506
  19 H :    0.108117
  20 H :    0.103071
Sum of atomic charges:    0.0000000

LOEWDIN ATOMIC CHARGES
----------------------
   0 C :   -0.281468
   1 C :   -0.368614
   2 C :   -0.285631
   3 O :    0.169546
   4 C :   -0.368839
   5 C :   -0.281435
   6 C :   -0.285714
   7 H :    0.120142
   8 H :    0.119839
   9 H :    0.122544
  10 H :    0.130860
  11 H :    0.119976
  12 H :    0.115969
  13 H :    0.121809
  14 H :    0.130767
  15 H :    0.122568
  16 H :    0.120200
  17 H :    0.119801
  18 H :    0.121876
  19 H :    0.119951
  20 H :    0.115852

  Mayer bond orders larger than 0.100000
B(  0-C ,  1-C ) :   0.9870 B(  0-C ,  7-H ) :   0.9748 B(  0-C ,  8-H ) :   0.9799
B(  0-C ,  9-H ) :   0.9761 B(  1-C ,  2-C ) :   0.9933 B(  1-C ,  3-O ) :   0.9509
B(  1-C , 10-H ) :   0.9670 B(  2-C , 11-H ) :   0.9776 B(  2-C , 12-H ) :   0.9727
B(  2-C , 13-H ) :   0.9768 B(  3-O ,  4-C ) :   0.9536 B(  4-C ,  5-C ) :   0.9870
B(  4-C ,  6-C ) :   0.9929 B(  4-C , 14-H ) :   0.9670 B(  5-C , 15-H ) :   0.9761
B(  5-C , 16-H ) :   0.9747 B(  5-C , 17-H ) :   0.9800 B(  6-C , 18-H ) :   0.9768
B(  6-C , 19-H ) :   0.9776 B(  6-C , 20-H ) :   0.9726

FINAL SINGLE POINT ENERGY      -312.305749981155

DIPOLE MOMENT
-------------

Method             : SCF
Type of density    : Electron Density
Multiplicity       :   1
Irrep              :   0
Energy             :  -312.3210316062547918 Eh
Relativity type    :
Basis              : AO
                                X                 Y                 Z
Electronic contribution:      0.000197386       0.008214735      -1.198166685
Nuclear contribution   :     -0.001212973      -0.004466268       1.710182268
                        -----------------------------------------
Total Dipole Moment    :     -0.001015587       0.003748467       0.512015584
                        -----------------------------------------
Magnitude (a.u.)       :      0.512030312
Magnitude (Debye)      :      1.301477623

Rotational constants in cm-1:             0.136613             0.051701             0.045187
Rotational constants in MHz :          4095.569458          1549.955114          1354.665721

                             ****ORCA TERMINATED NORMALLY****
TOTAL RUN TIME: 0 days 0 hours 2 minutes 21 seconds 772 msec
