                         Program Version 6.0.0  -   RELEASE  -
|  1> ! wb97x-v def2-tzvp def2/J RIJCOSX DEFGRID2 scfconv7 GCP(DFT/TZ) printgap
|  2> %output
|  3>     printlevel normal
|  4> end
|  5> %cpcm
|  6>     smd true
|  7>     smdsolvent "water"
|  8> end
|  9> * xyz 0 1
| 10> C 2.17891949303097 -1.02527947171823 -0.589271007512221
| 11> C 1.2057782128394086 -0.19700301879403104 0.2288051906950096
| 12> C 1.7700055769102794 1.1732797612152763 0.5779956537366691
| 13> O 0.0029857675680030255 -0.05274606720840639 -0.5611189276108854
| 14> C -1.2023168044742332 0.10424666462991983 0.22199652152547966
| 15> C -2.1802909436089375 0.9005735760122923 -0.6216493318192611
| 16> C -1.7570039453151731 -1.260248444789947 0.6079725574709897
| 17> H 3.120202440362025 -1.1497274749964004 -0.045549707673383656
| 18> H 1.766001142637484 -2.0166243797455903 -0.7996882655399233
| 19> H 2.3963785477148654 -0.5274484508018796 -1.5407690259681532
| 20> H 0.9597966510744662 -0.7384150442383828 1.1538384086816074
| 21> H 2.65018861173039 1.0699081814042422 1.22124171822509
| 22> H 1.032416651168661 1.7817971820137182 1.1108101975394769
| 23> H 2.067637253945271 1.702916241045245 -0.3337236981520229
| 24> H -0.9628155955734727 0.6739976007256369 1.1318273615983836
| 25> H -2.3883800938245283 0.3754595340486411 -1.5604726173477343
| 26> H -3.1253121653579954 1.0287403242090194 -0.08520769937791357
| 27> H -1.7775376703393904 1.8905880719933719 -0.8564635641844487
| 28> H -2.046454979693878 -1.8174673881726975 -0.28996752263424136
| 29> H -2.6404330119371378 -1.1467304229071418 1.2449305108942577
| 30> H -1.0167847898807598 -1.8479333171651495 1.1599958207720769
| 31> *
| 32>
| 33>                          ****END OF INPUT****

CARTESIAN COORDINATES (ANGSTROEM)
---------------------------------
  C      2.178919   -1.025279   -0.589271
  C      1.205778   -0.197003    0.228805
  C      1.770006    1.173280    0.577996
  O      0.002986   -0.052746   -0.561119
  C     -1.202317    0.104247    0.221997
  C     -2.180291    0.900574   -0.621649
  C     -1.757004   -1.260248    0.607973
  H      3.120202   -1.149727   -0.045550
  H      1.766001   -2.016624   -0.799688
  H      2.396379   -0.527448   -1.540769
  H      0.959797   -0.738415    1.153838
  H      2.650189    1.069908    1.221242
  H      1.032417    1.781797    1.110810
  H      2.067637    1.702916   -0.333724
  H     -0.962816    0.673998    1.131827
  H     -2.388380    0.375460   -1.560473
  H     -3.125312    1.028740   -0.085208
  H     -1.777538    1.890588   -0.856464
  H     -2.046455   -1.817467   -0.289968
  H     -2.640433   -1.146730    1.244931
  H     -1.016785   -1.847933    1.159996

 Total Charge           Charge          ....    0
 Multiplicity           Mult            ....    1
 Number of Electrons    NEL             ....   58
 Basis Dimension        Dim             ....  301

ORBITAL ENERGIES
----------------

  NO   OCC          E(Eh)            E(eV)
   0   2.0000     -21.666318      -589.5705
   1   2.0000     -12.089331      -328.9674
   2   2.0000     -12.089097      -328.9610
   3   2.0000     -12.026121      -327.2474
   4   2.0000     -12.026050      -327.2455
   5   2.0000     -12.024806      -327.2116
   6   2.0000     -12.024797      -327.2114
   7   2.0000      -1.668225       -45.3947
   8   2.0000      -1.312704       -35.7205
   9   2.0000      -1.262163       -34.3452
  10   2.0000      -1.177579       -32.0435
  11   2.0000      -1.175130       -31.9769
  12   2.0000      -1.111439       -30.2438
  13   2.0000      -1.056526       -28.7495
  14   2.0000      -0.975315       -26.5397
  15   2.0000      -0.942618       -25.6499
  16   2.0000      -0.935643       -25.4601
  17   2.0000      -0.870625       -23.6909
  18   2.0000      -0.858582       -23.3632
  19   2.0000      -0.838735       -22.8231
  20   2.0000      -0.817395       -22.2424
  21   2.0000      -0.814751       -22.1705
  22   2.0000      -0.804077       -21.8800
  23   2.0000      -0.802654       -21.8413
  24   2.0000      -0.799904       -21.7665
  25   2.0000      -0.780525       -21.2392
  26   2.0000      -0.776448       -21.1282
  27   2.0000      -0.757326       -20.6079
  28   2.0000      -0.754487       -20.5306
  29   0.0000      -0.163217        -4.4414
  30   0.0000      -0.102237        -2.7820
  31   0.0000      -0.022438        -0.6106
  32   0.0000      -0.006785        -0.1846
  33   0.0000       0.002372         0.0645

MULLIKEN ATOMIC CHARGES
-----------------------
   0 C :   -0.376549
   1 C :    0.113766
   2 C :   -0.389342
   3 O :   -0.399551
   4 C :    0.112463
   5 C :   -0.376352
   6 C :   -0.389018
   7 H :    0.127488
   8 H :    0.129066
   9 H :    0.123110
  10 H :    0.090316
  11 H :    0.131714
  12 H :    0.130413
  13 H :    0.120136
  14 H :    0.090339
  15 H :    0.123096
  16 H :    0.127473
  17 H :    0.129110
  18 H :    0.120046
  19 H :    0.131898
  20 H :    0.130378
Sum of atomic charges:    0.0000000

LOEWDIN ATOMIC CHARGES
----------------------
   0 C :   -0.290272
   1 C :   -0.366244
   2 C :   -0.291131
   3 O :    0.133327
   4 C :   -0.366530
   5 C :   -0.290278
   6 C :   -0.291130
   7 H :    0.127525
   8 H :    0.120785
   9 H :    0.122554
  10 H :    0.140985
  11 H :    0.126352
  12 H :    0.121180
  13 H :    0.121809
  14 H :    0.140862
  15 H :    0.122556
  16 H :    0.127595
  17 H :    0.120750
  18 H :    0.121880
  19 H :    0.126304
  20 H :    0.121121

  Mayer bond orders larger than 0.100000
B(  0-C ,  1-C ) :   0.9804 B(  0-C ,  7-H ) :   0.9730 B(  0-C ,  8-H ) :   0.9778
B(  0-C ,  9-H ) :   0.9709 B(  1-C ,  2-C ) :   0.9876 B(  1-C ,  3-O ) :   0.9116
B(  1-C , 10-H ) :   0.9703 B(  2-C , 11-H ) :   0.9741 B(  2-C , 12-H ) :   0.9714
B(  2-C , 13-H ) :   0.9721 B(  3-O ,  4-C ) :   0.9145 B(  4-C ,  5-C ) :   0.9804
B(  4-C ,  6-C ) :   0.9876 B(  4-C , 14-H ) :   0.9704 B(  5-C , 15-H ) :   0.9709
B(  5-C , 16-H ) :   0.9729 B(  5-C , 17-H ) :   0.9778 B(  6-C , 18-H ) :   0.9720
B(  6-C , 19-H ) :   0.9740 B(  6-C , 20-H ) :   0.9713

FINAL SINGLE POINT ENERGY      -312.308367697282

DIPOLE MOMENT
-------------

Method             : SCF
Type of density    : Electron Density
Multiplicity       :   1
Irrep              :   0
Energy             :  -312.3236493223820389 Eh
Relativity type    :
Basis              : AO
                                X                 Y                 Z
Electronic contribution:     -0.000226550       0.011288677      -0.813623267
Nuclear contribution   :     -0.001212973      -0.004466268       1.710182268
                        -----------------------------------------
Total Dipole Moment    :     -0.001439523       0.006822409       0.896559001
                        -----------------------------------------
Magnitude (a.u.)       :      0.896586114
Magnitude (Debye)      :      2.278940791

Rotational constants in cm-1:             0.136613             0.051701             0.045187
Rotational constants in MHz :          4095.569458          1549.955114          1354.665721

                             ****ORCA TERMINATED NORMALLY****
TOTAL RUN TIME: 0 days 0 hours 2 minutes 32 seconds 490 msec
