                         Program Version 6.0.0  -   RELEASE  -
|  1> ! pbe def2-sv(p) def2/J RI DEFGRID1 loosescf d4 GCP(DFT/SV(P)) printgap
|  2> %output
|  3>     printlevel normal
|  4> end
|  5> * xyz 0 1
|  6> C -2.2584516871 0.6059481844 -0.9810200978
|  7> C -1.8532620902 -0.3892202002 0.1005097741
|  8> C -0.5944835039 -0.0161269892 0.8877567263
|  9> C 0.7686615417 -0.0447743637 0.1589167172
| 10> C 1.0414131352 1.2442347733 -0.6230750357
| 11> C 0.9093871946 -1.2628467146 -0.7540061667
| 12> O 1.7899689332 -0.2011890961 1.1522954576
| 13> H -2.2619694122 1.619663609 -0.5877223399
| 14> H -3.2591716155 0.3743630785 -1.3389813979
| 15> H -1.5841356485 0.5653760145 -1.8315744026
| 16> H -2.6680939437 -0.4537978717 0.8262776539
| 17> H -1.7356427878 -1.3796113952 -0.3397200964
| 18> H -0.7345420994 0.9784691311 1.3203365785
| 19> H -0.5072107446 -0.72581925 1.7158714274
| 20> H 2.0693917155 1.2347385913 -0.9795865836
| 21> H 0.9032577892 2.1151678312 0.0146565107
| 22> H 0.3798566353 1.3324188385 -1.4766823235
| 23> H 1.9361696109 -1.3221014507 -1.1060278147
| 24> H 0.2451779346 -1.1868231044 -1.6077832018
| 25> H 0.6881784389 -2.1693396778 -0.1970061913
| 26> H 1.7904168896 0.5758026322 1.7267467693
| 27> *
| 28>
| 29>                          ****END OF INPUT****

CARTESIAN COORDINATES (ANGSTROEM)
---------------------------------
  C     -2.258452    0.605948   -0.981020
  C     -1.853262   -0.389220    0.100510
  C     -0.594484   -0.016127    0.887757
  C      0.768662   -0.044774    0.158917
  C      1.041413    1.244235   -0.623075
  C      0.909387   -1.262847   -0.754006
  O      1.789969   -0.201189    1.152295
  H     -2.261969    1.619664   -0.587722
  H     -3.259172    0.374363   -1.338981
  H     -1.584136    0.565376   -1.831574
  H     -2.668094   -0.453798    0.826278
  H     -1.735643   -1.379611   -0.339720
  H     -0.734542    0.978469    1.320337
  H     -0.507211   -0.725819    1.715871
  H      2.069392    1.234739   -0.979587
  H      0.903258    2.115168    0.014657
  H      0.379857    1.332419   -1.476682
  H      1.936170   -1.322101   -1.106028
  H      0.245178   -1.186823   -1.607783
  H      0.688178   -2.169340   -0.197006
  H      1.790417    0.575803    1.726747

 Total Charge           Charge          ....    0
 Multiplicity           Mult            ....    1
 Number of Electrons    NEL             ....   58
 Basis Dimension        Dim             ....  126

ORBITAL ENERGIES
----------------

  NO   OCC          E(Eh)            E(eV)
   0   2.0000     -18.732315      -509.7322
   1   2.0000      -9.944027      -270.5907
   2   2.0000      -9.885213      -268.9903
   3   2.0000      -9.879140      -268.8251
   4   2.0000      -9.874985      -268.7120
   5   2.0000      -9.872153      -268.6349
   6   2.0000      -9.869112      -268.5522
   7   2.0000      -0.911160       -24.7939
   8   2.0000      -0.722345       -19.6560
   9   2.0000      -0.677007       -18.4223
  10   2.0000      -0.617557       -16.8046
  11   2.0000      -0.612209       -16.6590
  12   2.0000      -0.534630       -14.5480
  13   2.0000      -0.496846       -13.5199
  14   2.0000      -0.440485       -11.9862
  15   2.0000      -0.416498       -11.3335
  16   2.0000      -0.397649       -10.8206
  17   2.0000      -0.384254       -10.4561
  18   2.0000      -0.374077       -10.1792
  19   2.0000      -0.354031        -9.6337
  20   2.0000      -0.339017        -9.2251
  21   2.0000      -0.333904        -9.0860
  22   2.0000      -0.320009        -8.7079
  23   2.0000      -0.315751        -8.5920
  24   2.0000      -0.300005        -8.1635
  25   2.0000      -0.287274        -7.8171
  26   2.0000      -0.278047        -7.5660
  27   2.0000      -0.260744        -7.0952
  28   2.0000      -0.207291        -5.6407
  29   0.0000       0.024785         0.6744
  30   0.0000       0.047660         1.2969
  31   0.0000       0.061729         1.6797
  32   0.0000       0.074232         2.0200
  33   0.0000       0.080648         2.1945

MULLIKEN ATOMIC CHARGES
-----------------------
   0 C :   -0.288643
   1 C :   -0.177132
   2 C :   -0.130753
   3 C :   -0.047641
   4 C :   -0.224738
   5 C :   -0.221402
   6 O :   -0.425090
   7 H :    0.096473
   8 H :    0.101688
   9 H :    0.116972
  10 H :    0.083724
  11 H :    0.090362
  12 H :    0.062454
  13 H :    0.084238
  14 H :    0.103103
  15 H :    0.081840
  16 H :    0.096641
  17 H :    0.103472
  18 H :    0.102513
  19 H :    0.103150
  20 H :    0.288767
Sum of atomic charges:   -0.0000000

LOEWDIN ATOMIC CHARGES
----------------------
   0 C :   -0.344516
   1 C :   -0.234577
   2 C :   -0.232350
   3 C :   -0.011322
   4 C :   -0.340110
   5 C :   -0.327106
   6 O :   -0.325451
   7 H :    0.116815
   8 H :    0.120253
   9 H :    0.114582
  10 H :    0.118825
  11 H :    0.116943
  12 H :    0.107812
  13 H :    0.120320
  14 H :    0.121659
  15 H :    0.111635
  16 H :    0.120415
  17 H :    0.125085
  18 H :    0.120242
  19 H :    0.123083
  20 H :    0.277764

  Mayer bond orders larger than 0.100000
B(  0-C ,  1-C ) :   1.1624 B(  0-C ,  7-H ) :   0.9524 B(  0-C ,  8-H ) :   0.9476
B(  0-C ,  9-H ) :   0.9400 B(  1-C ,  2-C ) :   1.1316 B(  1-C , 10-H ) :   0.9183
B(  1-C , 11-H ) :   0.9133 B(  2-C ,  3-C ) :   1.0424 B(  2-C , 12-H ) :   0.9105
B(  2-C , 13-H ) :   0.9024 B(  3-C ,  4-C ) :   1.0917 B(  3-C ,  5-C ) :   1.0886
B(  3-C ,  6-O ) :   1.0145 B(  4-C , 14-H ) :   0.9415 B(  4-C , 15-H ) :   0.9372
B(  4-C , 16-H ) :   0.9272 B(  5-C , 17-H ) :   0.9389 B(  5-C , 18-H ) :   0.9344
B(  5-C , 19-H ) :   0.9416 B(  6-O , 20-H ) :   0.8563

Dispersion correction           -0.017293184
FINAL SINGLE POINT ENERGY      -311.518141528036

DIPOLE MOMENT
-------------

Method             : SCF
Type of density    : Electron Density
Multiplicity       :   1
Irrep              :   0
Energy             :  -311.5970742269655034 Eh
Relativity type    :
Basis              : AO
                                X                 Y                 Z
Electronic contribution:      4.052680348      -1.037043296       3.584388939
Nuclear contribution   :     -4.418751983       1.459148632      -3.605331827
                        -----------------------------------------
Total Dipole Moment    :     -0.366071635       0.422105335      -0.020942888
                        -----------------------------------------
Magnitude (a.u.)       :      0.559124280
Magnitude (Debye)      :      1.421180977

Rotational constants in cm-1:             0.127696             0.056144             0.053699
Rotational constants in MHz :          3828.218429          1683.165677          1609.854205

                             ****ORCA TERMINATED NORMALLY****
TOTAL RUN TIME: 0 days 0 hours 0 minutes 9 seconds 484 msec
