                         Program Version 6.0.0  -   RELEASE  -
|  1> ! pbe def2-sv(p) def2/J RI DEFGRID1 loosescf d4 GCP(DFT/SV(P)) printgap
|  2> %output
|  3>     printlevel normal
|  4> end
|  5> * xyz 0 1
|  6> C 2.5521857282 -0.186525239 0.681138158
|  7> C 1.1306094115 -0.6494441779 0.3811880058
|  8> C 0.2366655479 0.5264785818 -0.0291245366
|  9> H 0.3752259021 1.3425194568 0.6910029993
| 10> C -1.2707957153 0.1869585452 -0.0765497853
| 11> C -1.5742166808 -1.0848945004 -0.8680804017
| 12> C -1.8621714439 0.0884029365 1.3279252472
| 13> O 0.6678265259 1.0884752748 -1.2582566822
| 14> H 2.9503450548 0.3703592679 -0.1640661782
| 15> H 3.1986917342 -1.0384135992 0.8755905638
| 16> H 2.5637992898 0.4646316124 1.5522467691
| 17> H 1.1537400959 -1.380868173 -0.4289430914
| 18> H 0.7091605619 -1.1285149722 1.264486398
| 19> H -1.7459858276 1.0327576253 -0.5886531816
| 20> H -1.1392047408 -1.0457878353 -1.8639482364
| 21> H -1.1926510891 -1.96178284 -0.3516728062
| 22> H -2.6501624212 -1.197465591 -0.9780512278
| 23> H -2.9380329364 -0.0555420118 1.267987628
| 24> H -1.6676398571 0.9971420107 1.8922579963
| 25> H -1.4369424014 -0.7524347352 1.8699882594
| 26> H 0.6057654405 0.4101952956 -1.9448532883
| 27> *
| 28>
| 29>                          ****END OF INPUT****

CARTESIAN COORDINATES (ANGSTROEM)
---------------------------------
  C      2.552186   -0.186525    0.681138
  C      1.130609   -0.649444    0.381188
  C      0.236666    0.526479   -0.029125
  H      0.375226    1.342519    0.691003
  C     -1.270796    0.186959   -0.076550
  C     -1.574217   -1.084895   -0.868080
  C     -1.862171    0.088403    1.327925
  O      0.667827    1.088475   -1.258257
  H      2.950345    0.370359   -0.164066
  H      3.198692   -1.038414    0.875591
  H      2.563799    0.464632    1.552247
  H      1.153740   -1.380868   -0.428943
  H      0.709161   -1.128515    1.264486
  H     -1.745986    1.032758   -0.588653
  H     -1.139205   -1.045788   -1.863948
  H     -1.192651   -1.961783   -0.351673
  H     -2.650162   -1.197466   -0.978051
  H     -2.938033   -0.055542    1.267988
  H     -1.667640    0.997142    1.892258
  H     -1.436942   -0.752435    1.869988
  H      0.605765    0.410195   -1.944853

 Total Charge           Charge          ....    0
 Multiplicity           Mult            ....    1
 Number of Electrons    NEL             ....   58
 Basis Dimension        Dim             ....  126

ORBITAL ENERGIES
----------------

  NO   OCC          E(Eh)            E(eV)
   0   2.0000     -18.737946      -509.8854
   1   2.0000      -9.930563      -270.2244
   2   2.0000      -9.891642      -269.1653
   3   2.0000      -9.883739      -268.9502
   4   2.0000      -9.878681      -268.8126
   5   2.0000      -9.875132      -268.7160
   6   2.0000      -9.869543      -268.5639
   7   2.0000      -0.916208       -24.9313
   8   2.0000      -0.726401       -19.7664
   9   2.0000      -0.685172       -18.6445
  10   2.0000      -0.615866       -16.7586
  11   2.0000      -0.597205       -16.2508
  12   2.0000      -0.542337       -14.7577
  13   2.0000      -0.502915       -13.6850
  14   2.0000      -0.436451       -11.8764
  15   2.0000      -0.416122       -11.3233
  16   2.0000      -0.404555       -11.0085
  17   2.0000      -0.400467       -10.8973
  18   2.0000      -0.375336       -10.2134
  19   2.0000      -0.345213        -9.3937
  20   2.0000      -0.342211        -9.3120
  21   2.0000      -0.333592        -9.0775
  22   2.0000      -0.318393        -8.6639
  23   2.0000      -0.313813        -8.5393
  24   2.0000      -0.300523        -8.1777
  25   2.0000      -0.292077        -7.9478
  26   2.0000      -0.280505        -7.6329
  27   2.0000      -0.259308        -7.0561
  28   2.0000      -0.209828        -5.7097
  29   0.0000       0.022207         0.6043
  30   0.0000       0.045539         1.2392
  31   0.0000       0.060398         1.6435
  32   0.0000       0.067781         1.8444
  33   0.0000       0.080546         2.1918

MULLIKEN ATOMIC CHARGES
-----------------------
   0 C :   -0.250054
   1 C :   -0.196915
   2 C :    0.049087
   3 H :    0.059792
   4 C :   -0.132231
   5 C :   -0.270465
   6 C :   -0.257066
   7 O :   -0.425414
   8 H :    0.102981
   9 H :    0.099161
  10 H :    0.095552
  11 H :    0.075548
  12 H :    0.087800
  13 H :    0.074798
  14 H :    0.083040
  15 H :    0.106403
  16 H :    0.104360
  17 H :    0.099813
  18 H :    0.101430
  19 H :    0.100583
  20 H :    0.291798
Sum of atomic charges:    0.0000000

LOEWDIN ATOMIC CHARGES
----------------------
   0 C :   -0.340742
   1 C :   -0.246959
   2 C :   -0.046154
   3 H :    0.109840
   4 C :   -0.171030
   5 C :   -0.333117
   6 C :   -0.329587
   7 O :   -0.323660
   8 H :    0.119687
   9 H :    0.117009
  10 H :    0.117300
  11 H :    0.112555
  12 H :    0.117956
  13 H :    0.118264
  14 H :    0.107166
  15 H :    0.118528
  16 H :    0.122225
  17 H :    0.119939
  18 H :    0.118442
  19 H :    0.115148
  20 H :    0.277190

  Mayer bond orders larger than 0.100000
B(  0-C ,  1-C ) :   1.1527 B(  0-C ,  8-H ) :   0.9458 B(  0-C ,  9-H ) :   0.9529
B(  0-C , 10-H ) :   0.9543 B(  1-C ,  2-C ) :   1.0634 B(  1-C , 11-H ) :   0.9042
B(  1-C , 12-H ) :   0.9116 B(  2-C ,  3-H ) :   0.9038 B(  2-C ,  4-C ) :   1.0185
B(  2-C ,  7-O ) :   1.0293 B(  4-C ,  5-C ) :   1.0941 B(  4-C ,  6-C ) :   1.0986
B(  4-C , 13-H ) :   0.8955 B(  5-C , 14-H ) :   0.9454 B(  5-C , 15-H ) :   0.9424
B(  5-C , 16-H ) :   0.9489 B(  6-C , 17-H ) :   0.9476 B(  6-C , 18-H ) :   0.9487
B(  6-C , 19-H ) :   0.9435 B(  7-O , 20-H ) :   0.8490

Dispersion correction           -0.016685602
FINAL SINGLE POINT ENERGY      -311.518069665772

DIPOLE MOMENT
-------------

Method             : SCF
Type of density    : Electron Density
Multiplicity       :   1
Irrep              :   0
Energy             :  -311.5978901972419521 Eh
Relativity type    :
Basis              : AO
                                X                 Y                 Z
Electronic contribution:      0.900183680       3.137743845      -2.859226669
Nuclear contribution   :     -1.128917406      -3.683216895       2.883415912
                        -----------------------------------------
Total Dipole Moment    :     -0.228733726      -0.545473050       0.024189243
                        -----------------------------------------
Magnitude (a.u.)       :      0.591984024
Magnitude (Debye)      :      1.504703808

Rotational constants in cm-1:             0.118115             0.056026             0.049856
Rotational constants in MHz :          3540.983816          1679.608939          1494.652457

                             ****ORCA TERMINATED NORMALLY****
TOTAL RUN TIME: 0 days 0 hours 0 minutes 9 seconds 85 msec
