                         Program Version 6.0.0  -   RELEASE  -
|  1> ! r2scan-3c def2/J RI DEFGRID2 scfconv6 printgap
|  2> %output
|  3>     printlevel normal
|  4> end
|  5> * xyz 0 1
|  6> C 2.3831217337 -0.1602993512 -0.6744785663
|  7> C 1.5696001066 0.2697093737 0.5408600663
|  8> C 0.2671826718 -0.5188425619 0.6924208528
|  9> C -0.8251932157 -0.0627654095 -0.2847605551
| 10> H -0.4419379328 -0.0946398902 -1.3100044528
| 11> C -2.0585999184 -0.9604488909 -0.1796561659
| 12> O -1.1631665669 1.2993392763 -0.0852055968
| 13> H 2.6297227686 -1.2180918419 -0.6130604127
| 14> H 3.3093508483 0.4066760064 -0.7269352266
| 15> H 1.8285399095 0.0115910914 -1.5933935606
| 16> H 2.1749356049 0.1297955434 1.4388617514
| 17> H 1.3286579483 1.331910223 0.4593056936
| 18> H 0.4593384599 -1.5804351925 0.5320042835
| 19> H -0.1121583525 -0.3955915323 1.7102074985
| 20> H -1.8098279076 -1.9733406808 -0.4812329961
| 21> H -2.4262858211 -0.9804935683 0.8443727717
| 22> H -2.8459931551 -0.5840250385 -0.8280454239
| 23> H -1.5524895982 1.3935864193 0.7956932681
| 24> *
| 25>
| 26>                          ****END OF INPUT****

CARTESIAN COORDINATES (ANGSTROEM)
---------------------------------
  C      2.383122   -0.160299   -0.674479
  C      1.569600    0.269709    0.540860
  C      0.267183   -0.518843    0.692421
  C     -0.825193   -0.062765   -0.284761
  H     -0.441938   -0.094640   -1.310004
  C     -2.058600   -0.960449   -0.179656
  O     -1.163167    1.299339   -0.085206
  H      2.629723   -1.218092   -0.613060
  H      3.309351    0.406676   -0.726935
  H      1.828540    0.011591   -1.593394
  H      2.174936    0.129796    1.438862
  H      1.328658    1.331910    0.459306
  H      0.459338   -1.580435    0.532004
  H     -0.112158   -0.395592    1.710207
  H     -1.809828   -1.973341   -0.481233
  H     -2.426286   -0.980494    0.844373
  H     -2.845993   -0.584025   -0.828045
  H     -1.552490    1.393586    0.795693

 Total Charge           Charge          ....    0
 Multiplicity           Mult            ....    1
 Number of Electrons    NEL             ....   50
 Basis Dimension        Dim             ....  179

ORBITAL ENERGIES
----------------

  NO   OCC          E(Eh)            E(eV)
   0   2.0000     -18.944444      -515.5045
   1   2.0000     -10.079170      -274.2682
   2   2.0000     -10.023912      -272.7645
   3   2.0000     -10.020335      -272.6672
   4   2.0000     -10.019264      -272.6380
   5   2.0000     -10.013641      -272.4850
   6   2.0000      -0.983343       -26.7581
   7   2.0000      -0.761130       -20.7114
   8   2.0000      -0.711976       -19.3739
   9   2.0000      -0.647318       -17.6144
  10   2.0000      -0.581668       -15.8280
  11   2.0000      -0.545165       -14.8347
  12   2.0000      -0.444431       -12.0936
  13   2.0000      -0.442183       -12.0324
  14   2.0000      -0.422762       -11.5040
  15   2.0000      -0.391736       -10.6597
  16   2.0000      -0.383465       -10.4346
  17   2.0000      -0.367440        -9.9986
  18   2.0000      -0.346955        -9.4411
  19   2.0000      -0.338506        -9.2112
  20   2.0000      -0.310640        -8.4530
  21   2.0000      -0.301738        -8.2107
  22   2.0000      -0.296271        -8.0620
  23   2.0000      -0.277279        -7.5451
  24   2.0000      -0.233799        -6.3620
  25   0.0000       0.066796         1.8176
  26   0.0000       0.097880         2.6635
  27   0.0000       0.107937         2.9371
  28   0.0000       0.114685         3.1207
  29   0.0000       0.132719         3.6115

MULLIKEN ATOMIC CHARGES
-----------------------
   0 C :   -0.494036
   1 C :   -0.238168
   2 C :   -0.230070
   3 C :   -0.028158
   4 H :    0.138714
   5 C :   -0.484056
   6 O :   -0.411735
   7 H :    0.142238
   8 H :    0.147226
   9 H :    0.146159
  10 H :    0.140911
  11 H :    0.160594
  12 H :    0.134220
  13 H :    0.139703
  14 H :    0.146279
  15 H :    0.137367
  16 H :    0.163339
  17 H :    0.289472
Sum of atomic charges:    0.0000000

LOEWDIN ATOMIC CHARGES
----------------------
   0 C :   -0.424632
   1 C :   -0.314509
   2 C :   -0.292123
   3 C :    0.040944
   4 H :    0.179395
   5 C :   -0.400260
   6 O :   -0.610826
   7 H :    0.147864
   8 H :    0.151467
   9 H :    0.148406
  10 H :    0.150423
  11 H :    0.165759
  12 H :    0.160861
  13 H :    0.158319
  14 H :    0.157789
  15 H :    0.153312
  16 H :    0.161067
  17 H :    0.266744

  Mayer bond orders larger than 0.100000
B(  0-C ,  1-C ) :   0.9016 B(  0-C ,  7-H ) :   0.9852 B(  0-C ,  8-H ) :   0.9713
B(  0-C ,  9-H ) :   0.9840 B(  1-C ,  2-C ) :   0.8850 B(  1-C , 10-H ) :   0.9683
B(  1-C , 11-H ) :   0.9713 B(  2-C ,  3-C ) :   0.9388 B(  2-C , 12-H ) :   0.9733
B(  2-C , 13-H ) :   0.9630 B(  3-C ,  4-H ) :   0.9584 B(  3-C ,  5-C ) :   0.9434
B(  3-C ,  6-O ) :   0.9234 B(  5-C , 14-H ) :   0.9758 B(  5-C , 15-H ) :   0.9733
B(  5-C , 16-H ) :   0.9757 B(  6-O , 17-H ) :   0.8962

Dispersion correction           -0.004248662
FINAL SINGLE POINT ENERGY      -272.902682596240

DIPOLE MOMENT
-------------

Method             : SCF
Type of density    : Electron Density
Multiplicity       :   1
Irrep              :   0
Energy             :  -272.9079905060403348 Eh
Relativity type    :
Basis              : AO
                                X                 Y                 Z
Electronic contribution:     -2.435333102       2.881161308       0.188860157
Nuclear contribution   :      2.367411902      -3.314067435       0.212424037
                        -----------------------------------------
Total Dipole Moment    :     -0.067921200      -0.432906127       0.401284194
                        -----------------------------------------
Magnitude (a.u.)       :      0.594180115
Magnitude (Debye)      :      1.510285827

Rotational constants in cm-1:             0.198253             0.065628             0.059463
Rotational constants in MHz :          5943.466002          1967.470480          1782.663174

                             ****ORCA TERMINATED NORMALLY****
TOTAL RUN TIME: 0 days 0 hours 0 minutes 22 seconds 799 msec
