                         Program Version 6.0.0  -   RELEASE  -
|  1> ! r2scan-3c def2/J RI DEFGRID2 scfconv6 printgap
|  2> %output
|  3>     printlevel normal
|  4> end
|  5> %cpcm
|  6>     smd true
|  7>     smdsolvent "water"
|  8> end
|  9> * xyz 0 1
| 10> C 2.3831217337 -0.1602993512 -0.6744785663
| 11> C 1.5696001066 0.2697093737 0.5408600663
| 12> C 0.2671826718 -0.5188425619 0.6924208528
| 13> C -0.8251932157 -0.0627654095 -0.2847605551
| 14> H -0.4419379328 -0.0946398902 -1.3100044528
| 15> C -2.0585999184 -0.9604488909 -0.1796561659
| 16> O -1.1631665669 1.2993392763 -0.0852055968
| 17> H 2.6297227686 -1.2180918419 -0.6130604127
| 18> H 3.3093508483 0.4066760064 -0.7269352266
| 19> H 1.8285399095 0.0115910914 -1.5933935606
| 20> H 2.1749356049 0.1297955434 1.4388617514
| 21> H 1.3286579483 1.331910223 0.4593056936
| 22> H 0.4593384599 -1.5804351925 0.5320042835
| 23> H -0.1121583525 -0.3955915323 1.7102074985
| 24> H -1.8098279076 -1.9733406808 -0.4812329961
| 25> H -2.4262858211 -0.9804935683 0.8443727717
| 26> H -2.8459931551 -0.5840250385 -0.8280454239
| 27> H -1.5524895982 1.3935864193 0.7956932681
| 28> *
| 29>
| 30>                          ****END OF INPUT****

CARTESIAN COORDINATES (ANGSTROEM)
---------------------------------
  C      2.383122   -0.160299   -0.674479
  C      1.569600    0.269709    0.540860
  C      0.267183   -0.518843    0.692421
  C     -0.825193   -0.062765   -0.284761
  H     -0.441938   -0.094640   -1.310004
  C     -2.058600   -0.960449   -0.179656
  O     -1.163167    1.299339   -0.085206
  H      2.629723   -1.218092   -0.613060
  H      3.309351    0.406676   -0.726935
  H      1.828540    0.011591   -1.593394
  H      2.174936    0.129796    1.438862
  H      1.328658    1.331910    0.459306
  H      0.459338   -1.580435    0.532004
  H     -0.112158   -0.395592    1.710207
  H     -1.809828   -1.973341   -0.481233
  H     -2.426286   -0.980494    0.844373
  H     -2.845993   -0.584025   -0.828045
  H     -1.552490    1.393586    0.795693

 Total Charge           Charge          ....    0
 Multiplicity           Mult            ....    1
 Number of Electrons    NEL             ....   50
 Basis Dimension        Dim             ....  179

ORBITAL ENERGIES
----------------

  NO   OCC          E(Eh)            E(eV)
   0   2.0000     -18.947262      -515.5812
   1   2.0000     -10.073054      -274.1017
   2   2.0000     -10.015010      -272.5223
   3   2.0000     -10.013810      -272.4896
   4   2.0000     -10.008917      -272.3565
   5   2.0000     -10.006802      -272.2989
   6   2.0000      -0.984873       -26.7998
   7   2.0000      -0.754056       -20.5189
   8   2.0000      -0.704720       -19.1764
   9   2.0000      -0.639222       -17.3941
  10   2.0000      -0.575806       -15.6685
  11   2.0000      -0.539360       -14.6767
  12   2.0000      -0.438104       -11.9214
  13   2.0000      -0.437098       -11.8940
  14   2.0000      -0.417377       -11.3574
  15   2.0000      -0.385926       -10.5016
  16   2.0000      -0.375821       -10.2266
  17   2.0000      -0.360648        -9.8137
  18   2.0000      -0.339786        -9.2461
  19   2.0000      -0.331808        -9.0289
  20   2.0000      -0.307522        -8.3681
  21   2.0000      -0.294561        -8.0154
  22   2.0000      -0.290483        -7.9044
  23   2.0000      -0.273113        -7.4318
  24   2.0000      -0.236503        -6.4356
  25   0.0000       0.080311         2.1854
  26   0.0000       0.109933         2.9914
  27   0.0000       0.117959         3.2098
  28   0.0000       0.122169         3.3244
  29   0.0000       0.140875         3.8334

MULLIKEN ATOMIC CHARGES
-----------------------
   0 C :   -0.530124
   1 C :   -0.253851
   2 C :   -0.249113
   3 C :    0.003293
   4 H :    0.152279
   5 C :   -0.532812
   6 O :   -0.502826
   7 H :    0.155389
   8 H :    0.155801
   9 H :    0.158096
  10 H :    0.152502
  11 H :    0.147714
  12 H :    0.148927
  13 H :    0.160275
  14 H :    0.164449
  15 H :    0.161028
  16 H :    0.162337
  17 H :    0.346636
Sum of atomic charges:    0.0000000

LOEWDIN ATOMIC CHARGES
----------------------
   0 C :   -0.433194
   1 C :   -0.317204
   2 C :   -0.291564
   3 C :    0.042330
   4 H :    0.182812
   5 C :   -0.405053
   6 O :   -0.648719
   7 H :    0.152111
   8 H :    0.152499
   9 H :    0.151297
  10 H :    0.153834
  11 H :    0.159347
  12 H :    0.166397
  13 H :    0.165526
  14 H :    0.163683
  15 H :    0.160812
  16 H :    0.159834
  17 H :    0.285254

  Mayer bond orders larger than 0.100000
B(  0-C ,  1-C ) :   0.8981 B(  0-C ,  7-H ) :   0.9814 B(  0-C ,  8-H ) :   0.9694
B(  0-C ,  9-H ) :   0.9804 B(  1-C ,  2-C ) :   0.8748 B(  1-C , 10-H ) :   0.9684
B(  1-C , 11-H ) :   0.9773 B(  2-C ,  3-C ) :   0.9343 B(  2-C , 12-H ) :   0.9702
B(  2-C , 13-H ) :   0.9626 B(  3-C ,  4-H ) :   0.9603 B(  3-C ,  5-C ) :   0.9285
B(  3-C ,  6-O ) :   0.9059 B(  5-C , 14-H ) :   0.9716 B(  5-C , 15-H ) :   0.9733
B(  5-C , 16-H ) :   0.9730 B(  6-O , 17-H ) :   0.8690

Dispersion correction           -0.004248662
FINAL SINGLE POINT ENERGY      -272.908628896671

DIPOLE MOMENT
-------------

Method             : SCF
Type of density    : Electron Density
Multiplicity       :   1
Irrep              :   0
Energy             :  -272.9139368064713835 Eh
Relativity type    :
Basis              : AO
                                X                 Y                 Z
Electronic contribution:     -2.471547483       2.650067610       0.386606803
Nuclear contribution   :      2.367411902      -3.314067435       0.212424037
                        -----------------------------------------
Total Dipole Moment    :     -0.104135581      -0.663999825       0.599030840
                        -----------------------------------------
Magnitude (a.u.)       :      0.900321017
Magnitude (Debye)      :      2.288434160

Rotational constants in cm-1:             0.198253             0.065628             0.059463
Rotational constants in MHz :          5943.466002          1967.470480          1782.663174

                             ****ORCA TERMINATED NORMALLY****
TOTAL RUN TIME: 0 days 0 hours 0 minutes 26 seconds 493 msec
