                         Program Version 6.0.0  -   RELEASE  -
|  1> ! pbe def2-sv(p) def2/J RI DEFGRID1 loosescf d4 GCP(DFT/SV(P)) printgap
|  2> %output
|  3>     printlevel normal
|  4> end
|  5> * xyz 0 1
|  6> C -1.5556941736 1.1189504192 0.5124281385
|  7> C -1.1471367591 -0.2809234574 0.0591779392
|  8> C -2.3156234308 -0.9196310201 -0.6960180422
|  9> C 0.0896947335 -0.2873647703 -0.8510616466
| 10> C 1.4779003007 -0.0697120041 -0.2216588707
| 11> C 1.7660829979 1.3794194594 0.1685833642
| 12> C 1.7319470687 -0.9980510333 0.9645075007
| 13> H -0.8245015631 1.5513437166 1.186917142
| 14> H -1.666281731 1.7784175877 -0.3456978714
| 15> H -2.5090743615 1.0769140069 1.0355971717
| 16> H -0.945139686 -0.8926308501 0.9431236923
| 17> H -3.2063443102 -0.9431248523 -0.0722702378
| 18> H -2.5415782161 -0.3482916931 -1.5941511088
| 19> H -2.0778841882 -1.9398005969 -0.9890991449
| 20> H -0.0532186674 0.4594069421 -1.6364377425
| 21> H 0.1207789197 -1.2647219586 -1.3410910623
| 22> H 2.1960584237 -0.3348851498 -1.0086753652
| 23> H 1.2378551163 1.6583992232 1.0754159452
| 24> H 2.8310302373 1.5065925488 0.3530063773
| 25> H 1.4738312265 2.0593186392 -0.6278305764
| 26> H 1.5021461403 -2.0281992543 0.7025436483
| 27> H 2.7765147779 -0.9442311179 1.2629626424
| 28> H 1.1236809597 -0.711523448 1.8188612695
| 29> *
| 30>
| 31>                          ****END OF INPUT****

CARTESIAN COORDINATES (ANGSTROEM)
---------------------------------
  C     -1.555694    1.118950    0.512428
  C     -1.147137   -0.280923    0.059178
  C     -2.315623   -0.919631   -0.696018
  C      0.089695   -0.287365   -0.851062
  C      1.477900   -0.069712   -0.221659
  C      1.766083    1.379419    0.168583
  C      1.731947   -0.998051    0.964508
  H     -0.824502    1.551344    1.186917
  H     -1.666282    1.778418   -0.345698
  H     -2.509074    1.076914    1.035597
  H     -0.945140   -0.892631    0.943124
  H     -3.206344   -0.943125   -0.072270
  H     -2.541578   -0.348292   -1.594151
  H     -2.077884   -1.939801   -0.989099
  H     -0.053219    0.459407   -1.636438
  H      0.120779   -1.264722   -1.341091
  H      2.196058   -0.334885   -1.008675
  H      1.237855    1.658399    1.075416
  H      2.831030    1.506593    0.353006
  H      1.473831    2.059319   -0.627831
  H      1.502146   -2.028199    0.702544
  H      2.776515   -0.944231    1.262963
  H      1.123681   -0.711523    1.818861

 Total Charge           Charge          ....    0
 Multiplicity           Mult            ....    1
 Number of Electrons    NEL             ....   58
 Basis Dimension        Dim             ....  130

ORBITAL ENERGIES
----------------

  NO   OCC          E(Eh)            E(eV)
   0   2.0000      -9.890242      -269.1272
   1   2.0000      -9.888805      -269.0881
   2   2.0000      -9.875461      -268.7250
   3   2.0000      -9.869188      -268.5543
   4   2.0000      -9.867636      -268.5120
   5   2.0000      -9.867630      -268.5119
   6   2.0000      -9.867327      -268.5036
   7   2.0000      -0.737311       -20.0632
   8   2.0000      -0.696347       -18.9486
   9   2.0000      -0.611185       -16.6312
  10   2.0000      -0.604955       -16.4617
  11   2.0000      -0.599836       -16.3224
  12   2.0000      -0.514731       -14.0065
  13   2.0000      -0.475567       -12.9408
  14   2.0000      -0.418137       -11.3781
  15   2.0000      -0.409605       -11.1459
  16   2.0000      -0.391585       -10.6556
  17   2.0000      -0.370508       -10.0820
  18   2.0000      -0.369371       -10.0511
  19   2.0000      -0.349675        -9.5151
  20   2.0000      -0.336847        -9.1661
  21   2.0000      -0.333400        -9.0723
  22   2.0000      -0.314183        -8.5493
  23   2.0000      -0.311640        -8.4802
  24   2.0000      -0.293588        -7.9889
  25   2.0000      -0.288624        -7.8539
  26   2.0000      -0.274128        -7.4594
  27   2.0000      -0.266579        -7.2540
  28   2.0000      -0.257207        -6.9990
  29   0.0000       0.028480         0.7750
  30   0.0000       0.057181         1.5560
  31   0.0000       0.063654         1.7321
  32   0.0000       0.068922         1.8755
  33   0.0000       0.089404         2.4328

MULLIKEN ATOMIC CHARGES
-----------------------
   0 C :   -0.239825
   1 C :   -0.186629
   2 C :   -0.244822
   3 C :   -0.120354
   4 C :   -0.146090
   5 C :   -0.249178
   6 C :   -0.257941
   7 H :    0.103609
   8 H :    0.088459
   9 H :    0.093499
  10 H :    0.074445
  11 H :    0.095900
  12 H :    0.091487
  13 H :    0.096349
  14 H :    0.070473
  15 H :    0.072265
  16 H :    0.067482
  17 H :    0.103671
  18 H :    0.094582
  19 H :    0.094207
  20 H :    0.096897
  21 H :    0.096493
  22 H :    0.105021
Sum of atomic charges:    0.0000000

LOEWDIN ATOMIC CHARGES
----------------------
   0 C :   -0.330115
   1 C :   -0.158460
   2 C :   -0.327702
   3 C :   -0.210540
   4 C :   -0.155872
   5 C :   -0.331713
   6 C :   -0.331068
   7 H :    0.115250
   8 H :    0.115993
   9 H :    0.115986
  10 H :    0.114769
  11 H :    0.114878
  12 H :    0.115494
  13 H :    0.114693
  14 H :    0.111891
  15 H :    0.113311
  16 H :    0.115584
  17 H :    0.114380
  18 H :    0.117184
  19 H :    0.115930
  20 H :    0.116361
  21 H :    0.117990
  22 H :    0.115775

  Mayer bond orders larger than 0.100000
B(  0-C ,  1-C ) :   1.1182 B(  0-C ,  7-H ) :   0.9404 B(  0-C ,  8-H ) :   0.9471
B(  0-C ,  9-H ) :   0.9480 B(  1-C ,  2-C ) :   1.1088 B(  1-C ,  3-C ) :   1.0836
B(  1-C , 10-H ) :   0.8947 B(  2-C , 11-H ) :   0.9504 B(  2-C , 12-H ) :   0.9518
B(  2-C , 13-H ) :   0.9491 B(  3-C ,  4-C ) :   1.0932 B(  3-C , 14-H ) :   0.9117
B(  3-C , 15-H ) :   0.9153 B(  4-C ,  5-C ) :   1.1213 B(  4-C ,  6-C ) :   1.1118
B(  4-C , 16-H ) :   0.8982 B(  5-C , 17-H ) :   0.9392 B(  5-C , 18-H ) :   0.9469
B(  5-C , 19-H ) :   0.9494 B(  6-C , 20-H ) :   0.9506 B(  6-C , 21-H ) :   0.9494
B(  6-C , 22-H ) :   0.9414

Dispersion correction           -0.018962308
FINAL SINGLE POINT ENERGY      -275.659375269840

DIPOLE MOMENT
-------------

Method             : SCF
Type of density    : Electron Density
Multiplicity       :   1
Irrep              :   0
Energy             :  -275.7366991557640858 Eh
Relativity type    :
Basis              : AO
                                X                 Y                 Z
Electronic contribution:      0.580854994      -0.672891757      -0.704378431
Nuclear contribution   :     -0.527365801       0.640749010       0.715981147
                        -----------------------------------------
Total Dipole Moment    :      0.053489194      -0.032142747       0.011602716
                        -----------------------------------------
Magnitude (a.u.)       :      0.063473404
Magnitude (Debye)      :      0.161336572

Rotational constants in cm-1:             0.127032             0.052745             0.045881
Rotational constants in MHz :          3808.328367          1581.257830          1375.486129

                             ****ORCA TERMINATED NORMALLY****
TOTAL RUN TIME: 0 days 0 hours 0 minutes 11 seconds 27 msec
