                         Program Version 6.0.0  -   RELEASE  -
|  1> ! pbe def2-sv(p) def2/J RI DEFGRID1 loosescf d4 GCP(DFT/SV(P)) printgap
|  2> %output
|  3>     printlevel normal
|  4> end
|  5> * xyz 0 1
|  6> C -1.0558378367 -0.5260109244 -0.2416384703
|  7> C 0.0102888652 0.2205301754 0.5731297812
|  8> C 1.3240780499 -0.5812930368 0.607732002
|  9> O 1.8410211719 -0.8007766496 -0.6822682721
| 10> O 0.2245437808 1.4788126933 -0.0372620888
| 11> O -2.3300035764 0.0609149622 -0.1641654273
| 12> H -1.0861032522 -1.5719139868 0.0881020985
| 13> H -0.7804062458 -0.4967138368 -1.2970259607
| 14> H -0.3515326522 0.3490905909 1.6029559097
| 15> H 1.1553331518 -1.565591452 1.0468987122
| 16> H 2.0612218328 -0.0428829748 1.2209704331
| 17> H 1.8253789491 0.0459677632 -1.1552376322
| 18> H 0.6885955989 2.0670351942 0.5741036773
| 19> H -2.6339422751 0.0522710953 0.7545617043
| 20> *
| 21>
| 22>                          ****END OF INPUT****

CARTESIAN COORDINATES (ANGSTROEM)
---------------------------------
  C     -1.055838   -0.526011   -0.241638
  C      0.010289    0.220530    0.573130
  C      1.324078   -0.581293    0.607732
  O      1.841021   -0.800777   -0.682268
  O      0.224544    1.478813   -0.037262
  O     -2.330004    0.060915   -0.164165
  H     -1.086103   -1.571914    0.088102
  H     -0.780406   -0.496714   -1.297026
  H     -0.351533    0.349091    1.602956
  H      1.155333   -1.565591    1.046899
  H      2.061222   -0.042883    1.220970
  H      1.825379    0.045968   -1.155238
  H      0.688596    2.067035    0.574104
  H     -2.633942    0.052271    0.754562

 Total Charge           Charge          ....    0
 Multiplicity           Mult            ....    1
 Number of Electrons    NEL             ....   50
 Basis Dimension        Dim             ....  100

ORBITAL ENERGIES
----------------

  NO   OCC          E(Eh)            E(eV)
   0   2.0000     -18.760896      -510.5099
   1   2.0000     -18.744259      -510.0572
   2   2.0000     -18.740857      -509.9646
   3   2.0000      -9.944857      -270.6133
   4   2.0000      -9.933261      -270.2978
   5   2.0000      -9.928637      -270.1719
   6   2.0000      -0.944584       -25.7034
   7   2.0000      -0.917940       -24.9784
   8   2.0000      -0.911977       -24.8162
   9   2.0000      -0.683484       -18.5986
  10   2.0000      -0.605429       -16.4746
  11   2.0000      -0.546506       -14.8712
  12   2.0000      -0.486853       -13.2479
  13   2.0000      -0.463112       -12.6019
  14   2.0000      -0.444678       -12.1003
  15   2.0000      -0.396816       -10.7979
  16   2.0000      -0.391038       -10.6407
  17   2.0000      -0.369146       -10.0450
  18   2.0000      -0.361176        -9.8281
  19   2.0000      -0.302883        -8.2419
  20   2.0000      -0.285857        -7.7786
  21   2.0000      -0.272774        -7.4226
  22   2.0000      -0.240966        -6.5570
  23   2.0000      -0.218248        -5.9388
  24   2.0000      -0.205563        -5.5937
  25   0.0000       0.008138         0.2214
  26   0.0000       0.033316         0.9066
  27   0.0000       0.059117         1.6087
  28   0.0000       0.070173         1.9095
  29   0.0000       0.079407         2.1608

MULLIKEN ATOMIC CHARGES
-----------------------
   0 C :    0.073330
   1 C :   -0.074777
   2 C :    0.044549
   3 O :   -0.438927
   4 O :   -0.416742
   5 O :   -0.426297
   6 H :    0.072321
   7 H :    0.086045
   8 H :    0.048093
   9 H :    0.083159
  10 H :    0.062048
  11 H :    0.296313
  12 H :    0.300941
  13 H :    0.289942
Sum of atomic charges:   -0.0000000

LOEWDIN ATOMIC CHARGES
----------------------
   0 C :   -0.126864
   1 C :   -0.104534
   2 C :   -0.134597
   3 O :   -0.338856
   4 O :   -0.322835
   5 O :   -0.332289
   6 H :    0.099019
   7 H :    0.120050
   8 H :    0.094469
   9 H :    0.113125
  10 H :    0.088966
  11 H :    0.278140
  12 H :    0.287287
  13 H :    0.278921

  Mayer bond orders larger than 0.100000
B(  0-C ,  1-C ) :   1.0243 B(  0-C ,  5-O ) :   1.0830 B(  0-C ,  6-H ) :   0.9265
B(  0-C ,  7-H ) :   0.9052 B(  1-C ,  2-C ) :   1.0298 B(  1-C ,  4-O ) :   1.0474
B(  1-C ,  8-H ) :   0.8919 B(  2-C ,  3-O ) :   1.0700 B(  2-C ,  9-H ) :   0.9156
B(  2-C , 10-H ) :   0.9151 B(  3-O , 11-H ) :   0.8343 B(  4-O , 12-H ) :   0.8505
B(  5-O , 13-H ) :   0.8556

Dispersion correction           -0.009208245
FINAL SINGLE POINT ENERGY      -344.005835607978

DIPOLE MOMENT
-------------

Method             : SCF
Type of density    : Electron Density
Multiplicity       :   1
Irrep              :   0
Energy             :  -344.0789550186133283 Eh
Relativity type    :
Basis              : AO
                                X                 Y                 Z
Electronic contribution:     -0.598009427       1.455289290      -1.462113465
Nuclear contribution   :      0.820300363      -1.079875058       2.646906065
                        -----------------------------------------
Total Dipole Moment    :      0.222290936       0.375414231       1.184792600
                        -----------------------------------------
Magnitude (a.u.)       :      1.262569844
Magnitude (Debye)      :      3.209197503

Rotational constants in cm-1:             0.197003             0.075601             0.065086
Rotational constants in MHz :          5905.995830          2266.468745          1951.220365

                             ****ORCA TERMINATED NORMALLY****
TOTAL RUN TIME: 0 days 0 hours 0 minutes 7 seconds 5 msec
