                         Program Version 6.0.0  -   RELEASE  -
|  1> ! pbe def2-sv(p) def2/J RI DEFGRID1 loosescf d4 GCP(DFT/SV(P)) printgap
|  2> %output
|  3>     printlevel normal
|  4> end
|  5> * xyz 0 1
|  6> C -1.0130227534 -0.4793887837 -0.2666933915
|  7> C 0.150910672 0.3722745485 0.2590140309
|  8> C 1.4723493355 -0.1004981376 -0.369433061
|  9> O 1.7267496782 -1.4177210764 0.0625120105
| 10> O -0.0479656967 1.7506643709 0.0532694515
| 11> O -2.2632245331 -0.1080243801 0.2618728548
| 12> H -0.7884757437 -1.5324132995 -0.0565024666
| 13> H -1.1058549886 -0.3494479758 -1.3486718979
| 14> H 0.2297650981 0.2504857329 1.3455854045
| 15> H 2.2668693059 0.5836746877 -0.0463608661
| 16> H 1.3901082562 -0.0598110579 -1.464280471
| 17> H 2.5757342006 -1.7137224941 -0.2948803657
| 18> H -0.3240463159 1.9048029837 -0.8615921281
| 19> H -2.2387214783 -0.1798546505 1.2257746525
| 20> *
| 21>
| 22>                          ****END OF INPUT****

CARTESIAN COORDINATES (ANGSTROEM)
---------------------------------
  C     -1.013023   -0.479389   -0.266693
  C      0.150911    0.372275    0.259014
  C      1.472349   -0.100498   -0.369433
  O      1.726750   -1.417721    0.062512
  O     -0.047966    1.750664    0.053269
  O     -2.263225   -0.108024    0.261873
  H     -0.788476   -1.532413   -0.056502
  H     -1.105855   -0.349448   -1.348672
  H      0.229765    0.250486    1.345585
  H      2.266869    0.583675   -0.046361
  H      1.390108   -0.059811   -1.464280
  H      2.575734   -1.713722   -0.294880
  H     -0.324046    1.904803   -0.861592
  H     -2.238721   -0.179855    1.225775

 Total Charge           Charge          ....    0
 Multiplicity           Mult            ....    1
 Number of Electrons    NEL             ....   50
 Basis Dimension        Dim             ....  100

ORBITAL ENERGIES
----------------

  NO   OCC          E(Eh)            E(eV)
   0   2.0000     -18.755064      -510.3512
   1   2.0000     -18.746212      -510.1104
   2   2.0000     -18.738756      -509.9075
   3   2.0000      -9.936859      -270.3957
   4   2.0000      -9.933305      -270.2990
   5   2.0000      -9.925813      -270.0951
   6   2.0000      -0.935495       -25.4561
   7   2.0000      -0.924520       -25.1575
   8   2.0000      -0.908595       -24.7241
   9   2.0000      -0.679650       -18.4942
  10   2.0000      -0.601685       -16.3727
  11   2.0000      -0.549544       -14.9539
  12   2.0000      -0.484034       -13.1712
  13   2.0000      -0.461064       -12.5462
  14   2.0000      -0.421277       -11.4635
  15   2.0000      -0.406852       -11.0710
  16   2.0000      -0.398930       -10.8554
  17   2.0000      -0.374315       -10.1856
  18   2.0000      -0.344813        -9.3828
  19   2.0000      -0.301628        -8.2077
  20   2.0000      -0.283476        -7.7138
  21   2.0000      -0.272447        -7.4137
  22   2.0000      -0.230686        -6.2773
  23   2.0000      -0.219830        -5.9819
  24   2.0000      -0.202237        -5.5031
  25   0.0000       0.018121         0.4931
  26   0.0000       0.029728         0.8089
  27   0.0000       0.038655         1.0518
  28   0.0000       0.077876         2.1191
  29   0.0000       0.092420         2.5149

MULLIKEN ATOMIC CHARGES
-----------------------
   0 C :    0.019051
   1 C :   -0.007900
   2 C :    0.013316
   3 O :   -0.434502
   4 O :   -0.418228
   5 O :   -0.427775
   6 H :    0.090844
   7 H :    0.065157
   8 H :    0.067264
   9 H :    0.083863
  10 H :    0.053340
  11 H :    0.303513
  12 H :    0.295775
  13 H :    0.296284
Sum of atomic charges:    0.0000000

LOEWDIN ATOMIC CHARGES
----------------------
   0 C :   -0.141819
   1 C :   -0.091370
   2 C :   -0.137637
   3 O :   -0.344997
   4 O :   -0.316236
   5 O :   -0.338147
   6 H :    0.105700
   7 H :    0.106023
   8 H :    0.111567
   9 H :    0.100518
  10 H :    0.089372
  11 H :    0.288806
  12 H :    0.284011
  13 H :    0.284210

  Mayer bond orders larger than 0.100000
B(  0-C ,  1-C ) :   1.0506 B(  0-C ,  5-O ) :   1.0851 B(  0-C ,  6-H ) :   0.9124
B(  0-C ,  7-H ) :   0.9102 B(  1-C ,  2-C ) :   1.0357 B(  1-C ,  4-O ) :   1.0510
B(  1-C ,  8-H ) :   0.8877 B(  2-C ,  3-O ) :   1.0731 B(  2-C ,  9-H ) :   0.9184
B(  2-C , 10-H ) :   0.9075 B(  3-O , 11-H ) :   0.8491 B(  4-O , 12-H ) :   0.8517
B(  5-O , 13-H ) :   0.8541

Dispersion correction           -0.009018194
FINAL SINGLE POINT ENERGY      -344.003979421029

DIPOLE MOMENT
-------------

Method             : SCF
Type of density    : Electron Density
Multiplicity       :   1
Irrep              :   0
Energy             :  -344.0767745763951666 Eh
Relativity type    :
Basis              : AO
                                X                 Y                 Z
Electronic contribution:     -1.080679265       0.715248113       1.029475512
Nuclear contribution   :      1.872712840      -1.025166061      -1.402522149
                        -----------------------------------------
Total Dipole Moment    :      0.792033575      -0.309917948      -0.373046637
                        -----------------------------------------
Magnitude (a.u.)       :      0.928724992
Magnitude (Debye)      :      2.360631328

Rotational constants in cm-1:             0.175102             0.079276             0.058980
Rotational constants in MHz :          5249.415784          2376.647551          1768.187205

                             ****ORCA TERMINATED NORMALLY****
TOTAL RUN TIME: 0 days 0 hours 0 minutes 6 seconds 562 msec
