                         Program Version 6.0.0  -   RELEASE  -
|  1> ! pbe def2-sv(p) def2/J RI DEFGRID1 loosescf d4 GCP(DFT/SV(P)) printgap
|  2> %output
|  3>     printlevel normal
|  4> end
|  5> * xyz 0 1
|  6> C 7.92363e-05 -2.5243954136 -6.30695e-05
|  7> C -2.72503e-05 -1.1911062182 -4.17509e-05
|  8> C -1.2552246537 -0.4196603638 -0.0452367395
|  9> C -2.3754890464 -0.8256823241 0.6757056453
| 10> C -3.5514397957 -0.1005384766 0.6157786071
| 11> C -3.6284479804 1.0387311458 -0.1681893755
| 12> C -2.520051083 1.4515223437 -0.8895128289
| 13> C -1.3415510252 0.7317042328 -0.8256875485
| 14> C 1.2552003872 -0.4196387392 0.0452019658
| 15> C 1.3414138396 0.7319058151 0.825409065
| 16> C 2.5199225062 1.4517161901 0.8893355777
| 17> C 3.6284424578 1.0388026898 0.168268898
| 18> C 3.5515505284 -0.1006002276 -0.6155333418
| 19> C 2.3755968851 -0.8257477327 -0.6754463458
| 20> H 0.9142358606 -3.0899401828 0.0524239425
| 21> H -0.9140445754 -3.0900370325 -0.0524492148
| 22> H -2.3148091469 -1.7043899067 1.3004770047
| 23> H -4.4105086232 -0.4234046339 1.185098039
| 24> H -4.5470442996 1.6040336501 -0.2146979462
| 25> H -2.573896125 2.3386911824 -1.5029347603
| 26> H -0.4795826554 1.0542776448 -1.392038037
| 27> H 0.4794676717 1.0546258796 1.3916982519
| 28> H 2.5736571796 2.3391177441 1.5024584187
| 29> H 4.5469895381 1.6042009115 0.2147448326
| 30> H 4.4107306154 -0.4236609972 -1.1845608673
| 31> H 2.3151024129 -1.704591945 -1.3000857005
| 32> *
| 33>
| 34>                          ****END OF INPUT****

CARTESIAN COORDINATES (ANGSTROEM)
---------------------------------
  C      0.000079   -2.524395   -0.000063
  C     -0.000027   -1.191106   -0.000042
  C     -1.255225   -0.419660   -0.045237
  C     -2.375489   -0.825682    0.675706
  C     -3.551440   -0.100538    0.615779
  C     -3.628448    1.038731   -0.168189
  C     -2.520051    1.451522   -0.889513
  C     -1.341551    0.731704   -0.825688
  C      1.255200   -0.419639    0.045202
  C      1.341414    0.731906    0.825409
  C      2.519923    1.451716    0.889336
  C      3.628442    1.038803    0.168269
  C      3.551551   -0.100600   -0.615533
  C      2.375597   -0.825748   -0.675446
  H      0.914236   -3.089940    0.052424
  H     -0.914045   -3.090037   -0.052449
  H     -2.314809   -1.704390    1.300477
  H     -4.410509   -0.423405    1.185098
  H     -4.547044    1.604034   -0.214698
  H     -2.573896    2.338691   -1.502935
  H     -0.479583    1.054278   -1.392038
  H      0.479468    1.054626    1.391698
  H      2.573657    2.339118    1.502458
  H      4.546990    1.604201    0.214745
  H      4.410731   -0.423661   -1.184561
  H      2.315102   -1.704592   -1.300086

 Total Charge           Charge          ....    0
 Multiplicity           Mult            ....    1
 Number of Electrons    NEL             ....   96
 Basis Dimension        Dim             ....  220

ORBITAL ENERGIES
----------------

  NO   OCC          E(Eh)            E(eV)
   0   2.0000      -9.906126      -269.5594
   1   2.0000      -9.903366      -269.4843
   2   2.0000      -9.903343      -269.4837
   3   2.0000      -9.893607      -269.2187
   4   2.0000      -9.893603      -269.2186
   5   2.0000      -9.893495      -269.2157
   6   2.0000      -9.893492      -269.2156
   7   2.0000      -9.893056      -269.2037
   8   2.0000      -9.893053      -269.2037
   9   2.0000      -9.892989      -269.2019
  10   2.0000      -9.892978      -269.2016
  11   2.0000      -9.892414      -269.1863
  12   2.0000      -9.892396      -269.1858
  13   2.0000      -9.882765      -268.9237
  14   2.0000      -0.790514       -21.5110
  15   2.0000      -0.774884       -21.0857
  16   2.0000      -0.727439       -19.7946
  17   2.0000      -0.673795       -18.3349
  18   2.0000      -0.673172       -18.3179
  19   2.0000      -0.667179       -18.1549
  20   2.0000      -0.644100       -17.5268
  21   2.0000      -0.568571       -15.4716
  22   2.0000      -0.546916       -14.8823
  23   2.0000      -0.538349       -14.6492
  24   2.0000      -0.535664       -14.5762
  25   2.0000      -0.496843       -13.5198
  26   2.0000      -0.476253       -12.9595
  27   2.0000      -0.449489       -12.2312
  28   2.0000      -0.418170       -11.3790
  29   2.0000      -0.414431       -11.2773
  30   2.0000      -0.402741       -10.9591
  31   2.0000      -0.393626       -10.7111
  32   2.0000      -0.393293       -10.7021
  33   2.0000      -0.376358       -10.2412
  34   2.0000      -0.375793       -10.2258
  35   2.0000      -0.371584       -10.1113
  36   2.0000      -0.340111        -9.2549
  37   2.0000      -0.333653        -9.0792
  38   2.0000      -0.333612        -9.0781
  39   2.0000      -0.314080        -8.5465
  40   2.0000      -0.304951        -8.2981
  41   2.0000      -0.297528        -8.0962
  42   2.0000      -0.291354        -7.9282
  43   2.0000      -0.267639        -7.2828
  44   2.0000      -0.235562        -6.4100
  45   2.0000      -0.231287        -6.2936
  46   2.0000      -0.228619        -6.2210
  47   2.0000      -0.200324        -5.4511
  48   0.0000      -0.064851        -1.7647
  49   0.0000      -0.043340        -1.1794
  50   0.0000      -0.039142        -1.0651
  51   0.0000      -0.028156        -0.7662
  52   0.0000       0.021942         0.5971

MULLIKEN ATOMIC CHARGES
-----------------------
   0 C :   -0.229006
   1 C :    0.042409
   2 C :    0.091445
   3 C :   -0.118603
   4 C :   -0.047231
   5 C :   -0.044400
   6 C :   -0.052274
   7 C :   -0.101204
   8 C :    0.091520
   9 C :   -0.101260
  10 C :   -0.052272
  11 C :   -0.044414
  12 C :   -0.047226
  13 C :   -0.118662
  14 H :    0.096838
  15 H :    0.096833
  16 H :    0.045988
  17 H :    0.052344
  18 H :    0.053960
  19 H :    0.053237
  20 H :    0.063222
  21 H :    0.063220
  22 H :    0.053241
  23 H :    0.053960
  24 H :    0.052339
  25 H :    0.045998
Sum of atomic charges:    0.0000000

LOEWDIN ATOMIC CHARGES
----------------------
   0 C :   -0.234780
   1 C :   -0.027563
   2 C :   -0.030928
   3 C :   -0.112989
   4 C :   -0.121185
   5 C :   -0.123293
   6 C :   -0.121404
   7 C :   -0.109521
   8 C :   -0.030927
   9 C :   -0.109527
  10 C :   -0.121409
  11 C :   -0.123293
  12 C :   -0.121190
  13 C :   -0.112988
  14 H :    0.123380
  15 H :    0.123376
  16 H :    0.125305
  17 H :    0.124027
  18 H :    0.123686
  19 H :    0.124396
  20 H :    0.129710
  21 H :    0.129709
  22 H :    0.124394
  23 H :    0.123683
  24 H :    0.124028
  25 H :    0.125301

  Mayer bond orders larger than 0.100000
B(  0-C ,  1-C ) :   1.9667 B(  0-C , 14-H ) :   0.9000 B(  0-C , 15-H ) :   0.9000
B(  1-C ,  2-C ) :   1.0005 B(  1-C ,  8-C ) :   1.0006 B(  2-C ,  3-C ) :   1.3688
B(  2-C ,  7-C ) :   1.3711 B(  3-C ,  4-C ) :   1.3656 B(  3-C , 16-H ) :   0.9598
B(  4-C ,  5-C ) :   1.3740 B(  4-C , 17-H ) :   0.9631 B(  5-C ,  6-C ) :   1.3719
B(  5-C , 18-H ) :   0.9655 B(  6-C ,  7-C ) :   1.3722 B(  6-C , 19-H ) :   0.9639
B(  7-C , 20-H ) :   0.9541 B(  8-C ,  9-C ) :   1.3711 B(  8-C , 13-C ) :   1.3688
B(  9-C , 10-C ) :   1.3722 B(  9-C , 21-H ) :   0.9541 B( 10-C , 11-C ) :   1.3719
B( 10-C , 22-H ) :   0.9639 B( 11-C , 12-C ) :   1.3740 B( 11-C , 23-H ) :   0.9655
B( 12-C , 13-C ) :   1.3657 B( 12-C , 24-H ) :   0.9631 B( 13-C , 25-H ) :   0.9598

Dispersion correction           -0.033901886
FINAL SINGLE POINT ENERGY      -539.513470670985

DIPOLE MOMENT
-------------

Method             : SCF
Type of density    : Electron Density
Multiplicity       :   1
Irrep              :   0
Energy             :  -539.5740050794565832 Eh
Relativity type    :
Basis              : AO
                                X                 Y                 Z
Electronic contribution:     -0.000326691       0.546391792      -0.000102957
Nuclear contribution   :      0.000279437      -0.413805928       0.000125680
                        -----------------------------------------
Total Dipole Moment    :     -0.000047255       0.132585864       0.000022724
                        -----------------------------------------
Magnitude (a.u.)       :      0.132585875
Magnitude (Debye)      :      0.337006511

Rotational constants in cm-1:             0.052890             0.014450             0.012548
Rotational constants in MHz :          1585.601964           433.200752           376.190943

                             ****ORCA TERMINATED NORMALLY****
TOTAL RUN TIME: 0 days 0 hours 0 minutes 19 seconds 692 msec
