                         Program Version 6.0.0  -   RELEASE  -
|  1> ! r2scan-3c def2/J RI DEFGRID2 scfconv6 printgap
|  2> %output
|  3>     printlevel normal
|  4> end
|  5> * xyz 0 1
|  6> C 2.2982436663 -0.2777411263 -0.7324724297
|  7> C 1.5336256138 -0.5862660489 0.5502526448
|  8> C 0.3379870363 0.3357909249 0.7830038083
|  9> C -0.772875777 0.2559991805 -0.269466302
| 10> H -0.3518680708 0.4798265774 -1.2622010321
| 11> C -1.4510116414 -1.1116967494 -0.3057435059
| 12> O -1.7003228823 1.280488595 0.0688094702
| 13> H 3.2006465044 -0.8820413079 -0.7848304582
| 14> H 2.5844434745 0.7710827975 -0.7602307386
| 15> H 1.6952289068 -0.4934738294 -1.6104664259
| 16> H 1.2041708422 -1.6260810399 0.5383901265
| 17> H 2.2102965138 -0.4688401288 1.399284105
| 18> H -0.1109730527 0.1125312719 1.7532799668
| 19> H 0.6786043339 1.3733158223 0.8135780557
| 20> H -2.2650887507 -1.1123062191 -1.0276001562
| 21> H -0.7384047925 -1.8772489123 -0.5952625299
| 22> H -1.8532583562 -1.3515465283 0.6757452153
| 23> H -2.4527126342 1.2402142335 -0.5367316078
| 24> *
| 25>
| 26>                          ****END OF INPUT****

CARTESIAN COORDINATES (ANGSTROEM)
---------------------------------
  C      2.298244   -0.277741   -0.732472
  C      1.533626   -0.586266    0.550253
  C      0.337987    0.335791    0.783004
  C     -0.772876    0.255999   -0.269466
  H     -0.351868    0.479827   -1.262201
  C     -1.451012   -1.111697   -0.305744
  O     -1.700323    1.280489    0.068809
  H      3.200647   -0.882041   -0.784830
  H      2.584443    0.771083   -0.760231
  H      1.695229   -0.493474   -1.610466
  H      1.204171   -1.626081    0.538390
  H      2.210297   -0.468840    1.399284
  H     -0.110973    0.112531    1.753280
  H      0.678604    1.373316    0.813578
  H     -2.265089   -1.112306   -1.027600
  H     -0.738405   -1.877249   -0.595263
  H     -1.853258   -1.351547    0.675745
  H     -2.452713    1.240214   -0.536732

 Total Charge           Charge          ....    0
 Multiplicity           Mult            ....    1
 Number of Electrons    NEL             ....   50
 Basis Dimension        Dim             ....  179

ORBITAL ENERGIES
----------------

  NO   OCC          E(Eh)            E(eV)
   0   2.0000     -18.942480      -515.4511
   1   2.0000     -10.078926      -274.2615
   2   2.0000     -10.026933      -272.8467
   3   2.0000     -10.020336      -272.6672
   4   2.0000     -10.020031      -272.6589
   5   2.0000     -10.017038      -272.5775
   6   2.0000      -0.979815       -26.6621
   7   2.0000      -0.765131       -20.8203
   8   2.0000      -0.708546       -19.2805
   9   2.0000      -0.651654       -17.7324
  10   2.0000      -0.587669       -15.9913
  11   2.0000      -0.522550       -14.2193
  12   2.0000      -0.475444       -12.9375
  13   2.0000      -0.439542       -11.9605
  14   2.0000      -0.416290       -11.3278
  15   2.0000      -0.391267       -10.6469
  16   2.0000      -0.385585       -10.4923
  17   2.0000      -0.363921        -9.9028
  18   2.0000      -0.345755        -9.4085
  19   2.0000      -0.329978        -8.9792
  20   2.0000      -0.316088        -8.6012
  21   2.0000      -0.304126        -8.2757
  22   2.0000      -0.298317        -8.1176
  23   2.0000      -0.276113        -7.5134
  24   2.0000      -0.232602        -6.3294
  25   0.0000       0.065694         1.7876
  26   0.0000       0.086019         2.3407
  27   0.0000       0.117244         3.1904
  28   0.0000       0.122785         3.3412
  29   0.0000       0.131592         3.5808

MULLIKEN ATOMIC CHARGES
-----------------------
   0 C :   -0.479536
   1 C :   -0.264991
   2 C :   -0.247420
   3 C :    0.026055
   4 H :    0.131178
   5 C :   -0.498081
   6 O :   -0.421311
   7 H :    0.146187
   8 H :    0.148445
   9 H :    0.145286
  10 H :    0.140513
  11 H :    0.142300
  12 H :    0.146376
  13 H :    0.153795
  14 H :    0.135004
  15 H :    0.150926
  16 H :    0.162837
  17 H :    0.282437
Sum of atomic charges:   -0.0000000

LOEWDIN ATOMIC CHARGES
----------------------
   0 C :   -0.427179
   1 C :   -0.313686
   2 C :   -0.273887
   3 C :    0.047396
   4 H :    0.159937
   5 C :   -0.401013
   6 O :   -0.618731
   7 H :    0.150563
   8 H :    0.152112
   9 H :    0.147360
  10 H :    0.150842
  11 H :    0.154391
  12 H :    0.165135
  13 H :    0.168242
  14 H :    0.151833
  15 H :    0.157545
  16 H :    0.162083
  17 H :    0.267057

  Mayer bond orders larger than 0.100000
B(  0-C ,  1-C ) :   0.8889 B(  0-C ,  7-H ) :   0.9700 B(  0-C ,  8-H ) :   0.9804
B(  0-C ,  9-H ) :   0.9793 B(  1-C ,  2-C ) :   0.8875 B(  1-C , 10-H ) :   0.9846
B(  1-C , 11-H ) :   0.9628 B(  2-C ,  3-C ) :   0.9198 B(  2-C , 12-H ) :   0.9732
B(  2-C , 13-H ) :   0.9740 B(  3-C ,  4-H ) :   0.9666 B(  3-C ,  5-C ) :   0.9032
B(  3-C ,  6-O ) :   0.8867 B(  5-C , 14-H ) :   0.9663 B(  5-C , 15-H ) :   0.9697
B(  5-C , 16-H ) :   0.9807 B(  6-O , 17-H ) :   0.9029

Dispersion correction           -0.004330952
FINAL SINGLE POINT ENERGY      -272.901995902359

DIPOLE MOMENT
-------------

Method             : SCF
Type of density    : Electron Density
Multiplicity       :   1
Irrep              :   0
Energy             :  -272.9072713647997830 Eh
Relativity type    :
Basis              : AO
                                X                 Y                 Z
Electronic contribution:     -3.557069396       3.159522410       0.917776031
Nuclear contribution   :      3.540806059      -3.578448507      -1.309636092
                        -----------------------------------------
Total Dipole Moment    :     -0.016263337      -0.418926097      -0.391860061
                        -----------------------------------------
Magnitude (a.u.)       :      0.573862247
Magnitude (Debye)      :      1.458641912

Rotational constants in cm-1:             0.190892             0.066602             0.060409
Rotational constants in MHz :          5722.797473          1996.667685          1811.012451

                             ****ORCA TERMINATED NORMALLY****
TOTAL RUN TIME: 0 days 0 hours 0 minutes 22 seconds 823 msec
