                         Program Version 6.0.0  -   RELEASE  -
|  1> ! r2scan-3c def2/J RI DEFGRID2 scfconv6 printgap
|  2> %output
|  3>     printlevel normal
|  4> end
|  5> %cpcm
|  6>     smd true
|  7>     smdsolvent "water"
|  8> end
|  9> * xyz 0 1
| 10> C 2.2982436663 -0.2777411263 -0.7324724297
| 11> C 1.5336256138 -0.5862660489 0.5502526448
| 12> C 0.3379870363 0.3357909249 0.7830038083
| 13> C -0.772875777 0.2559991805 -0.269466302
| 14> H -0.3518680708 0.4798265774 -1.2622010321
| 15> C -1.4510116414 -1.1116967494 -0.3057435059
| 16> O -1.7003228823 1.280488595 0.0688094702
| 17> H 3.2006465044 -0.8820413079 -0.7848304582
| 18> H 2.5844434745 0.7710827975 -0.7602307386
| 19> H 1.6952289068 -0.4934738294 -1.6104664259
| 20> H 1.2041708422 -1.6260810399 0.5383901265
| 21> H 2.2102965138 -0.4688401288 1.399284105
| 22> H -0.1109730527 0.1125312719 1.7532799668
| 23> H 0.6786043339 1.3733158223 0.8135780557
| 24> H -2.2650887507 -1.1123062191 -1.0276001562
| 25> H -0.7384047925 -1.8772489123 -0.5952625299
| 26> H -1.8532583562 -1.3515465283 0.6757452153
| 27> H -2.4527126342 1.2402142335 -0.5367316078
| 28> *
| 29>
| 30>                          ****END OF INPUT****

CARTESIAN COORDINATES (ANGSTROEM)
---------------------------------
  C      2.298244   -0.277741   -0.732472
  C      1.533626   -0.586266    0.550253
  C      0.337987    0.335791    0.783004
  C     -0.772876    0.255999   -0.269466
  H     -0.351868    0.479827   -1.262201
  C     -1.451012   -1.111697   -0.305744
  O     -1.700323    1.280489    0.068809
  H      3.200647   -0.882041   -0.784830
  H      2.584443    0.771083   -0.760231
  H      1.695229   -0.493474   -1.610466
  H      1.204171   -1.626081    0.538390
  H      2.210297   -0.468840    1.399284
  H     -0.110973    0.112531    1.753280
  H      0.678604    1.373316    0.813578
  H     -2.265089   -1.112306   -1.027600
  H     -0.738405   -1.877249   -0.595263
  H     -1.853258   -1.351547    0.675745
  H     -2.452713    1.240214   -0.536732

 Total Charge           Charge          ....    0
 Multiplicity           Mult            ....    1
 Number of Electrons    NEL             ....   50
 Basis Dimension        Dim             ....  179

ORBITAL ENERGIES
----------------

  NO   OCC          E(Eh)            E(eV)
   0   2.0000     -18.947411      -515.5853
   1   2.0000     -10.074203      -274.1330
   2   2.0000     -10.018701      -272.6227
   3   2.0000     -10.015864      -272.5455
   4   2.0000     -10.009483      -272.3719
   5   2.0000     -10.007791      -272.3258
   6   2.0000      -0.983505       -26.7625
   7   2.0000      -0.758790       -20.6477
   8   2.0000      -0.700754       -19.0685
   9   2.0000      -0.644601       -17.5405
  10   2.0000      -0.581459       -15.8223
  11   2.0000      -0.517342       -14.0776
  12   2.0000      -0.472570       -12.8593
  13   2.0000      -0.432487       -11.7686
  14   2.0000      -0.412276       -11.2186
  15   2.0000      -0.384119       -10.4524
  16   2.0000      -0.377260       -10.2658
  17   2.0000      -0.356659        -9.7052
  18   2.0000      -0.339985        -9.2515
  19   2.0000      -0.323578        -8.8050
  20   2.0000      -0.313729        -8.5370
  21   2.0000      -0.297731        -8.1017
  22   2.0000      -0.292732        -7.9657
  23   2.0000      -0.272566        -7.4169
  24   2.0000      -0.237711        -6.4684
  25   0.0000       0.081636         2.2214
  26   0.0000       0.095432         2.5968
  27   0.0000       0.125858         3.4248
  28   0.0000       0.130937         3.5630
  29   0.0000       0.139171         3.7870

MULLIKEN ATOMIC CHARGES
-----------------------
   0 C :   -0.518072
   1 C :   -0.272758
   2 C :   -0.264416
   3 C :    0.048301
   4 H :    0.144263
   5 C :   -0.541772
   6 O :   -0.512902
   7 H :    0.156293
   8 H :    0.156658
   9 H :    0.159815
  10 H :    0.153476
  11 H :    0.150583
  12 H :    0.152428
  13 H :    0.153997
  14 H :    0.160764
  15 H :    0.168511
  16 H :    0.165764
  17 H :    0.339066
Sum of atomic charges:   -0.0000000

LOEWDIN ATOMIC CHARGES
----------------------
   0 C :   -0.434294
   1 C :   -0.313279
   2 C :   -0.281006
   3 C :    0.048892
   4 H :    0.167375
   5 C :   -0.404908
   6 O :   -0.657421
   7 H :    0.153040
   8 H :    0.153634
   9 H :    0.151775
  10 H :    0.155594
  11 H :    0.156575
  12 H :    0.165262
  13 H :    0.166384
  14 H :    0.160307
  15 H :    0.164378
  16 H :    0.161989
  17 H :    0.285702

  Mayer bond orders larger than 0.100000
B(  0-C ,  1-C ) :   0.8835 B(  0-C ,  7-H ) :   0.9680 B(  0-C ,  8-H ) :   0.9784
B(  0-C ,  9-H ) :   0.9761 B(  1-C ,  2-C ) :   0.8979 B(  1-C , 10-H ) :   0.9834
B(  1-C , 11-H ) :   0.9615 B(  2-C ,  3-C ) :   0.9128 B(  2-C , 12-H ) :   0.9686
B(  2-C , 13-H ) :   0.9705 B(  3-C ,  4-H ) :   0.9613 B(  3-C ,  5-C ) :   0.9107
B(  3-C ,  6-O ) :   0.8690 B(  5-C , 14-H ) :   0.9625 B(  5-C , 15-H ) :   0.9641
B(  5-C , 16-H ) :   0.9769 B(  6-O , 17-H ) :   0.8771

Dispersion correction           -0.004330952
FINAL SINGLE POINT ENERGY      -272.908623052029

DIPOLE MOMENT
-------------

Method             : SCF
Type of density    : Electron Density
Multiplicity       :   1
Irrep              :   0
Energy             :  -272.9138985144697926 Eh
Relativity type    :
Basis              : AO
                                X                 Y                 Z
Electronic contribution:     -3.571918239       2.950087246       0.694924718
Nuclear contribution   :      3.540806059      -3.578448507      -1.309636092
                        -----------------------------------------
Total Dipole Moment    :     -0.031112180      -0.628361261      -0.614711374
                        -----------------------------------------
Magnitude (a.u.)       :      0.879588492
Magnitude (Debye)      :      2.235736271

Rotational constants in cm-1:             0.190892             0.066602             0.060409
Rotational constants in MHz :          5722.797473          1996.667685          1811.012451

                             ****ORCA TERMINATED NORMALLY****
TOTAL RUN TIME: 0 days 0 hours 0 minutes 26 seconds 908 msec
