                         Program Version 6.0.0  -   RELEASE  -
|  1> ! pbe def2-sv(p) def2/J RI DEFGRID1 loosescf d4 GCP(DFT/SV(P)) printgap
|  2> %output
|  3>     printlevel normal
|  4> end
|  5> * xyz 0 1
|  6> C 2.2271937258 -0.685792821 -0.8675556839
|  7> C 1.1910229814 -0.2716102357 0.1749842089
|  8> C 1.6843562345 0.9335499435 0.9799388256
|  9> O 0.0001319263 0.0002839799 -0.5564289243
| 10> C -1.1912479276 0.2717285086 0.1743469208
| 11> C -2.226894534 0.6855297891 -0.8688566551
| 12> C -1.6845801308 -0.9336594194 0.9790007323
| 13> H 1.8432206832 -1.5138771 -1.4564164326
| 14> H 2.4257917287 0.1482644714 -1.5347868372
| 15> H 3.1490715119 -0.987239278 -0.380381251
| 16> H 1.0168089739 -1.1159319616 0.8602262668
| 17> H 1.0123546422 1.1622314213 1.803403653
| 18> H 1.755645295 1.8035126648 0.3314692836
| 19> H 2.6657029167 0.7142865844 1.3894560284
| 20> H -1.0177673881 1.1160968464 0.859725953
| 21> H -3.150072508 0.9841680796 -0.3824280316
| 22> H -1.8439362652 1.5154071706 -1.4558329827
| 23> H -2.4227609203 -0.1478546127 -1.5377218224
| 24> H -1.7540319103 -1.8039156345 0.3307404423
| 25> H -2.6667465163 -0.7152588191 1.3869754533
| 26> H -1.0135910753 -1.1613680483 1.803566415
| 27> *
| 28>
| 29>                          ****END OF INPUT****

CARTESIAN COORDINATES (ANGSTROEM)
---------------------------------
  C      2.227194   -0.685793   -0.867556
  C      1.191023   -0.271610    0.174984
  C      1.684356    0.933550    0.979939
  O      0.000132    0.000284   -0.556429
  C     -1.191248    0.271729    0.174347
  C     -2.226895    0.685530   -0.868857
  C     -1.684580   -0.933659    0.979001
  H      1.843221   -1.513877   -1.456416
  H      2.425792    0.148264   -1.534787
  H      3.149072   -0.987239   -0.380381
  H      1.016809   -1.115932    0.860226
  H      1.012355    1.162231    1.803404
  H      1.755645    1.803513    0.331469
  H      2.665703    0.714287    1.389456
  H     -1.017767    1.116097    0.859726
  H     -3.150073    0.984168   -0.382428
  H     -1.843936    1.515407   -1.455833
  H     -2.422761   -0.147855   -1.537722
  H     -1.754032   -1.803916    0.330740
  H     -2.666747   -0.715259    1.386975
  H     -1.013591   -1.161368    1.803566

 Total Charge           Charge          ....    0
 Multiplicity           Mult            ....    1
 Number of Electrons    NEL             ....   58
 Basis Dimension        Dim             ....  126

ORBITAL ENERGIES
----------------

  NO   OCC          E(Eh)            E(eV)
   0   2.0000     -18.740217      -509.9472
   1   2.0000      -9.935458      -270.3576
   2   2.0000      -9.935454      -270.3575
   3   2.0000      -9.873537      -268.6726
   4   2.0000      -9.873526      -268.6723
   5   2.0000      -9.869447      -268.5613
   6   2.0000      -9.869442      -268.5612
   7   2.0000      -0.922036       -25.0899
   8   2.0000      -0.716894       -19.5077
   9   2.0000      -0.670010       -18.2319
  10   2.0000      -0.613997       -16.7077
  11   2.0000      -0.613718       -16.7001
  12   2.0000      -0.538309       -14.6481
  13   2.0000      -0.490904       -13.3582
  14   2.0000      -0.455060       -12.3828
  15   2.0000      -0.409312       -11.1380
  16   2.0000      -0.403221       -10.9722
  17   2.0000      -0.378450       -10.2981
  18   2.0000      -0.362844        -9.8735
  19   2.0000      -0.361590        -9.8394
  20   2.0000      -0.342889        -9.3305
  21   2.0000      -0.340675        -9.2702
  22   2.0000      -0.324488        -8.8298
  23   2.0000      -0.315132        -8.5752
  24   2.0000      -0.312123        -8.4933
  25   2.0000      -0.295636        -8.0447
  26   2.0000      -0.295337        -8.0365
  27   2.0000      -0.246900        -6.7185
  28   2.0000      -0.199798        -5.4368
  29   0.0000       0.031456         0.8560
  30   0.0000       0.060027         1.6334
  31   0.0000       0.071419         1.9434
  32   0.0000       0.073877         2.0103
  33   0.0000       0.081228         2.2103

MULLIKEN ATOMIC CHARGES
-----------------------
   0 C :   -0.238015
   1 C :    0.000482
   2 C :   -0.272031
   3 O :   -0.327988
   4 C :    0.000515
   5 C :   -0.238008
   6 C :   -0.272101
   7 H :    0.105119
   8 H :    0.099862
   9 H :    0.094377
  10 H :    0.062847
  11 H :    0.109776
  12 H :    0.102204
  13 H :    0.099373
  14 H :    0.062842
  15 H :    0.094361
  16 H :    0.105106
  17 H :    0.099884
  18 H :    0.102218
  19 H :    0.099382
  20 H :    0.109793
Sum of atomic charges:   -0.0000000

LOEWDIN ATOMIC CHARGES
----------------------
   0 C :   -0.338787
   1 C :   -0.051575
   2 C :   -0.352110
   3 O :   -0.162920
   4 C :   -0.051566
   5 C :   -0.338786
   6 C :   -0.352135
   7 H :    0.122327
   8 H :    0.121402
   9 H :    0.120119
  10 H :    0.095385
  11 H :    0.117543
  12 H :    0.122839
  13 H :    0.124322
  14 H :    0.095380
  15 H :    0.120104
  16 H :    0.122317
  17 H :    0.121422
  18 H :    0.122850
  19 H :    0.124321
  20 H :    0.117548

  Mayer bond orders larger than 0.100000
B(  0-C ,  1-C ) :   1.1170 B(  0-C ,  7-H ) :   0.9465 B(  0-C ,  8-H ) :   0.9481
B(  0-C ,  9-H ) :   0.9460 B(  1-C ,  2-C ) :   1.1024 B(  1-C ,  3-O ) :   1.0148
B(  1-C , 10-H ) :   0.9002 B(  2-C , 11-H ) :   0.9417 B(  2-C , 12-H ) :   0.9405
B(  2-C , 13-H ) :   0.9425 B(  3-O ,  4-C ) :   1.0149 B(  4-C ,  5-C ) :   1.1169
B(  4-C ,  6-C ) :   1.1024 B(  4-C , 14-H ) :   0.9001 B(  5-C , 15-H ) :   0.9460
B(  5-C , 16-H ) :   0.9465 B(  5-C , 17-H ) :   0.9481 B(  6-C , 18-H ) :   0.9405
B(  6-C , 19-H ) :   0.9425 B(  6-C , 20-H ) :   0.9417

Dispersion correction           -0.015799071
FINAL SINGLE POINT ENERGY      -311.522666229237

DIPOLE MOMENT
-------------

Method             : SCF
Type of density    : Electron Density
Multiplicity       :   1
Irrep              :   0
Energy             :  -311.6010042814473877 Eh
Relativity type    :
Basis              : AO
                                X                 Y                 Z
Electronic contribution:      0.000135059       0.001206954      -1.451712337
Nuclear contribution   :     -0.000289653      -0.001382593       1.884952579
                        -----------------------------------------
Total Dipole Moment    :     -0.000154595      -0.000175640       0.433240242
                        -----------------------------------------
Magnitude (a.u.)       :      0.433240305
Magnitude (Debye)      :      1.101209342

Rotational constants in cm-1:             0.138715             0.049840             0.047709
Rotational constants in MHz :          4158.560517          1494.179786          1430.278449

                             ****ORCA TERMINATED NORMALLY****
TOTAL RUN TIME: 0 days 0 hours 0 minutes 7 seconds 348 msec
