                         Program Version 6.0.0  -   RELEASE  -
|  1> ! r2scan-3c def2/J RI DEFGRID2 scfconv6 printgap
|  2> %output
|  3>     printlevel normal
|  4> end
|  5> * xyz 0 1
|  6> C 1.9457099563 -1.3827237683 -0.1994773406
|  7> C 1.059929505 -0.2531192605 0.3243889375
|  8> C 1.6964736972 1.0982018352 0.0050845963
|  9> C -0.3421464042 -0.3779696798 -0.2782503367
| 10> C -1.363522286 0.5762448465 0.3346741099
| 11> O -2.6440775929 0.2362463139 -0.1660549641
| 12> H 1.519826267 -2.3519374526 0.0480823427
| 13> H 2.9390624016 -1.3215815738 0.2381599526
| 14> H 2.0410571125 -1.3156395736 -1.2807868662
| 15> H 0.9777526315 -0.3523257446 1.4128662423
| 16> H 1.7357063866 1.2512367752 -1.0709736434
| 17> H 2.7111766792 1.1353207904 0.3941400288
| 18> H 1.1328203195 1.9128033577 0.4511938812
| 19> H -0.7157401438 -1.3927446016 -0.1247973738
| 20> H -0.3027729663 -0.2029064896 -1.3549746118
| 21> H -1.3477772 0.4773389613 1.4293257756
| 22> H -1.1239041727 1.6139951505 0.0721996708
| 23> H -3.3033314038 0.8404438488 0.1999802926
| 24> *
| 25>
| 26>                          ****END OF INPUT****

CARTESIAN COORDINATES (ANGSTROEM)
---------------------------------
  C      1.945710   -1.382724   -0.199477
  C      1.059930   -0.253119    0.324389
  C      1.696474    1.098202    0.005085
  C     -0.342146   -0.377970   -0.278250
  C     -1.363522    0.576245    0.334674
  O     -2.644078    0.236246   -0.166055
  H      1.519826   -2.351937    0.048082
  H      2.939062   -1.321582    0.238160
  H      2.041057   -1.315640   -1.280787
  H      0.977753   -0.352326    1.412866
  H      1.735706    1.251237   -1.070974
  H      2.711177    1.135321    0.394140
  H      1.132820    1.912803    0.451194
  H     -0.715740   -1.392745   -0.124797
  H     -0.302773   -0.202906   -1.354975
  H     -1.347777    0.477339    1.429326
  H     -1.123904    1.613995    0.072200
  H     -3.303331    0.840444    0.199980

 Total Charge           Charge          ....    0
 Multiplicity           Mult            ....    1
 Number of Electrons    NEL             ....   50
 Basis Dimension        Dim             ....  179

ORBITAL ENERGIES
----------------

  NO   OCC          E(Eh)            E(eV)
   0   2.0000     -18.945219      -515.5256
   1   2.0000     -10.072749      -274.0934
   2   2.0000     -10.035458      -273.0787
   3   2.0000     -10.020585      -272.6740
   4   2.0000     -10.016158      -272.5535
   5   2.0000     -10.014719      -272.5144
   6   2.0000      -0.980895       -26.6915
   7   2.0000      -0.777975       -21.1698
   8   2.0000      -0.691625       -18.8201
   9   2.0000      -0.650730       -17.7073
  10   2.0000      -0.584800       -15.9132
  11   2.0000      -0.527465       -14.3531
  12   2.0000      -0.477050       -12.9812
  13   2.0000      -0.442379       -12.0377
  14   2.0000      -0.415141       -11.2966
  15   2.0000      -0.398520       -10.8443
  16   2.0000      -0.388638       -10.5754
  17   2.0000      -0.355816        -9.6823
  18   2.0000      -0.346731        -9.4350
  19   2.0000      -0.328709        -8.9446
  20   2.0000      -0.312635        -8.5072
  21   2.0000      -0.295915        -8.0523
  22   2.0000      -0.293054        -7.9744
  23   2.0000      -0.281460        -7.6589
  24   2.0000      -0.233805        -6.3622
  25   0.0000       0.059764         1.6263
  26   0.0000       0.086725         2.3599
  27   0.0000       0.115832         3.1520
  28   0.0000       0.126676         3.4470
  29   0.0000       0.129783         3.5316

MULLIKEN ATOMIC CHARGES
-----------------------
   0 C :   -0.472666
   1 C :   -0.047073
   2 C :   -0.498098
   3 C :   -0.232873
   4 C :   -0.181473
   5 O :   -0.427254
   6 H :    0.146623
   7 H :    0.146117
   8 H :    0.145806
   9 H :    0.141644
  10 H :    0.151962
  11 H :    0.143188
  12 H :    0.147141
  13 H :    0.149863
  14 H :    0.146342
  15 H :    0.123111
  16 H :    0.128262
  17 H :    0.289379
Sum of atomic charges:   -0.0000000

LOEWDIN ATOMIC CHARGES
----------------------
   0 C :   -0.415474
   1 C :   -0.247408
   2 C :   -0.417587
   3 C :   -0.275644
   4 C :    0.007221
   5 O :   -0.629235
   6 H :    0.153524
   7 H :    0.151981
   8 H :    0.154443
   9 H :    0.154671
  10 H :    0.154813
  11 H :    0.153365
  12 H :    0.151586
  13 H :    0.167425
  14 H :    0.162734
  15 H :    0.153697
  16 H :    0.154541
  17 H :    0.265347

  Mayer bond orders larger than 0.100000
B(  0-C ,  1-C ) :   0.9077 B(  0-C ,  6-H ) :   0.9780 B(  0-C ,  7-H ) :   0.9766
B(  0-C ,  8-H ) :   0.9840 B(  1-C ,  2-C ) :   0.9002 B(  1-C ,  3-C ) :   0.8994
B(  1-C ,  9-H ) :   0.9579 B(  2-C , 10-H ) :   0.9859 B(  2-C , 11-H ) :   0.9709
B(  2-C , 12-H ) :   0.9743 B(  3-C ,  4-C ) :   0.9349 B(  3-C , 13-H ) :   0.9670
B(  3-C , 14-H ) :   0.9669 B(  4-C ,  5-O ) :   0.9341 B(  4-C , 15-H ) :   0.9744
B(  4-C , 16-H ) :   0.9727 B(  5-O , 17-H ) :   0.9019

Dispersion correction           -0.004253164
FINAL SINGLE POINT ENERGY      -272.897902968448

DIPOLE MOMENT
-------------

Method             : SCF
Type of density    : Electron Density
Multiplicity       :   1
Irrep              :   0
Energy             :  -272.9034260615473499 Eh
Relativity type    :
Basis              : AO
                                X                 Y                 Z
Electronic contribution:     -5.712164174       0.128476843      -0.000385054
Nuclear contribution   :      5.837301246       0.279329343       0.386325398
                        -----------------------------------------
Total Dipole Moment    :      0.125137072       0.407806186       0.385940344
                        -----------------------------------------
Magnitude (a.u.)       :      0.575252224
Magnitude (Debye)      :      1.462174953

Rotational constants in cm-1:             0.231264             0.057884             0.049717
Rotational constants in MHz :          6933.117571          1735.327650          1490.484930

                             ****ORCA TERMINATED NORMALLY****
TOTAL RUN TIME: 0 days 0 hours 0 minutes 23 seconds 570 msec
