                         Program Version 6.0.0  -   RELEASE  -
|  1> ! r2scan-3c def2/J RI DEFGRID2 scfconv6 printgap
|  2> %output
|  3>     printlevel normal
|  4> end
|  5> %cpcm
|  6>     smd true
|  7>     smdsolvent "water"
|  8> end
|  9> * xyz 0 1
| 10> C 1.9457099563 -1.3827237683 -0.1994773406
| 11> C 1.059929505 -0.2531192605 0.3243889375
| 12> C 1.6964736972 1.0982018352 0.0050845963
| 13> C -0.3421464042 -0.3779696798 -0.2782503367
| 14> C -1.363522286 0.5762448465 0.3346741099
| 15> O -2.6440775929 0.2362463139 -0.1660549641
| 16> H 1.519826267 -2.3519374526 0.0480823427
| 17> H 2.9390624016 -1.3215815738 0.2381599526
| 18> H 2.0410571125 -1.3156395736 -1.2807868662
| 19> H 0.9777526315 -0.3523257446 1.4128662423
| 20> H 1.7357063866 1.2512367752 -1.0709736434
| 21> H 2.7111766792 1.1353207904 0.3941400288
| 22> H 1.1328203195 1.9128033577 0.4511938812
| 23> H -0.7157401438 -1.3927446016 -0.1247973738
| 24> H -0.3027729663 -0.2029064896 -1.3549746118
| 25> H -1.3477772 0.4773389613 1.4293257756
| 26> H -1.1239041727 1.6139951505 0.0721996708
| 27> H -3.3033314038 0.8404438488 0.1999802926
| 28> *
| 29>
| 30>                          ****END OF INPUT****

CARTESIAN COORDINATES (ANGSTROEM)
---------------------------------
  C      1.945710   -1.382724   -0.199477
  C      1.059930   -0.253119    0.324389
  C      1.696474    1.098202    0.005085
  C     -0.342146   -0.377970   -0.278250
  C     -1.363522    0.576245    0.334674
  O     -2.644078    0.236246   -0.166055
  H      1.519826   -2.351937    0.048082
  H      2.939062   -1.321582    0.238160
  H      2.041057   -1.315640   -1.280787
  H      0.977753   -0.352326    1.412866
  H      1.735706    1.251237   -1.070974
  H      2.711177    1.135321    0.394140
  H      1.132820    1.912803    0.451194
  H     -0.715740   -1.392745   -0.124797
  H     -0.302773   -0.202906   -1.354975
  H     -1.347777    0.477339    1.429326
  H     -1.123904    1.613995    0.072200
  H     -3.303331    0.840444    0.199980

 Total Charge           Charge          ....    0
 Multiplicity           Mult            ....    1
 Number of Electrons    NEL             ....   50
 Basis Dimension        Dim             ....  179

ORBITAL ENERGIES
----------------

  NO   OCC          E(Eh)            E(eV)
   0   2.0000     -18.949025      -515.6292
   1   2.0000     -10.066478      -273.9228
   2   2.0000     -10.027482      -272.8617
   3   2.0000     -10.015561      -272.5373
   4   2.0000     -10.006429      -272.2888
   5   2.0000     -10.006415      -272.2884
   6   2.0000      -0.983489       -26.7621
   7   2.0000      -0.770549       -20.9677
   8   2.0000      -0.686201       -18.6725
   9   2.0000      -0.642356       -17.4794
  10   2.0000      -0.579278       -15.7630
  11   2.0000      -0.520696       -14.1688
  12   2.0000      -0.473915       -12.8959
  13   2.0000      -0.436794       -11.8858
  14   2.0000      -0.408994       -11.1293
  15   2.0000      -0.390815       -10.6346
  16   2.0000      -0.384065       -10.4509
  17   2.0000      -0.349063        -9.4985
  18   2.0000      -0.342144        -9.3102
  19   2.0000      -0.323329        -8.7982
  20   2.0000      -0.309925        -8.4335
  21   2.0000      -0.289126        -7.8675
  22   2.0000      -0.284951        -7.7539
  23   2.0000      -0.277542        -7.5523
  24   2.0000      -0.238200        -6.4817
  25   0.0000       0.074003         2.0137
  26   0.0000       0.096987         2.6392
  27   0.0000       0.125070         3.4033
  28   0.0000       0.135049         3.6749
  29   0.0000       0.137947         3.7537

MULLIKEN ATOMIC CHARGES
-----------------------
   0 C :   -0.520431
   1 C :   -0.027296
   2 C :   -0.541696
   3 C :   -0.252896
   4 C :   -0.185360
   5 O :   -0.514131
   6 H :    0.157212
   7 H :    0.158626
   8 H :    0.157162
   9 H :    0.152720
  10 H :    0.162358
  11 H :    0.154856
  12 H :    0.160922
  13 H :    0.151736
  14 H :    0.153969
  15 H :    0.140752
  16 H :    0.147601
  17 H :    0.343897
Sum of atomic charges:   -0.0000000

LOEWDIN ATOMIC CHARGES
----------------------
   0 C :   -0.424348
   1 C :   -0.242868
   2 C :   -0.424990
   3 C :   -0.283148
   4 C :    0.008904
   5 O :   -0.666634
   6 H :    0.155462
   7 H :    0.155110
   8 H :    0.156519
   9 H :    0.158607
  10 H :    0.157077
  11 H :    0.155937
  12 H :    0.155653
  13 H :    0.166055
  14 H :    0.163219
  15 H :    0.161915
  16 H :    0.163232
  17 H :    0.284297

  Mayer bond orders larger than 0.100000
B(  0-C ,  1-C ) :   0.8929 B(  0-C ,  6-H ) :   0.9761 B(  0-C ,  7-H ) :   0.9738
B(  0-C ,  8-H ) :   0.9833 B(  1-C ,  2-C ) :   0.8972 B(  1-C ,  3-C ) :   0.9066
B(  1-C ,  9-H ) :   0.9597 B(  2-C , 10-H ) :   0.9840 B(  2-C , 11-H ) :   0.9697
B(  2-C , 12-H ) :   0.9702 B(  3-C ,  4-C ) :   0.9193 B(  3-C , 13-H ) :   0.9631
B(  3-C , 14-H ) :   0.9627 B(  4-C ,  5-O ) :   0.9144 B(  4-C , 15-H ) :   0.9742
B(  4-C , 16-H ) :   0.9720 B(  5-O , 17-H ) :   0.8751

Dispersion correction           -0.004253164
FINAL SINGLE POINT ENERGY      -272.904211346482

DIPOLE MOMENT
-------------

Method             : SCF
Type of density    : Electron Density
Multiplicity       :   1
Irrep              :   0
Energy             :  -272.9097344395812001 Eh
Relativity type    :
Basis              : AO
                                X                 Y                 Z
Electronic contribution:     -5.651733664       0.331990718       0.185255740
Nuclear contribution   :      5.837301246       0.279329343       0.386325398
                        -----------------------------------------
Total Dipole Moment    :      0.185567582       0.611320061       0.571581138
                        -----------------------------------------
Magnitude (a.u.)       :      0.857235406
Magnitude (Debye)      :      2.178919241

Rotational constants in cm-1:             0.231264             0.057884             0.049717
Rotational constants in MHz :          6933.117571          1735.327650          1490.484930

                             ****ORCA TERMINATED NORMALLY****
TOTAL RUN TIME: 0 days 0 hours 0 minutes 27 seconds 96 msec
