                         Program Version 6.0.0  -   RELEASE  -
|  1> ! pbe def2-sv(p) def2/J RI DEFGRID1 loosescf d4 GCP(DFT/SV(P)) printgap
|  2> %output
|  3>     printlevel normal
|  4> end
|  5> * xyz 0 1
|  6> C 2.0591961196 -0.9497218807 0.1725676772
|  7> C 1.1892033815 0.0539089063 0.923594823
|  8> C 0.167201499 0.812758369 0.0560369128
|  9> H -0.0500309927 1.7611139432 0.5806760186
| 10> C -1.1985558046 0.1183486757 -0.1540556934
| 11> C -1.0870746722 -1.2657874122 -0.7867075966
| 12> C -2.0024430729 0.0573003431 1.1428212017
| 13> O 0.7850462166 1.1157927046 -1.1837719465
| 14> H 1.4882487681 -1.805726709 -0.1692559478
| 15> H 2.8503222493 -1.3036043057 0.8295045698
| 16> H 2.511113713 -0.4698309526 -0.6908030575
| 17> H 0.6605574239 -0.441287549 1.7371990489
| 18> H 1.8523195219 0.8007389945 1.365409047
| 19> H -1.7501068452 0.7605160483 -0.8542767766
| 20> H -0.7255149573 -1.9908162434 -0.0628013363
| 21> H -2.0638130447 -1.5937549434 -1.1356460603
| 22> H -0.4065758707 -1.238963793 -1.6340123225
| 23> H -3.0007706179 -0.3216332205 0.9391675206
| 24> H -2.0920728304 1.0451215092 1.5890993299
| 25> H -1.5303127245 -0.6047527828 1.8640140281
| 26> H 0.1919466095 1.6715647046 -1.7055742341
| 27> *
| 28>
| 29>                          ****END OF INPUT****

CARTESIAN COORDINATES (ANGSTROEM)
---------------------------------
  C      2.059196   -0.949722    0.172568
  C      1.189203    0.053909    0.923595
  C      0.167201    0.812758    0.056037
  H     -0.050031    1.761114    0.580676
  C     -1.198556    0.118349   -0.154056
  C     -1.087075   -1.265787   -0.786708
  C     -2.002443    0.057300    1.142821
  O      0.785046    1.115793   -1.183772
  H      1.488249   -1.805727   -0.169256
  H      2.850322   -1.303604    0.829505
  H      2.511114   -0.469831   -0.690803
  H      0.660557   -0.441288    1.737199
  H      1.852320    0.800739    1.365409
  H     -1.750107    0.760516   -0.854277
  H     -0.725515   -1.990816   -0.062801
  H     -2.063813   -1.593755   -1.135646
  H     -0.406576   -1.238964   -1.634012
  H     -3.000771   -0.321633    0.939168
  H     -2.092073    1.045122    1.589099
  H     -1.530313   -0.604753    1.864014
  H      0.191947    1.671565   -1.705574

 Total Charge           Charge          ....    0
 Multiplicity           Mult            ....    1
 Number of Electrons    NEL             ....   58
 Basis Dimension        Dim             ....  126

ORBITAL ENERGIES
----------------

  NO   OCC          E(Eh)            E(eV)
   0   2.0000     -18.740182      -509.9463
   1   2.0000      -9.932523      -270.2777
   2   2.0000      -9.893785      -269.2236
   3   2.0000      -9.879247      -268.8280
   4   2.0000      -9.875224      -268.7185
   5   2.0000      -9.869190      -268.5543
   6   2.0000      -9.861010      -268.3317
   7   2.0000      -0.917488       -24.9661
   8   2.0000      -0.724751       -19.7215
   9   2.0000      -0.678799       -18.4711
  10   2.0000      -0.612181       -16.6583
  11   2.0000      -0.596688       -16.2367
  12   2.0000      -0.532141       -14.4803
  13   2.0000      -0.497198       -13.5294
  14   2.0000      -0.446382       -12.1467
  15   2.0000      -0.430429       -11.7126
  16   2.0000      -0.394505       -10.7350
  17   2.0000      -0.374344       -10.1864
  18   2.0000      -0.367561       -10.0018
  19   2.0000      -0.354044        -9.6340
  20   2.0000      -0.340677        -9.2703
  21   2.0000      -0.327288        -8.9060
  22   2.0000      -0.317949        -8.6518
  23   2.0000      -0.302925        -8.2430
  24   2.0000      -0.297494        -8.0952
  25   2.0000      -0.282470        -7.6864
  26   2.0000      -0.279931        -7.6173
  27   2.0000      -0.258126        -7.0240
  28   2.0000      -0.209562        -5.7025
  29   0.0000       0.019313         0.5255
  30   0.0000       0.048783         1.3275
  31   0.0000       0.063283         1.7220
  32   0.0000       0.071283         1.9397
  33   0.0000       0.084641         2.3032

MULLIKEN ATOMIC CHARGES
-----------------------
   0 C :   -0.279686
   1 C :   -0.178981
   2 C :    0.074015
   3 H :    0.048956
   4 C :   -0.186160
   5 C :   -0.247128
   6 C :   -0.255864
   7 O :   -0.417712
   8 H :    0.099053
   9 H :    0.094826
  10 H :    0.116662
  11 H :    0.087712
  12 H :    0.083887
  13 H :    0.051817
  14 H :    0.106409
  15 H :    0.094734
  16 H :    0.109580
  17 H :    0.099627
  18 H :    0.097230
  19 H :    0.105553
  20 H :    0.295471
Sum of atomic charges:   -0.0000000

LOEWDIN ATOMIC CHARGES
----------------------
   0 C :   -0.345367
   1 C :   -0.235749
   2 C :   -0.045176
   3 H :    0.093055
   4 C :   -0.170690
   5 C :   -0.333583
   6 C :   -0.330725
   7 O :   -0.324991
   8 H :    0.115133
   9 H :    0.116610
  10 H :    0.125348
  11 H :    0.117691
  12 H :    0.121153
  13 H :    0.106703
  14 H :    0.117197
  15 H :    0.117439
  16 H :    0.120282
  17 H :    0.120484
  18 H :    0.116274
  19 H :    0.117077
  20 H :    0.281832

  Mayer bond orders larger than 0.100000
B(  0-C ,  1-C ) :   1.1657 B(  0-C ,  8-H ) :   0.9457 B(  0-C ,  9-H ) :   0.9498
B(  0-C , 10-H ) :   0.9427 B(  1-C ,  2-C ) :   1.0619 B(  1-C , 11-H ) :   0.9237
B(  1-C , 12-H ) :   0.9162 B(  2-C ,  3-H ) :   0.9061 B(  2-C ,  4-C ) :   1.0274
B(  2-C ,  7-O ) :   1.0510 B(  4-C ,  5-C ) :   1.1135 B(  4-C ,  6-C ) :   1.1002
B(  4-C , 13-H ) :   0.8920 B(  5-C , 14-H ) :   0.9407 B(  5-C , 15-H ) :   0.9459
B(  5-C , 16-H ) :   0.9371 B(  6-C , 17-H ) :   0.9467 B(  6-C , 18-H ) :   0.9477
B(  6-C , 19-H ) :   0.9418 B(  7-O , 20-H ) :   0.8485

Dispersion correction           -0.017241660
FINAL SINGLE POINT ENERGY      -311.514813502610

DIPOLE MOMENT
-------------

Method             : SCF
Type of density    : Electron Density
Multiplicity       :   1
Irrep              :   0
Energy             :  -311.5942930267682414 Eh
Relativity type    :
Basis              : AO
                                X                 Y                 Z
Electronic contribution:      1.398657905       3.729751347      -2.426889995
Nuclear contribution   :     -1.925365823      -3.484024770       2.471098188
                        -----------------------------------------
Total Dipole Moment    :     -0.526707918       0.245726577       0.044208193
                        -----------------------------------------
Magnitude (a.u.)       :      0.582886907
Magnitude (Debye)      :      1.481580774

Rotational constants in cm-1:             0.107750             0.061425             0.058175
Rotational constants in MHz :          3230.261117          1841.463429          1744.031793

                             ****ORCA TERMINATED NORMALLY****
TOTAL RUN TIME: 0 days 0 hours 0 minutes 8 seconds 943 msec
