                         Program Version 6.0.0  -   RELEASE  -
|  1> ! pbe def2-sv(p) def2/J RI DEFGRID1 loosescf d4 GCP(DFT/SV(P)) printgap
|  2> %output
|  3>     printlevel normal
|  4> end
|  5> * xyz 0 1
|  6> C -3.6004477546 0.1154913903 0.005829409
|  7> O -2.3366669531 0.750107129 -0.0006089641
|  8> C -1.2186576827 -0.0366247041 -0.0014569344
|  9> C -1.2153448144 -1.4262946209 -0.0014339131
| 10> C -0.0168280412 -2.1161375466 -0.0017020553
| 11> C 1.1939533154 -1.4481436853 -0.0014677354
| 12> C 1.2046574004 -0.0611486789 -0.0015756916
| 13> C 0.0008370604 0.6507154004 -0.0020467329
| 14> O -0.0056964968 2.0161113983 -0.0025617888
| 15> O 2.3323092637 0.7282742458 -0.0010014997
| 16> C 3.5947347927 0.0920568847 0.006156027
| 17> H -4.3244189517 0.9270597136 0.0087017695
| 18> H -3.7304451271 -0.4972491588 0.9018427171
| 19> H -3.7390788124 -0.4985602307 -0.8879870054
| 20> H -2.1421045686 -1.9743470427 -0.0012771877
| 21> H -0.0269729269 -3.194284608 -0.001844647
| 22> H 2.1140343236 -2.0074627605 -0.001291563
| 23> H 0.91541575 2.3248096121 -0.0033887522
| 24> H 3.7216312181 -0.5201083489 0.9023767551
| 25> H 4.3215216589 0.9011796138 0.0082518122
| 26> H 3.7304191112 -0.5232751127 -0.8865906317
| 27> *
| 28>
| 29>                          ****END OF INPUT****

CARTESIAN COORDINATES (ANGSTROEM)
---------------------------------
  C     -3.600448    0.115491    0.005829
  O     -2.336667    0.750107   -0.000609
  C     -1.218658   -0.036625   -0.001457
  C     -1.215345   -1.426295   -0.001434
  C     -0.016828   -2.116138   -0.001702
  C      1.193953   -1.448144   -0.001468
  C      1.204657   -0.061149   -0.001576
  C      0.000837    0.650715   -0.002047
  O     -0.005696    2.016111   -0.002562
  O      2.332309    0.728274   -0.001001
  C      3.594735    0.092057    0.006156
  H     -4.324419    0.927060    0.008702
  H     -3.730445   -0.497249    0.901843
  H     -3.739079   -0.498560   -0.887987
  H     -2.142105   -1.974347   -0.001277
  H     -0.026973   -3.194285   -0.001845
  H      2.114034   -2.007463   -0.001292
  H      0.915416    2.324810   -0.003389
  H      3.721631   -0.520108    0.902377
  H      4.321522    0.901180    0.008252
  H      3.730419   -0.523275   -0.886591

 Total Charge           Charge          ....    0
 Multiplicity           Mult            ....    1
 Number of Electrons    NEL             ....   82
 Basis Dimension        Dim             ....  174

ORBITAL ENERGIES
----------------

  NO   OCC          E(Eh)            E(eV)
   0   2.0000     -18.794315      -511.4193
   1   2.0000     -18.776716      -510.9404
   2   2.0000     -18.768373      -510.7134
   3   2.0000      -9.945709      -270.6365
   4   2.0000      -9.944155      -270.5942
   5   2.0000      -9.940790      -270.5026
   6   2.0000      -9.938595      -270.4429
   7   2.0000      -9.933642      -270.3082
   8   2.0000      -9.881996      -268.9028
   9   2.0000      -9.881574      -268.8913
  10   2.0000      -9.879393      -268.8320
  11   2.0000      -0.976755       -26.5788
  12   2.0000      -0.959935       -26.1212
  13   2.0000      -0.937734       -25.5170
  14   2.0000      -0.763596       -20.7785
  15   2.0000      -0.681764       -18.5518
  16   2.0000      -0.673954       -18.3392
  17   2.0000      -0.630626       -17.1602
  18   2.0000      -0.614436       -16.7196
  19   2.0000      -0.547480       -14.8977
  20   2.0000      -0.528197       -14.3730
  21   2.0000      -0.499947       -13.6043
  22   2.0000      -0.473560       -12.8862
  23   2.0000      -0.446663       -12.1543
  24   2.0000      -0.437256       -11.8983
  25   2.0000      -0.425258       -11.5719
  26   2.0000      -0.412715       -11.2305
  27   2.0000      -0.404552       -11.0084
  28   2.0000      -0.396275       -10.7832
  29   2.0000      -0.368851       -10.0370
  30   2.0000      -0.360038        -9.7971
  31   2.0000      -0.348061        -9.4712
  32   2.0000      -0.335497        -9.1293
  33   2.0000      -0.298862        -8.1324
  34   2.0000      -0.298135        -8.1127
  35   2.0000      -0.295804        -8.0492
  36   2.0000      -0.289909        -7.8888
  37   2.0000      -0.273347        -7.4381
  38   2.0000      -0.258349        -7.0300
  39   2.0000      -0.188343        -5.1251
  40   2.0000      -0.166450        -4.5293
  41   0.0000      -0.011317        -0.3080
  42   0.0000      -0.005536        -0.1506
  43   0.0000       0.030041         0.8174
  44   0.0000       0.043916         1.1950
  45   0.0000       0.054686         1.4881

MULLIKEN ATOMIC CHARGES
-----------------------
   0 C :   -0.110627
   1 O :   -0.265244
   2 C :    0.186676
   3 C :   -0.205772
   4 C :   -0.056855
   5 C :   -0.201981
   6 C :    0.194498
   7 C :    0.101995
   8 O :   -0.331848
   9 O :   -0.314981
  10 C :   -0.107998
  11 H :    0.124536
  12 H :    0.108140
  13 H :    0.108166
  14 H :    0.029530
  15 H :    0.043830
  16 H :    0.027532
  17 H :    0.317500
  18 H :    0.114493
  19 H :    0.123865
  20 H :    0.114545
Sum of atomic charges:    0.0000000

LOEWDIN ATOMIC CHARGES
----------------------
   0 C :   -0.200738
   1 O :   -0.087459
   2 C :    0.011831
   3 C :   -0.187658
   4 C :   -0.136153
   5 C :   -0.190289
   6 C :   -0.004255
   7 C :   -0.007275
   8 O :   -0.233616
   9 O :   -0.113437
  10 C :   -0.199096
  11 H :    0.122003
  12 H :    0.107829
  13 H :    0.107782
  14 H :    0.125923
  15 H :    0.121920
  16 H :    0.124715
  17 H :    0.293359
  18 H :    0.111459
  19 H :    0.121746
  20 H :    0.111410

  Mayer bond orders larger than 0.100000
B(  0-C ,  1-O ) :   0.9932 B(  0-C , 11-H ) :   0.9590 B(  0-C , 12-H ) :   0.9416
B(  0-C , 13-H ) :   0.9416 B(  1-O ,  2-C ) :   1.1670 B(  2-C ,  3-C ) :   1.3046
B(  2-C ,  7-C ) :   1.3760 B(  3-C ,  4-C ) :   1.3256 B(  3-C , 14-H ) :   0.9772
B(  4-C ,  5-C ) :   1.3199 B(  4-C , 15-H ) :   0.9662 B(  5-C ,  6-C ) :   1.2783
B(  5-C , 16-H ) :   0.9768 B(  6-C ,  7-C ) :   1.3291 B(  6-C ,  9-O ) :   1.0849
B(  7-C ,  8-O ) :   1.2761 B(  8-O , 17-H ) :   0.8203 B(  9-O , 10-C ) :   0.9814
B( 10-C , 18-H ) :   0.9429 B( 10-C , 19-H ) :   0.9590 B( 10-C , 20-H ) :   0.9429

Dispersion correction           -0.021409998
FINAL SINGLE POINT ENERGY      -535.376447793174

DIPOLE MOMENT
-------------

Method             : SCF
Type of density    : Electron Density
Multiplicity       :   1
Irrep              :   0
Energy             :  -535.4534284005078462 Eh
Relativity type    :
Basis              : AO
                                X                 Y                 Z
Electronic contribution:     -0.240526228       4.253018961      -0.030958352
Nuclear contribution   :      0.787915685      -4.697475096       0.036332884
                        -----------------------------------------
Total Dipole Moment    :      0.547389456      -0.444456136       0.005374532
                        -----------------------------------------
Magnitude (a.u.)       :      0.705127903
Magnitude (Debye)      :      1.792292693

Rotational constants in cm-1:             0.076271             0.025449             0.019222
Rotational constants in MHz :          2286.546582           762.932925           576.271579

                             ****ORCA TERMINATED NORMALLY****
TOTAL RUN TIME: 0 days 0 hours 0 minutes 11 seconds 472 msec
