                         Program Version 6.0.0  -   RELEASE  -
|  1> ! r2scan-3c def2/J RI DEFGRID2 scfconv6 printgap
|  2> %output
|  3>     printlevel normal
|  4> end
|  5> * xyz 0 1
|  6> C -2.5935389903 0.6901079121 -0.5988082902
|  7> C -1.739271159 0.3555565049 0.6254982863
|  8> C -0.5080802805 -0.4042618721 0.2013934773
|  9> O -0.5180454988 -1.504061682 -0.3134883528
| 10> O 0.5974745525 0.284168883 0.4415285633
| 11> C 1.8671202633 -0.2770372268 0.0640002827
| 12> C 2.7944413952 0.8526945755 -0.3452632105
| 13> H -3.5175329965 1.1665677975 -0.2858617492
| 14> H -2.0588332623 1.363939203 -1.263432921
| 15> H -2.8311172524 -0.2200270546 -1.1443738625
| 16> H -2.3099146646 -0.282288092 1.30157638
| 17> H -1.4305518406 1.2612652493 1.1447828944
| 18> H 2.2593398476 -0.8171591128 0.930915324
| 19> H 1.7029678833 -0.9893402444 -0.7508452346
| 20> H 2.3940227365 1.3747354828 -1.2097343961
| 21> H 2.8995911228 1.5588827203 0.4729511176
| 22> H 3.768207285 0.4444682673 -0.5947553243
| 23> *
| 24>
| 25>                          ****END OF INPUT****

CARTESIAN COORDINATES (ANGSTROEM)
---------------------------------
  C     -2.593539    0.690108   -0.598808
  C     -1.739271    0.355557    0.625498
  C     -0.508080   -0.404262    0.201393
  O     -0.518045   -1.504062   -0.313488
  O      0.597475    0.284169    0.441529
  C      1.867120   -0.277037    0.064000
  C      2.794441    0.852695   -0.345263
  H     -3.517533    1.166568   -0.285862
  H     -2.058833    1.363939   -1.263433
  H     -2.831117   -0.220027   -1.144374
  H     -2.309915   -0.282288    1.301576
  H     -1.430552    1.261265    1.144783
  H      2.259340   -0.817159    0.930915
  H      1.702968   -0.989340   -0.750845
  H      2.394023    1.374735   -1.209734
  H      2.899591    1.558883    0.472951
  H      3.768207    0.444468   -0.594755

 Total Charge           Charge          ....    0
 Multiplicity           Mult            ....    1
 Number of Electrons    NEL             ....   56
 Basis Dimension        Dim             ....  193

ORBITAL ENERGIES
----------------

  NO   OCC          E(Eh)            E(eV)
   0   2.0000     -18.997345      -516.9440
   1   2.0000     -18.925774      -514.9965
   2   2.0000     -10.150790      -276.2170
   3   2.0000     -10.090653      -274.5806
   4   2.0000     -10.042778      -273.2779
   5   2.0000     -10.032403      -272.9956
   6   2.0000     -10.028673      -272.8941
   7   2.0000      -1.071343       -29.1527
   8   2.0000      -0.973964       -26.5029
   9   2.0000      -0.764964       -20.8157
  10   2.0000      -0.733596       -19.9622
  11   2.0000      -0.640877       -17.4392
  12   2.0000      -0.592263       -16.1163
  13   2.0000      -0.531432       -14.4610
  14   2.0000      -0.465953       -12.6792
  15   2.0000      -0.461615       -12.5612
  16   2.0000      -0.442092       -12.0299
  17   2.0000      -0.412708       -11.2304
  18   2.0000      -0.393549       -10.7090
  19   2.0000      -0.385449       -10.4886
  20   2.0000      -0.374223       -10.1831
  21   2.0000      -0.348716        -9.4891
  22   2.0000      -0.338943        -9.2231
  23   2.0000      -0.331355        -9.0166
  24   2.0000      -0.319025        -8.6811
  25   2.0000      -0.307688        -8.3726
  26   2.0000      -0.270239        -7.3536
  27   2.0000      -0.234271        -6.3748
  28   0.0000      -0.013876        -0.3776
  29   0.0000       0.075710         2.0602
  30   0.0000       0.097045         2.6407
  31   0.0000       0.116125         3.1599
  32   0.0000       0.126364         3.4385

MULLIKEN ATOMIC CHARGES
-----------------------
   0 C :   -0.463743
   1 C :   -0.298586
   2 C :    0.405521
   3 O :   -0.438531
   4 O :   -0.168755
   5 C :   -0.156169
   6 C :   -0.441862
   7 H :    0.151046
   8 H :    0.144837
   9 H :    0.171588
  10 H :    0.160731
  11 H :    0.159729
  12 H :    0.143963
  13 H :    0.179007
  14 H :    0.151466
  15 H :    0.152758
  16 H :    0.146997
Sum of atomic charges:    0.0000000

LOEWDIN ATOMIC CHARGES
----------------------
   0 C :   -0.393994
   1 C :   -0.237285
   2 C :    0.358277
   3 O :   -0.438632
   4 O :   -0.597904
   5 C :    0.032309
   6 C :   -0.386952
   7 H :    0.152101
   8 H :    0.154414
   9 H :    0.164413
  10 H :    0.176838
  11 H :    0.173640
  12 H :    0.174941
  13 H :    0.191534
  14 H :    0.158299
  15 H :    0.158690
  16 H :    0.159312

  Mayer bond orders larger than 0.100000
B(  0-C ,  1-C ) :   0.8987 B(  0-C ,  7-H ) :   0.9725 B(  0-C ,  8-H ) :   0.9748
B(  0-C ,  9-H ) :   0.9735 B(  1-C ,  2-C ) :   0.9534 B(  1-C , 10-H ) :   0.9583
B(  1-C , 11-H ) :   0.9838 B(  2-C ,  3-O ) :   1.8180 B(  2-C ,  4-O ) :   1.0747
B(  4-O ,  5-C ) :   0.7851 B(  5-C ,  6-C ) :   0.9478 B(  5-C , 12-H ) :   0.9461
B(  5-C , 13-H ) :   0.9647 B(  6-C , 14-H ) :   0.9741 B(  6-C , 15-H ) :   0.9691
B(  6-C , 16-H ) :   0.9679

Dispersion correction           -0.003870069
FINAL SINGLE POINT ENERGY      -346.935236122850

DIPOLE MOMENT
-------------

Method             : SCF
Type of density    : Electron Density
Multiplicity       :   1
Irrep              :   0
Energy             :  -346.9418022222451441 Eh
Relativity type    :
Basis              : AO
                                X                 Y                 Z
Electronic contribution:     -0.481492807      -3.803607409       1.522430048
Nuclear contribution   :      0.823179895       4.542385927      -1.310389083
                        -----------------------------------------
Total Dipole Moment    :      0.341687088       0.738778518       0.212040964
                        -----------------------------------------
Magnitude (a.u.)       :      0.841133245
Magnitude (Debye)      :      2.137990799

Rotational constants in cm-1:             0.182458             0.046783             0.041899
Rotational constants in MHz :          5469.947919          1402.513260          1256.109234

                             ****ORCA TERMINATED NORMALLY****
TOTAL RUN TIME: 0 days 0 hours 0 minutes 20 seconds 859 msec
