                         Program Version 6.0.0  -   RELEASE  -
|  1> ! r2scan-3c def2/J RI DEFGRID2 scfconv6 printgap
|  2> %output
|  3>     printlevel normal
|  4> end
|  5> %cpcm
|  6>     smd true
|  7>     smdsolvent "water"
|  8> end
|  9> * xyz 0 1
| 10> C -2.5935389903 0.6901079121 -0.5988082902
| 11> C -1.739271159 0.3555565049 0.6254982863
| 12> C -0.5080802805 -0.4042618721 0.2013934773
| 13> O -0.5180454988 -1.504061682 -0.3134883528
| 14> O 0.5974745525 0.284168883 0.4415285633
| 15> C 1.8671202633 -0.2770372268 0.0640002827
| 16> C 2.7944413952 0.8526945755 -0.3452632105
| 17> H -3.5175329965 1.1665677975 -0.2858617492
| 18> H -2.0588332623 1.363939203 -1.263432921
| 19> H -2.8311172524 -0.2200270546 -1.1443738625
| 20> H -2.3099146646 -0.282288092 1.30157638
| 21> H -1.4305518406 1.2612652493 1.1447828944
| 22> H 2.2593398476 -0.8171591128 0.930915324
| 23> H 1.7029678833 -0.9893402444 -0.7508452346
| 24> H 2.3940227365 1.3747354828 -1.2097343961
| 25> H 2.8995911228 1.5588827203 0.4729511176
| 26> H 3.768207285 0.4444682673 -0.5947553243
| 27> *
| 28>
| 29>                          ****END OF INPUT****

CARTESIAN COORDINATES (ANGSTROEM)
---------------------------------
  C     -2.593539    0.690108   -0.598808
  C     -1.739271    0.355557    0.625498
  C     -0.508080   -0.404262    0.201393
  O     -0.518045   -1.504062   -0.313488
  O      0.597475    0.284169    0.441529
  C      1.867120   -0.277037    0.064000
  C      2.794441    0.852695   -0.345263
  H     -3.517533    1.166568   -0.285862
  H     -2.058833    1.363939   -1.263433
  H     -2.831117   -0.220027   -1.144374
  H     -2.309915   -0.282288    1.301576
  H     -1.430552    1.261265    1.144783
  H      2.259340   -0.817159    0.930915
  H      1.702968   -0.989340   -0.750845
  H      2.394023    1.374735   -1.209734
  H      2.899591    1.558883    0.472951
  H      3.768207    0.444468   -0.594755

 Total Charge           Charge          ....    0
 Multiplicity           Mult            ....    1
 Number of Electrons    NEL             ....   56
 Basis Dimension        Dim             ....  193

ORBITAL ENERGIES
----------------

  NO   OCC          E(Eh)            E(eV)
   0   2.0000     -19.003279      -517.1055
   1   2.0000     -18.942473      -515.4509
   2   2.0000     -10.162046      -276.5233
   3   2.0000     -10.082875      -274.3690
   4   2.0000     -10.037340      -273.1299
   5   2.0000     -10.021111      -272.6883
   6   2.0000     -10.018703      -272.6228
   7   2.0000      -1.078992       -29.3609
   8   2.0000      -0.988442       -26.8969
   9   2.0000      -0.760957       -20.7067
  10   2.0000      -0.725667       -19.7464
  11   2.0000      -0.635027       -17.2800
  12   2.0000      -0.585532       -15.9331
  13   2.0000      -0.530108       -14.4250
  14   2.0000      -0.469390       -12.7728
  15   2.0000      -0.459467       -12.5027
  16   2.0000      -0.449461       -12.2305
  17   2.0000      -0.412979       -11.2377
  18   2.0000      -0.391093       -10.6422
  19   2.0000      -0.381393       -10.3782
  20   2.0000      -0.363709        -9.8970
  21   2.0000      -0.340411        -9.2630
  22   2.0000      -0.334287        -9.0964
  23   2.0000      -0.329816        -8.9747
  24   2.0000      -0.313008        -8.5174
  25   2.0000      -0.307866        -8.3775
  26   2.0000      -0.277280        -7.5452
  27   2.0000      -0.251143        -6.8339
  28   0.0000      -0.022332        -0.6077
  29   0.0000       0.078612         2.1391
  30   0.0000       0.106886         2.9085
  31   0.0000       0.124683         3.3928
  32   0.0000       0.134446         3.6585

MULLIKEN ATOMIC CHARGES
-----------------------
   0 C :   -0.492828
   1 C :   -0.310850
   2 C :    0.445966
   3 O :   -0.525018
   4 O :   -0.186533
   5 C :   -0.149730
   6 C :   -0.486284
   7 H :    0.171149
   8 H :    0.163165
   9 H :    0.166638
  10 H :    0.184861
  11 H :    0.174868
  12 H :    0.170414
  13 H :    0.176063
  14 H :    0.164833
  15 H :    0.164799
  16 H :    0.168486
Sum of atomic charges:    0.0000000

LOEWDIN ATOMIC CHARGES
----------------------
   0 C :   -0.396944
   1 C :   -0.233616
   2 C :    0.368223
   3 O :   -0.500801
   4 O :   -0.598726
   5 C :    0.036495
   6 C :   -0.390049
   7 H :    0.159936
   8 H :    0.159899
   9 H :    0.161162
  10 H :    0.185450
  11 H :    0.181212
  12 H :    0.184764
  13 H :    0.191371
  14 H :    0.161592
  15 H :    0.162129
  16 H :    0.167904

  Mayer bond orders larger than 0.100000
B(  0-C ,  1-C ) :   0.8845 B(  0-C ,  7-H ) :   0.9666 B(  0-C ,  8-H ) :   0.9711
B(  0-C ,  9-H ) :   0.9744 B(  1-C ,  2-C ) :   0.9550 B(  1-C , 10-H ) :   0.9508
B(  1-C , 11-H ) :   0.9750 B(  2-C ,  3-O ) :   1.7492 B(  2-C ,  4-O ) :   1.1011
B(  4-O ,  5-C ) :   0.7739 B(  5-C ,  6-C ) :   0.9445 B(  5-C , 12-H ) :   0.9373
B(  5-C , 13-H ) :   0.9601 B(  6-C , 14-H ) :   0.9720 B(  6-C , 15-H ) :   0.9663
B(  6-C , 16-H ) :   0.9616

Dispersion correction           -0.003870069
FINAL SINGLE POINT ENERGY      -346.940471565593

DIPOLE MOMENT
-------------

Method             : SCF
Type of density    : Electron Density
Multiplicity       :   1
Irrep              :   0
Energy             :  -346.9470376649884429 Eh
Relativity type    :
Basis              : AO
                                X                 Y                 Z
Electronic contribution:     -0.371793857      -3.500844484       1.649354534
Nuclear contribution   :      0.823179895       4.542385927      -1.310389083
                        -----------------------------------------
Total Dipole Moment    :      0.451386038       1.041541443       0.338965450
                        -----------------------------------------
Magnitude (a.u.)       :      1.184675276
Magnitude (Debye)      :      3.011205247

Rotational constants in cm-1:             0.182458             0.046783             0.041899
Rotational constants in MHz :          5469.947919          1402.513260          1256.109234

                             ****ORCA TERMINATED NORMALLY****
TOTAL RUN TIME: 0 days 0 hours 0 minutes 26 seconds 169 msec
