                         Program Version 6.0.0  -   RELEASE  -
|  1> ! pbe def2-sv(p) def2/J RI DEFGRID1 loosescf d4 GCP(DFT/SV(P)) printgap
|  2> %output
|  3>     printlevel normal
|  4> end
|  5> * xyz 0 1
|  6> C -3.2016739574 0.54186052 0.0368176786
|  7> C -1.8072330774 0.2576832256 -0.5058829472
|  8> C -0.8049002717 0.0235320714 0.6310737042
|  9> C 0.5428520341 -0.3488532121 0.0742832497
| 10> O 0.7616995566 -1.3158291665 -0.6258046088
| 11> O 1.4786786873 0.5201969649 0.4369303098
| 12> C 2.8203065334 0.3141652414 -0.016611989
| 13> H -3.1893938251 1.4230258645 0.6732249525
| 14> H -3.893957416 0.7168040016 -0.7821004101
| 15> H -3.5632170416 -0.3010371075 0.6201042209
| 16> H -1.4704109386 1.1000585255 -1.1133436148
| 17> H -1.8252353164 -0.6283884565 -1.1434690921
| 18> H -1.1551008112 -0.8059827287 1.2478237207
| 19> H -0.6986234465 0.9160372412 1.2461443027
| 20> H 3.4689682175 0.6996236613 0.7649038595
| 21> H 2.9715241891 0.8632300742 -0.9458391725
| 22> H 2.995722535 -0.7486142318 -0.1871504959
| 23> *
| 24>
| 25>                          ****END OF INPUT****

CARTESIAN COORDINATES (ANGSTROEM)
---------------------------------
  C     -3.201674    0.541861    0.036818
  C     -1.807233    0.257683   -0.505883
  C     -0.804900    0.023532    0.631074
  C      0.542852   -0.348853    0.074283
  O      0.761700   -1.315829   -0.625805
  O      1.478679    0.520197    0.436930
  C      2.820307    0.314165   -0.016612
  H     -3.189394    1.423026    0.673225
  H     -3.893957    0.716804   -0.782100
  H     -3.563217   -0.301037    0.620104
  H     -1.470411    1.100059   -1.113344
  H     -1.825235   -0.628388   -1.143469
  H     -1.155101   -0.805983    1.247824
  H     -0.698623    0.916037    1.246144
  H      3.468968    0.699624    0.764904
  H      2.971524    0.863230   -0.945839
  H      2.995723   -0.748614   -0.187150

 Total Charge           Charge          ....    0
 Multiplicity           Mult            ....    1
 Number of Electrons    NEL             ....   56
 Basis Dimension        Dim             ....  118

ORBITAL ENERGIES
----------------

  NO   OCC          E(Eh)            E(eV)
   0   2.0000     -18.799263      -511.5540
   1   2.0000     -18.730215      -509.6751
   2   2.0000     -10.003898      -272.2199
   3   2.0000      -9.940220      -270.4871
   4   2.0000      -9.896217      -269.2898
   5   2.0000      -9.892648      -269.1926
   6   2.0000      -9.879150      -268.8253
   7   2.0000      -1.004073       -27.3222
   8   2.0000      -0.907495       -24.6942
   9   2.0000      -0.725165       -19.7327
  10   2.0000      -0.673597       -18.3295
  11   2.0000      -0.620680       -16.8896
  12   2.0000      -0.536622       -14.6022
  13   2.0000      -0.504156       -13.7188
  14   2.0000      -0.448281       -12.1983
  15   2.0000      -0.435964       -11.8632
  16   2.0000      -0.425809       -11.5868
  17   2.0000      -0.403426       -10.9778
  18   2.0000      -0.382058       -10.3963
  19   2.0000      -0.372045       -10.1239
  20   2.0000      -0.354198        -9.6382
  21   2.0000      -0.335943        -9.1415
  22   2.0000      -0.318345        -8.6626
  23   2.0000      -0.301167        -8.1952
  24   2.0000      -0.296045        -8.0558
  25   2.0000      -0.292163        -7.9502
  26   2.0000      -0.255581        -6.9547
  27   2.0000      -0.217328        -5.9138
  28   0.0000      -0.018640        -0.5072
  29   0.0000       0.041859         1.1390
  30   0.0000       0.058755         1.5988
  31   0.0000       0.078220         2.1285
  32   0.0000       0.082916         2.2563

MULLIKEN ATOMIC CHARGES
-----------------------
   0 C :   -0.249530
   1 C :   -0.229263
   2 C :   -0.138409
   3 C :    0.109226
   4 O :   -0.210762
   5 O :   -0.237365
   6 C :   -0.123298
   7 H :    0.098197
   8 H :    0.107026
   9 H :    0.099778
  10 H :    0.093934
  11 H :    0.109879
  12 H :    0.106710
  13 H :    0.092660
  14 H :    0.121888
  15 H :    0.120153
  16 H :    0.129178
Sum of atomic charges:    0.0000000

LOEWDIN ATOMIC CHARGES
----------------------
   0 C :   -0.339507
   1 C :   -0.226113
   2 C :   -0.245170
   3 C :    0.036038
   4 O :   -0.173393
   5 O :   -0.073692
   6 C :   -0.207297
   7 H :    0.117454
   8 H :    0.121800
   9 H :    0.118635
  10 H :    0.118191
  11 H :    0.124161
  12 H :    0.139079
  13 H :    0.126775
  14 H :    0.120657
  15 H :    0.119433
  16 H :    0.122949

  Mayer bond orders larger than 0.100000
B(  0-C ,  1-C ) :   1.1592 B(  0-C ,  7-H ) :   0.9527 B(  0-C ,  8-H ) :   0.9525
B(  0-C ,  9-H ) :   0.9541 B(  1-C ,  2-C ) :   1.1270 B(  1-C , 10-H ) :   0.9307
B(  1-C , 11-H ) :   0.9219 B(  2-C ,  3-C ) :   1.0188 B(  2-C , 12-H ) :   0.8936
B(  2-C , 13-H ) :   0.9085 B(  3-C ,  4-O ) :   2.0587 B(  3-C ,  5-O ) :   1.2231
B(  5-O ,  6-C ) :   0.9368 B(  6-C , 14-H ) :   0.9609 B(  6-C , 15-H ) :   0.9596
B(  6-C , 16-H ) :   0.9355

Dispersion correction           -0.011729596
FINAL SINGLE POINT ENERGY      -346.239336955683

DIPOLE MOMENT
-------------

Method             : SCF
Type of density    : Electron Density
Multiplicity       :   1
Irrep              :   0
Energy             :  -346.3040939761911545 Eh
Relativity type    :
Basis              : AO
                                X                 Y                 Z
Electronic contribution:      6.077455310      -2.427072689      -0.056647703
Nuclear contribution   :     -5.933268131       3.022946608       0.353983085
                        -----------------------------------------
Total Dipole Moment    :      0.144187179       0.595873919       0.297335381
                        -----------------------------------------
Magnitude (a.u.)       :      0.681369209
Magnitude (Debye)      :      1.731902893

Rotational constants in cm-1:             0.238892             0.041265             0.037924
Rotational constants in MHz :          7161.800549          1237.080479          1136.944011

                             ****ORCA TERMINATED NORMALLY****
TOTAL RUN TIME: 0 days 0 hours 0 minutes 9 seconds 716 msec
