                         Program Version 6.0.0  -   RELEASE  -
|  1> ! pbe def2-sv(p) def2/J RI DEFGRID1 loosescf d4 GCP(DFT/SV(P)) printgap
|  2> %output
|  3>     printlevel normal
|  4> end
|  5> * xyz 0 1
|  6> C -1.6588013369 0.8388894925 -0.059373316
|  7> O -1.168539093 -0.4288936033 0.358575433
|  8> C -0.0130497821 -0.8964281254 -0.2713303219
|  9> O 1.1943938503 -0.4236044458 0.2477018176
| 10> C 1.6479464588 0.8370393858 -0.2292339807
| 11> H -1.5987030791 0.9362077449 -1.1470406498
| 12> H -1.1123020292 1.6570502188 0.4150188733
| 13> H -2.6992387162 0.8687984813 0.2564516804
| 14> H -0.0026096072 -1.9739456795 -0.0819572556
| 15> H -0.0644351017 -0.6958585642 -1.3580085353
| 16> H 2.7109960984 0.870385844 -0.0014054851
| 17> H 1.1427770988 1.663682629 0.2751968742
| 18> H 1.4979641356 0.9170674453 -1.3096317301
| 19> *
| 20>
| 21>                          ****END OF INPUT****

CARTESIAN COORDINATES (ANGSTROEM)
---------------------------------
  C     -1.658801    0.838889   -0.059373
  O     -1.168539   -0.428894    0.358575
  C     -0.013050   -0.896428   -0.271330
  O      1.194394   -0.423604    0.247702
  C      1.647946    0.837039   -0.229234
  H     -1.598703    0.936208   -1.147041
  H     -1.112302    1.657050    0.415019
  H     -2.699239    0.868798    0.256452
  H     -0.002610   -1.973946   -0.081957
  H     -0.064435   -0.695859   -1.358009
  H      2.710996    0.870386   -0.001405
  H      1.142777    1.663683    0.275197
  H      1.497964    0.917067   -1.309632

 Total Charge           Charge          ....    0
 Multiplicity           Mult            ....    1
 Number of Electrons    NEL             ....   42
 Basis Dimension        Dim             ....   86

ORBITAL ENERGIES
----------------

  NO   OCC          E(Eh)            E(eV)
   0   2.0000     -18.756506      -510.3905
   1   2.0000     -18.756399      -510.3876
   2   2.0000      -9.970730      -271.3174
   3   2.0000      -9.926200      -270.1056
   4   2.0000      -9.926108      -270.1031
   5   2.0000      -0.961604       -26.1666
   6   2.0000      -0.907963       -24.7069
   7   2.0000      -0.666886       -18.1469
   8   2.0000      -0.612582       -16.6692
   9   2.0000      -0.546463       -14.8700
  10   2.0000      -0.453557       -12.3419
  11   2.0000      -0.453294       -12.3348
  12   2.0000      -0.442222       -12.0335
  13   2.0000      -0.385443       -10.4884
  14   2.0000      -0.384491       -10.4625
  15   2.0000      -0.379962       -10.3393
  16   2.0000      -0.340719        -9.2714
  17   2.0000      -0.275005        -7.4833
  18   2.0000      -0.267279        -7.2730
  19   2.0000      -0.229669        -6.2496
  20   2.0000      -0.210961        -5.7405
  21   0.0000       0.032454         0.8831
  22   0.0000       0.073477         1.9994
  23   0.0000       0.080737         2.1970
  24   0.0000       0.083725         2.2783
  25   0.0000       0.094099         2.5606

MULLIKEN ATOMIC CHARGES
-----------------------
   0 C :   -0.114561
   1 O :   -0.327396
   2 C :    0.125008
   3 O :   -0.327543
   4 C :   -0.114518
   5 H :    0.084680
   6 H :    0.104031
   7 H :    0.117898
   8 H :    0.095394
   9 H :    0.050780
  10 H :    0.118035
  11 H :    0.103056
  12 H :    0.085135
Sum of atomic charges:   -0.0000000

LOEWDIN ATOMIC CHARGES
----------------------
   0 C :   -0.207749
   1 O :   -0.174975
   2 C :   -0.047413
   3 O :   -0.175139
   4 C :   -0.207685
   5 H :    0.098650
   6 H :    0.100627
   7 H :    0.117282
   8 H :    0.106606
   9 H :    0.073404
  10 H :    0.117360
  11 H :    0.100301
  12 H :    0.098732

  Mayer bond orders larger than 0.100000
B(  0-C ,  1-O ) :   1.0058 B(  0-C ,  5-H ) :   0.9397 B(  0-C ,  6-H ) :   0.9419
B(  0-C ,  7-H ) :   0.9633 B(  1-O ,  2-C ) :   1.0822 B(  2-C ,  3-O ) :   1.0812
B(  2-C ,  8-H ) :   0.9399 B(  2-C ,  9-H ) :   0.9105 B(  3-O ,  4-C ) :   1.0061
B(  4-C , 10-H ) :   0.9634 B(  4-C , 11-H ) :   0.9418 B(  4-C , 12-H ) :   0.9399

Dispersion correction           -0.007669494
FINAL SINGLE POINT ENERGY      -268.937185385165

DIPOLE MOMENT
-------------

Method             : SCF
Type of density    : Electron Density
Multiplicity       :   1
Irrep              :   0
Energy             :  -268.9962312411857965 Eh
Relativity type    :
Basis              : AO
                                X                 Y                 Z
Electronic contribution:      0.091438282      -3.340518462       2.148619753
Nuclear contribution   :     -0.117404403       3.968359349      -2.759888890
                        -----------------------------------------
Total Dipole Moment    :     -0.025966122       0.627840887      -0.611269137
                        -----------------------------------------
Magnitude (a.u.)       :      0.876646096
Magnitude (Debye)      :      2.228257293

Rotational constants in cm-1:             0.306022             0.118790             0.094286
Rotational constants in MHz :          9174.311913          3561.236548          2826.620357

                             ****ORCA TERMINATED NORMALLY****
TOTAL RUN TIME: 0 days 0 hours 0 minutes 4 seconds 848 msec
