                         Program Version 6.0.0  -   RELEASE  -
|  1> ! pbe def2-sv(p) def2/J RI DEFGRID1 loosescf d4 GCP(DFT/SV(P)) printgap
|  2> %output
|  3>     printlevel normal
|  4> end
|  5> * xyz 0 1
|  6> C -2.2134532534 0.9211274716 0.1906703211
|  7> C -0.8576064727 0.6622499137 -0.4552678573
|  8> C -0.0364535842 -0.413140002 0.265096558
|  9> H -0.0674505752 -0.210069481 1.3423830251
| 10> C -0.5808023526 -1.8166267858 0.0148867617
| 11> C 1.4279765903 -0.3399390858 -0.1915264768
| 12> O 2.0500886022 0.8905296013 0.1107102989
| 13> H -2.8410023629 0.0346581134 0.1515182848
| 14> H -2.0920897387 1.2118718289 1.2318236821
| 15> H -2.7285674121 1.7240919544 -0.3306762571
| 16> H -0.2786921081 1.5890695557 -0.4561861745
| 17> H -0.9988557838 0.3625261229 -1.4960114427
| 18> H 0.0187035333 -2.5572555944 0.5390141378
| 19> H -0.5582164694 -2.0460330349 -1.047965144
| 20> H -1.605369743 -1.8976858893 0.3653438082
| 21> H 1.4818028633 -0.4307707796 -1.2794737352
| 22> H 1.9976693135 -1.1686926051 0.250875833
| 23> H 2.0651084852 1.0059623662 1.0709826286
| 24> *
| 25>
| 26>                          ****END OF INPUT****

CARTESIAN COORDINATES (ANGSTROEM)
---------------------------------
  C     -2.213453    0.921127    0.190670
  C     -0.857606    0.662250   -0.455268
  C     -0.036454   -0.413140    0.265097
  H     -0.067451   -0.210069    1.342383
  C     -0.580802   -1.816627    0.014887
  C      1.427977   -0.339939   -0.191526
  O      2.050089    0.890530    0.110710
  H     -2.841002    0.034658    0.151518
  H     -2.092090    1.211872    1.231824
  H     -2.728567    1.724092   -0.330676
  H     -0.278692    1.589070   -0.456186
  H     -0.998856    0.362526   -1.496011
  H      0.018704   -2.557256    0.539014
  H     -0.558216   -2.046033   -1.047965
  H     -1.605370   -1.897686    0.365344
  H      1.481803   -0.430771   -1.279474
  H      1.997669   -1.168693    0.250876
  H      2.065108    1.005962    1.070983

 Total Charge           Charge          ....    0
 Multiplicity           Mult            ....    1
 Number of Electrons    NEL             ....   50
 Basis Dimension        Dim             ....  108

ORBITAL ENERGIES
----------------

  NO   OCC          E(Eh)            E(eV)
   0   2.0000     -18.740140      -509.9451
   1   2.0000      -9.924286      -270.0536
   2   2.0000      -9.892620      -269.1919
   3   2.0000      -9.877304      -268.7751
   4   2.0000      -9.876361      -268.7494
   5   2.0000      -9.871500      -268.6172
   6   2.0000      -0.916759       -24.9463
   7   2.0000      -0.727774       -19.8037
   8   2.0000      -0.655435       -17.8353
   9   2.0000      -0.602044       -16.3824
  10   2.0000      -0.556940       -15.1551
  11   2.0000      -0.507590       -13.8122
  12   2.0000      -0.447776       -12.1846
  13   2.0000      -0.416314       -11.3285
  14   2.0000      -0.401805       -10.9337
  15   2.0000      -0.378863       -10.3094
  16   2.0000      -0.363584        -9.8936
  17   2.0000      -0.347290        -9.4502
  18   2.0000      -0.340420        -9.2633
  19   2.0000      -0.316050        -8.6002
  20   2.0000      -0.299240        -8.1427
  21   2.0000      -0.286014        -7.7828
  22   2.0000      -0.282585        -7.6895
  23   2.0000      -0.261461        -7.1147
  24   2.0000      -0.211507        -5.7554
  25   0.0000       0.027070         0.7366
  26   0.0000       0.042222         1.1489
  27   0.0000       0.060064         1.6344
  28   0.0000       0.073851         2.0096
  29   0.0000       0.096915         2.6372

MULLIKEN ATOMIC CHARGES
-----------------------
   0 C :   -0.262922
   1 C :   -0.160741
   2 C :   -0.211176
   3 H :    0.054521
   4 C :   -0.256345
   5 C :    0.059304
   6 O :   -0.429277
   7 H :    0.099100
   8 H :    0.094033
   9 H :    0.102516
  10 H :    0.090037
  11 H :    0.077187
  12 H :    0.098206
  13 H :    0.097557
  14 H :    0.106779
  15 H :    0.077361
  16 H :    0.070601
  17 H :    0.293260
Sum of atomic charges:   -0.0000000

LOEWDIN ATOMIC CHARGES
----------------------
   0 C :   -0.340735
   1 C :   -0.229725
   2 C :   -0.176285
   3 H :    0.106258
   4 C :   -0.329841
   5 C :   -0.116492
   6 O :   -0.335468
   7 H :    0.114403
   8 H :    0.115424
   9 H :    0.120292
  10 H :    0.116230
  11 H :    0.113624
  12 H :    0.117300
  13 H :    0.118968
  14 H :    0.119863
  15 H :    0.112242
  16 H :    0.092960
  17 H :    0.280984

  Mayer bond orders larger than 0.100000
B(  0-C ,  1-C ) :   1.1584 B(  0-C ,  7-H ) :   0.9487 B(  0-C ,  8-H ) :   0.9536
B(  0-C ,  9-H ) :   0.9514 B(  1-C ,  2-C ) :   1.0729 B(  1-C , 10-H ) :   0.9136
B(  1-C , 11-H ) :   0.9221 B(  2-C ,  3-H ) :   0.8983 B(  2-C ,  4-C ) :   1.0950
B(  2-C ,  5-C ) :   1.0504 B(  4-C , 12-H ) :   0.9469 B(  4-C , 13-H ) :   0.9496
B(  4-C , 14-H ) :   0.9453 B(  5-C ,  6-O ) :   1.0654 B(  5-C , 15-H ) :   0.9191
B(  5-C , 16-H ) :   0.9291 B(  6-O , 17-H ) :   0.8536

Dispersion correction           -0.012839418
FINAL SINGLE POINT ENERGY      -272.301716116975

DIPOLE MOMENT
-------------

Method             : SCF
Type of density    : Electron Density
Multiplicity       :   1
Irrep              :   0
Energy             :  -272.3716043958912678 Eh
Relativity type    :
Basis              : AO
                                X                 Y                 Z
Electronic contribution:      5.034416717       1.917895020       0.144356525
Nuclear contribution   :     -5.229821694      -2.221797096       0.322146561
                        -----------------------------------------
Total Dipole Moment    :     -0.195404976      -0.303902076       0.466503086
                        -----------------------------------------
Magnitude (a.u.)       :      0.590054833
Magnitude (Debye)      :      1.499800194

Rotational constants in cm-1:             0.152963             0.079208             0.057433
Rotational constants in MHz :          4585.724223          2374.589047          1721.802606

                             ****ORCA TERMINATED NORMALLY****
TOTAL RUN TIME: 0 days 0 hours 0 minutes 7 seconds 648 msec
