                         Program Version 6.0.0  -   RELEASE  -
|  1> ! pbe def2-sv(p) def2/J RI DEFGRID1 loosescf d4 GCP(DFT/SV(P)) printgap
|  2> %output
|  3>     printlevel normal
|  4> end
|  5> * xyz 0 1
|  6> C -4.0896495499 -0.9518084744 1.1333920687
|  7> C -3.4713443749 0.2332810135 0.4095495738
|  8> O -2.0421613008 0.1835223299 0.5342740423
|  9> C -1.2944237628 0.1862063281 -0.5686727281
| 10> O -1.763326638 0.2514444937 -1.6943210135
| 11> C 0.1462750262 0.1099793773 -0.2834177484
| 12> C 1.0436435286 0.1501476501 -1.3508347101
| 13> C 2.4017026177 0.0854513738 -1.1289829029
| 14> C 2.8901027301 -0.0233975332 0.1732588092
| 15> C 1.9935143897 -0.066577439 1.2443892046
| 16> C 0.6379916461 0.0002986272 1.0193414251
| 17> O 4.2059514616 -0.089659691 0.4501093025
| 18> H -3.7679799835 -1.8835757608 0.6754757732
| 19> H -3.7862027137 -0.9496013742 2.1762845102
| 20> H -5.170851009 -0.8815783846 1.0743457364
| 21> H -3.7884745759 1.1768845849 0.8616712508
| 22> H -3.7282758787 0.2328439567 -0.6543925743
| 23> H 0.6482626476 0.2347872127 -2.3517447907
| 24> H 3.0855540934 0.1197430952 -1.9635916741
| 25> H 2.3911204785 -0.1526777658 2.2426703778
| 26> H -0.0537461592 -0.0324805475 1.8450956786
| 27> H 4.7413252875 -0.0517023013 -0.3586641913
| 28> *
| 29>
| 30>                          ****END OF INPUT****

CARTESIAN COORDINATES (ANGSTROEM)
---------------------------------
  C     -4.089650   -0.951808    1.133392
  C     -3.471344    0.233281    0.409550
  O     -2.042161    0.183522    0.534274
  C     -1.294424    0.186206   -0.568673
  O     -1.763327    0.251444   -1.694321
  C      0.146275    0.109979   -0.283418
  C      1.043644    0.150148   -1.350835
  C      2.401703    0.085451   -1.128983
  C      2.890103   -0.023398    0.173259
  C      1.993514   -0.066577    1.244389
  C      0.637992    0.000299    1.019341
  O      4.205951   -0.089660    0.450109
  H     -3.767980   -1.883576    0.675476
  H     -3.786203   -0.949601    2.176285
  H     -5.170851   -0.881578    1.074346
  H     -3.788475    1.176885    0.861671
  H     -3.728276    0.232844   -0.654393
  H      0.648263    0.234787   -2.351745
  H      3.085554    0.119743   -1.963592
  H      2.391120   -0.152678    2.242670
  H     -0.053746   -0.032481    1.845096
  H      4.741325   -0.051702   -0.358664

 Total Charge           Charge          ....    0
 Multiplicity           Mult            ....    1
 Number of Electrons    NEL             ....   88
 Basis Dimension        Dim             ....  188

ORBITAL ENERGIES
----------------

  NO   OCC          E(Eh)            E(eV)
   0   2.0000     -18.799080      -511.5490
   1   2.0000     -18.792461      -511.3689
   2   2.0000     -18.727150      -509.5916
   3   2.0000     -10.000036      -272.1148
   4   2.0000      -9.966250      -271.1955
   5   2.0000      -9.940623      -270.4981
   6   2.0000      -9.901642      -269.4374
   7   2.0000      -9.901273      -269.4273
   8   2.0000      -9.900238      -269.3992
   9   2.0000      -9.899661      -269.3835
  10   2.0000      -9.894860      -269.2528
  11   2.0000      -9.885757      -269.0051
  12   2.0000      -0.997265       -27.1370
  13   2.0000      -0.981676       -26.7128
  14   2.0000      -0.901615       -24.5342
  15   2.0000      -0.781959       -21.2782
  16   2.0000      -0.708201       -19.2711
  17   2.0000      -0.682551       -18.5732
  18   2.0000      -0.675080       -18.3699
  19   2.0000      -0.602016       -16.3817
  20   2.0000      -0.577900       -15.7255
  21   2.0000      -0.546328       -14.8663
  22   2.0000      -0.506084       -13.7712
  23   2.0000      -0.502098       -13.6628
  24   2.0000      -0.480883       -13.0855
  25   2.0000      -0.436562       -11.8795
  26   2.0000      -0.425407       -11.5759
  27   2.0000      -0.405634       -11.0379
  28   2.0000      -0.391103       -10.6424
  29   2.0000      -0.388770       -10.5790
  30   2.0000      -0.383972       -10.4484
  31   2.0000      -0.377151       -10.2628
  32   2.0000      -0.363132        -9.8813
  33   2.0000      -0.356968        -9.7136
  34   2.0000      -0.343994        -9.3605
  35   2.0000      -0.336487        -9.1563
  36   2.0000      -0.323860        -8.8127
  37   2.0000      -0.302521        -8.2320
  38   2.0000      -0.299892        -8.1605
  39   2.0000      -0.284953        -7.7540
  40   2.0000      -0.249822        -6.7980
  41   2.0000      -0.237933        -6.4745
  42   2.0000      -0.217213        -5.9107
  43   2.0000      -0.206203        -5.6111
  44   0.0000      -0.062340        -1.6964
  45   0.0000      -0.041109        -1.1186
  46   0.0000       0.013424         0.3653
  47   0.0000       0.032282         0.8784
  48   0.0000       0.045503         1.2382

MULLIKEN ATOMIC CHARGES
-----------------------
   0 C :   -0.287091
   1 C :   -0.022788
   2 O :   -0.251329
   3 C :    0.155694
   4 O :   -0.203796
   5 C :    0.040574
   6 C :   -0.100002
   7 C :   -0.151559
   8 C :    0.246562
   9 C :   -0.112225
  10 C :   -0.084449
  11 O :   -0.316664
  12 H :    0.114891
  13 H :    0.112682
  14 H :    0.110533
  15 H :    0.101741
  16 H :    0.117389
  17 H :    0.065102
  18 H :    0.033940
  19 H :    0.050116
  20 H :    0.058354
  21 H :    0.322325
Sum of atomic charges:   -0.0000000

LOEWDIN ATOMIC CHARGES
----------------------
   0 C :   -0.351801
   1 C :   -0.113976
   2 O :   -0.069354
   3 C :    0.046530
   4 O :   -0.178831
   5 C :   -0.099423
   6 C :   -0.079822
   7 C :   -0.174443
   8 C :    0.031072
   9 C :   -0.147284
  10 C :   -0.090329
  11 O :   -0.215802
  12 H :    0.126893
  13 H :    0.123863
  14 H :    0.129200
  15 H :    0.115567
  16 H :    0.121740
  17 H :    0.136621
  18 H :    0.123105
  19 H :    0.132513
  20 H :    0.131860
  21 H :    0.302101

  Mayer bond orders larger than 0.100000
B(  0-C ,  1-C ) :   1.1682 B(  0-C , 12-H ) :   0.9507 B(  0-C , 13-H ) :   0.9506
B(  0-C , 14-H ) :   0.9449 B(  1-C ,  2-O ) :   0.9157 B(  1-C , 15-H ) :   0.9354
B(  1-C , 16-H ) :   0.9025 B(  2-O ,  3-C ) :   1.2246 B(  3-C ,  4-O ) :   2.0562
B(  3-C ,  5-C ) :   0.9536 B(  5-C ,  6-C ) :   1.3780 B(  5-C , 10-C ) :   1.3301
B(  6-C ,  7-C ) :   1.3581 B(  6-C , 17-H ) :   0.9540 B(  7-C ,  8-C ) :   1.2823
B(  7-C , 18-H ) :   0.9615 B(  8-C ,  9-C ) :   1.3353 B(  8-C , 11-O ) :   1.2139
B(  9-C , 10-C ) :   1.3671 B(  9-C , 19-H ) :   0.9661 B( 10-C , 20-H ) :   0.9604
B( 11-O , 21-H ) :   0.8381

Dispersion correction           -0.022335818
FINAL SINGLE POINT ENERGY      -573.463489688860

DIPOLE MOMENT
-------------

Method             : SCF
Type of density    : Electron Density
Multiplicity       :   1
Irrep              :   0
Energy             :  -573.5390873573448971 Eh
Relativity type    :
Basis              : AO
                                X                 Y                 Z
Electronic contribution:      9.379424808       1.971828926      -3.028988582
Nuclear contribution   :     -8.840331539      -2.046999926       3.317316857
                        -----------------------------------------
Total Dipole Moment    :      0.539093269      -0.075171000       0.288328275
                        -----------------------------------------
Magnitude (a.u.)       :      0.615958949
Magnitude (Debye)      :      1.565643224

Rotational constants in cm-1:             0.088884             0.014781             0.012972
Rotational constants in MHz :          2664.670438           443.130184           388.901940

                             ****ORCA TERMINATED NORMALLY****
TOTAL RUN TIME: 0 days 0 hours 0 minutes 12 seconds 927 msec
