                         Program Version 6.0.0  -   RELEASE  -
|  1> ! r2scan-3c def2/J RI DEFGRID2 scfconv6 printgap
|  2> %output
|  3>     printlevel normal
|  4> end
|  5> * xyz 0 1
|  6> C 1.6800498254 1.4799605888 0.4456979637
|  7> C 1.4551580329 -0.0277111217 0.4088045332
|  8> C 0.3627702616 -0.5067329376 -0.5579792902
|  9> H 0.588038368 -0.087462964 -1.5459828402
| 10> C 0.4529932652 -2.0318625155 -0.6722530214
| 11> C -1.0875313508 -0.0981269731 -0.2068235607
| 12> C -1.3960653369 -0.1590987848 1.2879164846
| 13> C -1.4666670138 1.2724288092 -0.7699928409
| 14> H 2.5934530716 1.7029719251 0.993542558
| 15> H 1.7810177064 1.8763419124 -0.5621564179
| 16> H 0.8623481605 1.995590939 0.9409064642
| 17> H 1.2415947555 -0.3902384841 1.4149701637
| 18> H 2.3903997069 -0.4969294893 0.0914270836
| 19> H 1.4529689659 -2.3350416318 -0.9741970323
| 20> H 0.230436895 -2.5013293367 0.2832458109
| 21> H -0.2522146427 -2.4058022553 -1.4109758522
| 22> H -1.7384712378 -0.8290241665 -0.7028307587
| 23> H -1.1203065495 -1.1252851902 1.7029771036
| 24> H -2.4624094648 -0.0147117415 1.448611325
| 25> H -0.8661999236 0.618706696 1.8308632615
| 26> H -2.5257683903 1.4597902899 -0.6041781877
| 27> H -1.2788320796 1.3103488471 -1.8407919525
| 28> H -0.9044887058 2.0698748183 -0.2952474696
| 29> *
| 30>
| 31>                          ****END OF INPUT****

CARTESIAN COORDINATES (ANGSTROEM)
---------------------------------
  C      1.680050    1.479961    0.445698
  C      1.455158   -0.027711    0.408805
  C      0.362770   -0.506733   -0.557979
  H      0.588038   -0.087463   -1.545983
  C      0.452993   -2.031863   -0.672253
  C     -1.087531   -0.098127   -0.206824
  C     -1.396065   -0.159099    1.287916
  C     -1.466667    1.272429   -0.769993
  H      2.593453    1.702972    0.993543
  H      1.781018    1.876342   -0.562156
  H      0.862348    1.995591    0.940906
  H      1.241595   -0.390238    1.414970
  H      2.390400   -0.496929    0.091427
  H      1.452969   -2.335042   -0.974197
  H      0.230437   -2.501329    0.283246
  H     -0.252215   -2.405802   -1.410976
  H     -1.738471   -0.829024   -0.702831
  H     -1.120307   -1.125285    1.702977
  H     -2.462409   -0.014712    1.448611
  H     -0.866200    0.618707    1.830863
  H     -2.525768    1.459790   -0.604178
  H     -1.278832    1.310349   -1.840792
  H     -0.904489    2.069875   -0.295247

 Total Charge           Charge          ....    0
 Multiplicity           Mult            ....    1
 Number of Electrons    NEL             ....   58
 Basis Dimension        Dim             ....  213

ORBITAL ENERGIES
----------------

  NO   OCC          E(Eh)            E(eV)
   0   2.0000     -10.028826      -272.8982
   1   2.0000     -10.027090      -272.8510
   2   2.0000     -10.020337      -272.6672
   3   2.0000     -10.013602      -272.4840
   4   2.0000     -10.013087      -272.4700
   5   2.0000     -10.011600      -272.4295
   6   2.0000     -10.010440      -272.3979
   7   2.0000      -0.787567       -21.4308
   8   2.0000      -0.725547       -19.7431
   9   2.0000      -0.688895       -18.7458
  10   2.0000      -0.647587       -17.6217
  11   2.0000      -0.595925       -16.2160
  12   2.0000      -0.565295       -15.3825
  13   2.0000      -0.502848       -13.6832
  14   2.0000      -0.445012       -12.1094
  15   2.0000      -0.417546       -11.3620
  16   2.0000      -0.401519       -10.9259
  17   2.0000      -0.387675       -10.5492
  18   2.0000      -0.378014       -10.2863
  19   2.0000      -0.368316       -10.0224
  20   2.0000      -0.354192        -9.6381
  21   2.0000      -0.347677        -9.4608
  22   2.0000      -0.336907        -9.1677
  23   2.0000      -0.316752        -8.6193
  24   2.0000      -0.309711        -8.4277
  25   2.0000      -0.300907        -8.1881
  26   2.0000      -0.278986        -7.5916
  27   2.0000      -0.274995        -7.4830
  28   2.0000      -0.267840        -7.2883
  29   0.0000       0.077785         2.1166
  30   0.0000       0.101301         2.7565
  31   0.0000       0.113690         3.0937
  32   0.0000       0.120000         3.2654
  33   0.0000       0.126540         3.4433

MULLIKEN ATOMIC CHARGES
-----------------------
   0 C :   -0.505253
   1 C :   -0.240260
   2 C :   -0.080810
   3 H :    0.153960
   4 C :   -0.503391
   5 C :   -0.027278
   6 C :   -0.515098
   7 C :   -0.497994
   8 H :    0.146025
   9 H :    0.152328
  10 H :    0.144251
  11 H :    0.156191
  12 H :    0.135215
  13 H :    0.144026
  14 H :    0.148364
  15 H :    0.148078
  16 H :    0.142606
  17 H :    0.153993
  18 H :    0.147087
  19 H :    0.153397
  20 H :    0.144405
  21 H :    0.149182
  22 H :    0.150974
Sum of atomic charges:    0.0000000

LOEWDIN ATOMIC CHARGES
----------------------
   0 C :   -0.425676
   1 C :   -0.305990
   2 C :   -0.234988
   3 H :    0.158246
   4 C :   -0.414436
   5 C :   -0.238298
   6 C :   -0.414333
   7 C :   -0.415285
   8 H :    0.150127
   9 H :    0.151393
  10 H :    0.145698
  11 H :    0.156848
  12 H :    0.154852
  13 H :    0.151357
  14 H :    0.153393
  15 H :    0.151205
  16 H :    0.157867
  17 H :    0.153193
  18 H :    0.154056
  19 H :    0.152723
  20 H :    0.151521
  21 H :    0.152618
  22 H :    0.153908

  Mayer bond orders larger than 0.100000
B(  0-C ,  1-C ) :   0.8741 B(  0-C ,  8-H ) :   0.9727 B(  0-C ,  9-H ) :   0.9856
B(  0-C , 10-H ) :   0.9827 B(  1-C ,  2-C ) :   0.8904 B(  1-C , 11-H ) :   0.9767
B(  1-C , 12-H ) :   0.9669 B(  2-C ,  3-H ) :   0.9941 B(  2-C ,  4-C ) :   0.9167
B(  2-C ,  5-C ) :   0.8471 B(  4-C , 13-H ) :   0.9770 B(  4-C , 14-H ) :   0.9831
B(  4-C , 15-H ) :   0.9806 B(  5-C ,  6-C ) :   0.8729 B(  5-C ,  7-C ) :   0.9159
B(  5-C , 16-H ) :   0.9798 B(  6-C , 17-H ) :   0.9837 B(  6-C , 18-H ) :   0.9680
B(  6-C , 19-H ) :   0.9786 B(  7-C , 20-H ) :   0.9785 B(  7-C , 21-H ) :   0.9847
B(  7-C , 22-H ) :   0.9715

Dispersion correction           -0.006696312
FINAL SINGLE POINT ENERGY      -276.283578355263

DIPOLE MOMENT
-------------

Method             : SCF
Type of density    : Electron Density
Multiplicity       :   1
Irrep              :   0
Energy             :  -276.2881760578369494 Eh
Relativity type    :
Basis              : AO
                                X                 Y                 Z
Electronic contribution:      0.018397459      -0.816259299      -0.748570754
Nuclear contribution   :     -0.007911857       0.795373423       0.722556233
                        -----------------------------------------
Total Dipole Moment    :      0.010485601      -0.020885876      -0.026014522
                        -----------------------------------------
Magnitude (a.u.)       :      0.034970316
Magnitude (Debye)      :      0.088887479

Rotational constants in cm-1:             0.083836             0.074015             0.054498
Rotational constants in MHz :          2513.343241          2218.913227          1633.804002

                             ****ORCA TERMINATED NORMALLY****
TOTAL RUN TIME: 0 days 0 hours 0 minutes 21 seconds 493 msec
