                         Program Version 6.0.0  -   RELEASE  -
|  1> ! r2scan-3c def2/J RI DEFGRID2 scfconv6 printgap
|  2> %output
|  3>     printlevel normal
|  4> end
|  5> %cpcm
|  6>     smd true
|  7>     smdsolvent "water"
|  8> end
|  9> * xyz 0 1
| 10> C 1.6800498254 1.4799605888 0.4456979637
| 11> C 1.4551580329 -0.0277111217 0.4088045332
| 12> C 0.3627702616 -0.5067329376 -0.5579792902
| 13> H 0.588038368 -0.087462964 -1.5459828402
| 14> C 0.4529932652 -2.0318625155 -0.6722530214
| 15> C -1.0875313508 -0.0981269731 -0.2068235607
| 16> C -1.3960653369 -0.1590987848 1.2879164846
| 17> C -1.4666670138 1.2724288092 -0.7699928409
| 18> H 2.5934530716 1.7029719251 0.993542558
| 19> H 1.7810177064 1.8763419124 -0.5621564179
| 20> H 0.8623481605 1.995590939 0.9409064642
| 21> H 1.2415947555 -0.3902384841 1.4149701637
| 22> H 2.3903997069 -0.4969294893 0.0914270836
| 23> H 1.4529689659 -2.3350416318 -0.9741970323
| 24> H 0.230436895 -2.5013293367 0.2832458109
| 25> H -0.2522146427 -2.4058022553 -1.4109758522
| 26> H -1.7384712378 -0.8290241665 -0.7028307587
| 27> H -1.1203065495 -1.1252851902 1.7029771036
| 28> H -2.4624094648 -0.0147117415 1.448611325
| 29> H -0.8661999236 0.618706696 1.8308632615
| 30> H -2.5257683903 1.4597902899 -0.6041781877
| 31> H -1.2788320796 1.3103488471 -1.8407919525
| 32> H -0.9044887058 2.0698748183 -0.2952474696
| 33> *
| 34>
| 35>                          ****END OF INPUT****

CARTESIAN COORDINATES (ANGSTROEM)
---------------------------------
  C      1.680050    1.479961    0.445698
  C      1.455158   -0.027711    0.408805
  C      0.362770   -0.506733   -0.557979
  H      0.588038   -0.087463   -1.545983
  C      0.452993   -2.031863   -0.672253
  C     -1.087531   -0.098127   -0.206824
  C     -1.396065   -0.159099    1.287916
  C     -1.466667    1.272429   -0.769993
  H      2.593453    1.702972    0.993543
  H      1.781018    1.876342   -0.562156
  H      0.862348    1.995591    0.940906
  H      1.241595   -0.390238    1.414970
  H      2.390400   -0.496929    0.091427
  H      1.452969   -2.335042   -0.974197
  H      0.230437   -2.501329    0.283246
  H     -0.252215   -2.405802   -1.410976
  H     -1.738471   -0.829024   -0.702831
  H     -1.120307   -1.125285    1.702977
  H     -2.462409   -0.014712    1.448611
  H     -0.866200    0.618707    1.830863
  H     -2.525768    1.459790   -0.604178
  H     -1.278832    1.310349   -1.840792
  H     -0.904489    2.069875   -0.295247

 Total Charge           Charge          ....    0
 Multiplicity           Mult            ....    1
 Number of Electrons    NEL             ....   58
 Basis Dimension        Dim             ....  213

ORBITAL ENERGIES
----------------

  NO   OCC          E(Eh)            E(eV)
   0   2.0000     -10.021042      -272.6864
   1   2.0000     -10.019116      -272.6340
   2   2.0000     -10.012242      -272.4469
   3   2.0000     -10.005331      -272.2589
   4   2.0000     -10.004446      -272.2348
   5   2.0000     -10.003889      -272.2197
   6   2.0000     -10.003083      -272.1977
   7   2.0000      -0.779646       -21.2152
   8   2.0000      -0.717850       -19.5337
   9   2.0000      -0.681419       -18.5423
  10   2.0000      -0.640217       -17.4212
  11   2.0000      -0.588628       -16.0174
  12   2.0000      -0.557839       -15.1796
  13   2.0000      -0.495094       -13.4722
  14   2.0000      -0.436749       -11.8845
  15   2.0000      -0.409922       -11.1546
  16   2.0000      -0.393922       -10.7192
  17   2.0000      -0.379916       -10.3380
  18   2.0000      -0.370095       -10.0708
  19   2.0000      -0.361023        -9.8239
  20   2.0000      -0.346474        -9.4280
  21   2.0000      -0.339979        -9.2513
  22   2.0000      -0.329015        -8.9529
  23   2.0000      -0.308584        -8.3970
  24   2.0000      -0.301942        -8.2163
  25   2.0000      -0.293204        -7.9785
  26   2.0000      -0.271089        -7.3767
  27   2.0000      -0.267355        -7.2751
  28   2.0000      -0.259796        -7.0694
  29   0.0000       0.086466         2.3529
  30   0.0000       0.109093         2.9686
  31   0.0000       0.120853         3.2886
  32   0.0000       0.128192         3.4883
  33   0.0000       0.133853         3.6423

MULLIKEN ATOMIC CHARGES
-----------------------
   0 C :   -0.546807
   1 C :   -0.252377
   2 C :   -0.067013
   3 H :    0.160877
   4 C :   -0.553135
   5 C :   -0.009491
   6 C :   -0.557041
   7 C :   -0.547503
   8 H :    0.154279
   9 H :    0.160412
  10 H :    0.161099
  11 H :    0.162287
  12 H :    0.144504
  13 H :    0.155229
  14 H :    0.161339
  15 H :    0.158887
  16 H :    0.149144
  17 H :    0.165420
  18 H :    0.157073
  19 H :    0.165706
  20 H :    0.154795
  21 H :    0.159934
  22 H :    0.162382
Sum of atomic charges:   -0.0000000

LOEWDIN ATOMIC CHARGES
----------------------
   0 C :   -0.434062
   1 C :   -0.308364
   2 C :   -0.233656
   3 H :    0.160184
   4 C :   -0.423863
   5 C :   -0.236432
   6 C :   -0.422770
   7 C :   -0.424558
   8 H :    0.151486
   9 H :    0.152907
  10 H :    0.150243
  11 H :    0.158104
  12 H :    0.156541
  13 H :    0.153337
  14 H :    0.156163
  15 H :    0.153404
  16 H :    0.159537
  17 H :    0.156125
  18 H :    0.155560
  19 H :    0.155842
  20 H :    0.153475
  21 H :    0.154699
  22 H :    0.156099

  Mayer bond orders larger than 0.100000
B(  0-C ,  1-C ) :   0.8640 B(  0-C ,  8-H ) :   0.9708 B(  0-C ,  9-H ) :   0.9830
B(  0-C , 10-H ) :   0.9798 B(  1-C ,  2-C ) :   0.8848 B(  1-C , 11-H ) :   0.9779
B(  1-C , 12-H ) :   0.9681 B(  2-C ,  3-H ) :   0.9942 B(  2-C ,  4-C ) :   0.9050
B(  2-C ,  5-C ) :   0.8454 B(  4-C , 13-H ) :   0.9755 B(  4-C , 14-H ) :   0.9816
B(  4-C , 15-H ) :   0.9781 B(  5-C ,  6-C ) :   0.8654 B(  5-C ,  7-C ) :   0.9042
B(  5-C , 16-H ) :   0.9815 B(  6-C , 17-H ) :   0.9798 B(  6-C , 18-H ) :   0.9671
B(  6-C , 19-H ) :   0.9766 B(  7-C , 20-H ) :   0.9771 B(  7-C , 21-H ) :   0.9816
B(  7-C , 22-H ) :   0.9720

Dispersion correction           -0.006696312
FINAL SINGLE POINT ENERGY      -276.279878167513

DIPOLE MOMENT
-------------

Method             : SCF
Type of density    : Electron Density
Multiplicity       :   1
Irrep              :   0
Energy             :  -276.2844758700870784 Eh
Relativity type    :
Basis              : AO
                                X                 Y                 Z
Electronic contribution:      0.015092447      -0.820572321      -0.747203035
Nuclear contribution   :     -0.007911857       0.795373423       0.722556233
                        -----------------------------------------
Total Dipole Moment    :      0.007180590      -0.025198897      -0.024646802
                        -----------------------------------------
Magnitude (a.u.)       :      0.035972352
Magnitude (Debye)      :      0.091434454

Rotational constants in cm-1:             0.083836             0.074015             0.054498
Rotational constants in MHz :          2513.343241          2218.913227          1633.804002

                             ****ORCA TERMINATED NORMALLY****
TOTAL RUN TIME: 0 days 0 hours 0 minutes 26 seconds 776 msec
