                         Program Version 6.0.0  -   RELEASE  -
|  1> ! r2scan-3c def2/J RI DEFGRID2 scfconv6 printgap
|  2> %output
|  3>     printlevel normal
|  4> end
|  5> * xyz 0 1
|  6> C 2.3972772206 -0.027657184 -0.1864463979
|  7> O 1.1633548639 0.1932802393 0.4626925191
|  8> C 0.04948982 -0.1473715894 -0.3379177115
|  9> C -1.2240231735 0.1705247245 0.4421494398
| 10> N -2.3938017337 -0.1309346817 -0.3691008995
| 11> H 3.1689465331 0.2696026564 0.5189032221
| 12> H 2.4725063945 0.575524216 -1.0976341168
| 13> H 2.5183865636 -1.0849965386 -0.4468192473
| 14> H 0.0617771564 0.4252274035 -1.2754063744
| 15> H 0.0827493949 -1.2189749602 -0.589631881
| 16> H -1.1856216236 -0.3805819905 1.3960406535
| 17> H -1.2302253475 1.2380030515 0.6742917659
| 18> H -3.2325567735 0.1078586311 0.1469684571
| 19> H -2.4275448695 -1.1264833396 -0.5623600411
| 20> *
| 21>
| 22>                          ****END OF INPUT****

CARTESIAN COORDINATES (ANGSTROEM)
---------------------------------
  C      2.397277   -0.027657   -0.186446
  O      1.163355    0.193280    0.462693
  C      0.049490   -0.147372   -0.337918
  C     -1.224023    0.170525    0.442149
  N     -2.393802   -0.130935   -0.369101
  H      3.168947    0.269603    0.518903
  H      2.472506    0.575524   -1.097634
  H      2.518387   -1.084997   -0.446819
  H      0.061777    0.425227   -1.275406
  H      0.082749   -1.218975   -0.589632
  H     -1.185622   -0.380582    1.396041
  H     -1.230225    1.238003    0.674292
  H     -3.232557    0.107859    0.146968
  H     -2.427545   -1.126483   -0.562360

 Total Charge           Charge          ....    0
 Multiplicity           Mult            ....    1
 Number of Electrons    NEL             ....   42
 Basis Dimension        Dim             ....  150

ORBITAL ENERGIES
----------------

  NO   OCC          E(Eh)            E(eV)
   0   2.0000     -18.950457      -515.6682
   1   2.0000     -14.140622      -384.7859
   2   2.0000     -10.072179      -274.0779
   3   2.0000     -10.069398      -274.0022
   4   2.0000     -10.050945      -273.5001
   5   2.0000      -0.995946       -27.1011
   6   2.0000      -0.850661       -23.1477
   7   2.0000      -0.705177       -19.1888
   8   2.0000      -0.626031       -17.0352
   9   2.0000      -0.565798       -15.3962
  10   2.0000      -0.468708       -12.7542
  11   2.0000      -0.456943       -12.4341
  12   2.0000      -0.437578       -11.9071
  13   2.0000      -0.411855       -11.2071
  14   2.0000      -0.399478       -10.8703
  15   2.0000      -0.375239       -10.2108
  16   2.0000      -0.332495        -9.0476
  17   2.0000      -0.320462        -8.7202
  18   2.0000      -0.284831        -7.7507
  19   2.0000      -0.221572        -6.0293
  20   2.0000      -0.209336        -5.6963
  21   0.0000       0.057864         1.5746
  22   0.0000       0.085290         2.3209
  23   0.0000       0.115337         3.1385
  24   0.0000       0.132737         3.6120
  25   0.0000       0.143614         3.9079

MULLIKEN ATOMIC CHARGES
-----------------------
   0 C :   -0.286273
   1 O :   -0.239351
   2 C :   -0.155406
   3 C :   -0.169416
   4 N :   -0.565992
   5 H :    0.146995
   6 H :    0.132190
   7 H :    0.129605
   8 H :    0.137525
   9 H :    0.112150
  10 H :    0.130915
  11 H :    0.143351
  12 H :    0.243031
  13 H :    0.240676
Sum of atomic charges:   -0.0000000

LOEWDIN ATOMIC CHARGES
----------------------
   0 C :   -0.073434
   1 O :   -0.796515
   2 C :    0.036003
   3 C :   -0.042014
   4 N :   -0.737387
   5 H :    0.174083
   6 H :    0.155151
   7 H :    0.154109
   8 H :    0.167166
   9 H :    0.157499
  10 H :    0.154232
  11 H :    0.177410
  12 H :    0.238035
  13 H :    0.235662

  Mayer bond orders larger than 0.100000
B(  0-C ,  1-O ) :   0.8901 B(  0-C ,  5-H ) :   0.9735 B(  0-C ,  6-H ) :   0.9672
B(  0-C ,  7-H ) :   0.9679 B(  1-O ,  2-C ) :   0.9299 B(  2-C ,  3-C ) :   0.9749
B(  2-C ,  8-H ) :   0.9481 B(  2-C ,  9-H ) :   0.9436 B(  3-C ,  4-N ) :   0.9269
B(  3-C , 10-H ) :   0.9675 B(  3-C , 11-H ) :   0.9729 B(  4-N , 12-H ) :   0.9167
B(  4-N , 13-H ) :   0.9206

Dispersion correction           -0.002645510
FINAL SINGLE POINT ENERGY      -249.617074179211

DIPOLE MOMENT
-------------

Method             : SCF
Type of density    : Electron Density
Multiplicity       :   1
Irrep              :   0
Energy             :  -249.6269601056774263 Eh
Relativity type    :
Basis              : AO
                                X                 Y                 Z
Electronic contribution:     -0.264647791       0.702443942       1.133502527
Nuclear contribution   :      0.218414435      -1.118793986      -1.154400862
                        -----------------------------------------
Total Dipole Moment    :     -0.046233356      -0.416350044      -0.020898335
                        -----------------------------------------
Magnitude (a.u.)       :      0.419430116
Magnitude (Debye)      :      1.066106630

Rotational constants in cm-1:             0.721216             0.071194             0.067637
Rotational constants in MHz :         21621.500467          2134.356835          2027.718312

                             ****ORCA TERMINATED NORMALLY****
TOTAL RUN TIME: 0 days 0 hours 0 minutes 15 seconds 718 msec
