                         Program Version 6.0.0  -   RELEASE  -
|  1> ! r2scan-3c def2/J RI DEFGRID2 scfconv6 printgap
|  2> %output
|  3>     printlevel normal
|  4> end
|  5> %cpcm
|  6>     smd true
|  7>     smdsolvent "water"
|  8> end
|  9> * xyz 0 1
| 10> C 2.3972772206 -0.027657184 -0.1864463979
| 11> O 1.1633548639 0.1932802393 0.4626925191
| 12> C 0.04948982 -0.1473715894 -0.3379177115
| 13> C -1.2240231735 0.1705247245 0.4421494398
| 14> N -2.3938017337 -0.1309346817 -0.3691008995
| 15> H 3.1689465331 0.2696026564 0.5189032221
| 16> H 2.4725063945 0.575524216 -1.0976341168
| 17> H 2.5183865636 -1.0849965386 -0.4468192473
| 18> H 0.0617771564 0.4252274035 -1.2754063744
| 19> H 0.0827493949 -1.2189749602 -0.589631881
| 20> H -1.1856216236 -0.3805819905 1.3960406535
| 21> H -1.2302253475 1.2380030515 0.6742917659
| 22> H -3.2325567735 0.1078586311 0.1469684571
| 23> H -2.4275448695 -1.1264833396 -0.5623600411
| 24> *
| 25>
| 26>                          ****END OF INPUT****

CARTESIAN COORDINATES (ANGSTROEM)
---------------------------------
  C      2.397277   -0.027657   -0.186446
  O      1.163355    0.193280    0.462693
  C      0.049490   -0.147372   -0.337918
  C     -1.224023    0.170525    0.442149
  N     -2.393802   -0.130935   -0.369101
  H      3.168947    0.269603    0.518903
  H      2.472506    0.575524   -1.097634
  H      2.518387   -1.084997   -0.446819
  H      0.061777    0.425227   -1.275406
  H      0.082749   -1.218975   -0.589632
  H     -1.185622   -0.380582    1.396041
  H     -1.230225    1.238003    0.674292
  H     -3.232557    0.107859    0.146968
  H     -2.427545   -1.126483   -0.562360

 Total Charge           Charge          ....    0
 Multiplicity           Mult            ....    1
 Number of Electrons    NEL             ....   42
 Basis Dimension        Dim             ....  150

ORBITAL ENERGIES
----------------

  NO   OCC          E(Eh)            E(eV)
   0   2.0000     -18.957452      -515.8585
   1   2.0000     -14.135292      -384.6409
   2   2.0000     -10.068468      -273.9769
   3   2.0000     -10.062990      -273.8279
   4   2.0000     -10.046898      -273.3900
   5   2.0000      -1.001246       -27.2453
   6   2.0000      -0.844822       -22.9888
   7   2.0000      -0.702673       -19.1207
   8   2.0000      -0.621478       -16.9113
   9   2.0000      -0.562492       -15.3062
  10   2.0000      -0.464225       -12.6322
  11   2.0000      -0.455314       -12.3897
  12   2.0000      -0.434676       -11.8281
  13   2.0000      -0.408483       -11.1154
  14   2.0000      -0.395531       -10.7629
  15   2.0000      -0.370444       -10.0803
  16   2.0000      -0.328143        -8.9292
  17   2.0000      -0.315567        -8.5870
  18   2.0000      -0.289653        -7.8819
  19   2.0000      -0.226226        -6.1559
  20   2.0000      -0.210077        -5.7165
  21   0.0000       0.062966         1.7134
  22   0.0000       0.093259         2.5377
  23   0.0000       0.125127         3.4049
  24   0.0000       0.141263         3.8440
  25   0.0000       0.150651         4.0994

MULLIKEN ATOMIC CHARGES
-----------------------
   0 C :   -0.306849
   1 O :   -0.307113
   2 C :   -0.159327
   3 C :   -0.192839
   4 N :   -0.652147
   5 H :    0.162194
   6 H :    0.151290
   7 H :    0.150766
   8 H :    0.144926
   9 H :    0.142821
  10 H :    0.137294
  11 H :    0.155748
  12 H :    0.286510
  13 H :    0.286725
Sum of atomic charges:   -0.0000000

LOEWDIN ATOMIC CHARGES
----------------------
   0 C :   -0.074175
   1 O :   -0.835833
   2 C :    0.033268
   3 C :   -0.047300
   4 N :   -0.752725
   5 H :    0.179142
   6 H :    0.163788
   7 H :    0.163644
   8 H :    0.170251
   9 H :    0.169411
  10 H :    0.157083
  11 H :    0.178242
  12 H :    0.248440
  13 H :    0.246765

  Mayer bond orders larger than 0.100000
B(  0-C ,  1-O ) :   0.8794 B(  0-C ,  5-H ) :   0.9668 B(  0-C ,  6-H ) :   0.9621
B(  0-C ,  7-H ) :   0.9625 B(  1-O ,  2-C ) :   0.9221 B(  2-C ,  3-C ) :   0.9518
B(  2-C ,  8-H ) :   0.9446 B(  2-C ,  9-H ) :   0.9407 B(  3-C ,  4-N ) :   0.9491
B(  3-C , 10-H ) :   0.9669 B(  3-C , 11-H ) :   0.9746 B(  4-N , 12-H ) :   0.8992
B(  4-N , 13-H ) :   0.9029

Dispersion correction           -0.002645510
FINAL SINGLE POINT ENERGY      -249.626493925735

DIPOLE MOMENT
-------------

Method             : SCF
Type of density    : Electron Density
Multiplicity       :   1
Irrep              :   0
Energy             :  -249.6363798522020261 Eh
Relativity type    :
Basis              : AO
                                X                 Y                 Z
Electronic contribution:     -0.282889748       0.493078677       1.059106135
Nuclear contribution   :      0.218414435      -1.118793986      -1.154400862
                        -----------------------------------------
Total Dipole Moment    :     -0.064475313      -0.625715308      -0.095294727
                        -----------------------------------------
Magnitude (a.u.)       :      0.636205783
Magnitude (Debye)      :      1.617106586

Rotational constants in cm-1:             0.721216             0.071194             0.067637
Rotational constants in MHz :         21621.500467          2134.356835          2027.718312

                             ****ORCA TERMINATED NORMALLY****
TOTAL RUN TIME: 0 days 0 hours 0 minutes 17 seconds 813 msec
