                         Program Version 6.0.0  -   RELEASE  -
|  1> ! pbe def2-sv(p) def2/J RI DEFGRID1 loosescf d4 GCP(DFT/SV(P)) printgap
|  2> %output
|  3>     printlevel normal
|  4> end
|  5> * xyz 0 1
|  6> C -2.5099363037 0.9358909927 -0.4097367672
|  7> C -1.7351953525 -0.3784268282 -0.4110167404
|  8> C -0.6153532775 -0.4197353445 0.6353084502
|  9> C 0.8104310558 -0.1190328616 0.1369993105
| 10> C 0.905488911 1.2321933978 -0.5768784725
| 11> C 1.326316022 -1.235786379 -0.7774657304
| 12> O 1.5926102721 -0.0847500464 1.3334827005
| 13> H -3.2970286333 0.9084787707 -1.1601539774
| 14> H -1.8593248537 1.777834702 -0.6262571856
| 15> H -2.9703654175 1.1009456606 0.561751163
| 16> H -2.43743165 -1.1873564301 -0.2013150142
| 17> H -1.3289072939 -0.5576009558 -1.4068836514
| 18> H -0.8322265267 0.293383086 1.433103493
| 19> H -0.5754763616 -1.4073234292 1.0990813161
| 20> H 0.3003684869 1.2311099449 -1.4773968978
| 21> H 1.9375816023 1.4342124659 -0.8578282244
| 22> H 0.5664335688 2.0253877179 0.0850473039
| 23> H 1.3408009078 -2.178293711 -0.2350920898
| 24> H 2.3362515436 -1.0118491917 -1.1149529109
| 25> H 0.6899665834 -1.3442465439 -1.6499159535
| 26> H 2.5160822128 0.0806597457 1.0999613239
| 27> *
| 28>
| 29>                          ****END OF INPUT****

CARTESIAN COORDINATES (ANGSTROEM)
---------------------------------
  C     -2.509936    0.935891   -0.409737
  C     -1.735195   -0.378427   -0.411017
  C     -0.615353   -0.419735    0.635308
  C      0.810431   -0.119033    0.136999
  C      0.905489    1.232193   -0.576878
  C      1.326316   -1.235786   -0.777466
  O      1.592610   -0.084750    1.333483
  H     -3.297029    0.908479   -1.160154
  H     -1.859325    1.777835   -0.626257
  H     -2.970365    1.100946    0.561751
  H     -2.437432   -1.187356   -0.201315
  H     -1.328907   -0.557601   -1.406884
  H     -0.832227    0.293383    1.433103
  H     -0.575476   -1.407323    1.099081
  H      0.300368    1.231110   -1.477397
  H      1.937582    1.434212   -0.857828
  H      0.566434    2.025388    0.085047
  H      1.340801   -2.178294   -0.235092
  H      2.336252   -1.011849   -1.114953
  H      0.689967   -1.344247   -1.649916
  H      2.516082    0.080660    1.099961

 Total Charge           Charge          ....    0
 Multiplicity           Mult            ....    1
 Number of Electrons    NEL             ....   58
 Basis Dimension        Dim             ....  126

ORBITAL ENERGIES
----------------

  NO   OCC          E(Eh)            E(eV)
   0   2.0000     -18.733940      -509.7764
   1   2.0000      -9.944702      -270.6091
   2   2.0000      -9.883765      -268.9509
   3   2.0000      -9.875166      -268.7169
   4   2.0000      -9.873640      -268.6754
   5   2.0000      -9.872833      -268.6534
   6   2.0000      -9.871358      -268.6133
   7   2.0000      -0.912708       -24.8361
   8   2.0000      -0.722615       -19.6634
   9   2.0000      -0.676154       -18.3991
  10   2.0000      -0.618287       -16.8244
  11   2.0000      -0.609373       -16.5819
  12   2.0000      -0.542397       -14.7594
  13   2.0000      -0.485997       -13.2246
  14   2.0000      -0.437115       -11.8945
  15   2.0000      -0.418563       -11.3897
  16   2.0000      -0.406838       -11.0706
  17   2.0000      -0.376535       -10.2460
  18   2.0000      -0.367276        -9.9941
  19   2.0000      -0.362955        -9.8765
  20   2.0000      -0.349536        -9.5114
  21   2.0000      -0.337050        -9.1716
  22   2.0000      -0.314340        -8.5536
  23   2.0000      -0.308816        -8.4033
  24   2.0000      -0.291572        -7.9341
  25   2.0000      -0.290706        -7.9105
  26   2.0000      -0.279736        -7.6120
  27   2.0000      -0.259175        -7.0525
  28   2.0000      -0.209633        -5.7044
  29   0.0000       0.023649         0.6435
  30   0.0000       0.049708         1.3526
  31   0.0000       0.065491         1.7821
  32   0.0000       0.073726         2.0062
  33   0.0000       0.082399         2.2422

MULLIKEN ATOMIC CHARGES
-----------------------
   0 C :   -0.293127
   1 C :   -0.186507
   2 C :   -0.094629
   3 C :   -0.070684
   4 C :   -0.224778
   5 C :   -0.224697
   6 O :   -0.422559
   7 H :    0.099415
   8 H :    0.104668
   9 H :    0.102602
  10 H :    0.084410
  11 H :    0.093471
  12 H :    0.086255
  13 H :    0.080750
  14 H :    0.103161
  15 H :    0.081962
  16 H :    0.108000
  17 H :    0.103200
  18 H :    0.083383
  19 H :    0.097821
  20 H :    0.287882
Sum of atomic charges:   -0.0000000

LOEWDIN ATOMIC CHARGES
----------------------
   0 C :   -0.342102
   1 C :   -0.236423
   2 C :   -0.216911
   3 C :   -0.013488
   4 C :   -0.338985
   5 C :   -0.339042
   6 O :   -0.324099
   7 H :    0.117645
   8 H :    0.115796
   9 H :    0.117866
  10 H :    0.119639
  11 H :    0.112536
  12 H :    0.120364
  13 H :    0.119534
  14 H :    0.121571
  15 H :    0.112633
  16 H :    0.121974
  17 H :    0.121659
  18 H :    0.112320
  19 H :    0.120093
  20 H :    0.277420

  Mayer bond orders larger than 0.100000
B(  0-C ,  1-C ) :   1.1550 B(  0-C ,  7-H ) :   0.9506 B(  0-C ,  8-H ) :   0.9494
B(  0-C ,  9-H ) :   0.9530 B(  1-C ,  2-C ) :   1.0751 B(  1-C , 10-H ) :   0.9242
B(  1-C , 11-H ) :   0.9247 B(  2-C ,  3-C ) :   1.0595 B(  2-C , 12-H ) :   0.9147
B(  2-C , 13-H ) :   0.9148 B(  3-C ,  4-C ) :   1.0913 B(  3-C ,  5-C ) :   1.0828
B(  3-C ,  6-O ) :   1.0197 B(  4-C , 14-H ) :   0.9269 B(  4-C , 15-H ) :   0.9373
B(  4-C , 16-H ) :   0.9382 B(  5-C , 17-H ) :   0.9426 B(  5-C , 18-H ) :   0.9409
B(  5-C , 19-H ) :   0.9303 B(  6-O , 20-H ) :   0.8543

Dispersion correction           -0.017018156
FINAL SINGLE POINT ENERGY      -311.517965882703

DIPOLE MOMENT
-------------

Method             : SCF
Type of density    : Electron Density
Multiplicity       :   1
Irrep              :   0
Energy             :  -311.5970493192619983 Eh
Relativity type    :
Basis              : AO
                                X                 Y                 Z
Electronic contribution:      3.586993811      -1.037889589       3.662115857
Nuclear contribution   :     -3.366208101       1.092023471      -4.155836533
                        -----------------------------------------
Total Dipole Moment    :      0.220785710       0.054133882      -0.493720676
                        -----------------------------------------
Magnitude (a.u.)       :      0.543541086
Magnitude (Debye)      :      1.381571646

Rotational constants in cm-1:             0.132014             0.053142             0.051403
Rotational constants in MHz :          3957.695140          1593.149630          1541.033192

                             ****ORCA TERMINATED NORMALLY****
TOTAL RUN TIME: 0 days 0 hours 0 minutes 9 seconds 559 msec
