                         Program Version 6.0.0  -   RELEASE  -
|  1> ! r2scan-3c def2/J RI DEFGRID2 scfconv6 printgap
|  2> %output
|  3>     printlevel normal
|  4> end
|  5> * xyz 0 1
|  6> C -1.0349297734 -0.5243922595 -0.2737200302
|  7> C 0.0018758451 0.2509832131 0.5510092108
|  8> C 1.3117058313 -0.5441941748 0.6439529912
|  9> O 1.7717396787 -0.7893762765 -0.6694182913
| 10> O 0.2363854355 1.5379916546 0.0337724701
| 11> O -2.3005747709 0.0703266951 -0.0905005686
| 12> H -1.0469983308 -1.5662515025 0.0717381707
| 13> H -0.7364153555 -0.5026942939 -1.3285994496
| 14> H -0.4026982086 0.411979016 1.5549022942
| 15> H 1.1299835745 -1.4842305267 1.1778203173
| 16> H 2.038564802 0.055904968 1.204300504
| 17> H 2.6221236852 -1.2471064808 -0.6317039061
| 18> H 0.6603406985 1.4409566346 -0.8328315069
| 19> H -2.9431901795 -0.3652665781 -0.6668702625
| 20> *
| 21>
| 22>                          ****END OF INPUT****

CARTESIAN COORDINATES (ANGSTROEM)
---------------------------------
  C     -1.034930   -0.524392   -0.273720
  C      0.001876    0.250983    0.551009
  C      1.311706   -0.544194    0.643953
  O      1.771740   -0.789376   -0.669418
  O      0.236385    1.537992    0.033772
  O     -2.300575    0.070327   -0.090501
  H     -1.046998   -1.566252    0.071738
  H     -0.736415   -0.502694   -1.328599
  H     -0.402698    0.411979    1.554902
  H      1.129984   -1.484231    1.177820
  H      2.038565    0.055905    1.204301
  H      2.622124   -1.247106   -0.631704
  H      0.660341    1.440957   -0.832832
  H     -2.943190   -0.365267   -0.666870

 Total Charge           Charge          ....    0
 Multiplicity           Mult            ....    1
 Number of Electrons    NEL             ....   50
 Basis Dimension        Dim             ....  169

ORBITAL ENERGIES
----------------

  NO   OCC          E(Eh)            E(eV)
   0   2.0000     -18.964206      -516.0423
   1   2.0000     -18.946217      -515.5528
   2   2.0000     -18.941601      -515.4272
   3   2.0000     -10.083043      -274.3735
   4   2.0000     -10.082345      -274.3545
   5   2.0000     -10.073744      -274.1205
   6   2.0000      -1.006037       -27.3757
   7   2.0000      -0.987343       -26.8670
   8   2.0000      -0.972669       -26.4677
   9   2.0000      -0.726151       -19.7596
  10   2.0000      -0.642144       -17.4736
  11   2.0000      -0.568574       -15.4717
  12   2.0000      -0.502361       -13.6699
  13   2.0000      -0.480041       -13.0626
  14   2.0000      -0.455312       -12.3897
  15   2.0000      -0.428553       -11.6615
  16   2.0000      -0.422230       -11.4895
  17   2.0000      -0.379197       -10.3185
  18   2.0000      -0.365389        -9.9427
  19   2.0000      -0.332910        -9.0589
  20   2.0000      -0.313031        -8.5180
  21   2.0000      -0.287402        -7.8206
  22   2.0000      -0.252690        -6.8760
  23   2.0000      -0.234860        -6.3909
  24   2.0000      -0.231603        -6.3022
  25   0.0000       0.042166         1.1474
  26   0.0000       0.061770         1.6808
  27   0.0000       0.099932         2.7193
  28   0.0000       0.103089         2.8052
  29   0.0000       0.129230         3.5165

MULLIKEN ATOMIC CHARGES
-----------------------
   0 C :   -0.160291
   1 C :    0.003170
   2 C :   -0.148254
   3 O :   -0.447942
   4 O :   -0.397799
   5 O :   -0.409187
   6 H :    0.120300
   7 H :    0.136324
   8 H :    0.145973
   9 H :    0.122213
  10 H :    0.134956
  11 H :    0.298541
  12 H :    0.308100
  13 H :    0.293897
Sum of atomic charges:    0.0000000

LOEWDIN ATOMIC CHARGES
----------------------
   0 C :    0.024699
   1 C :    0.083220
   2 C :    0.021554
   3 O :   -0.628441
   4 O :   -0.564857
   5 O :   -0.605976
   6 H :    0.161492
   7 H :    0.169391
   8 H :    0.196024
   9 H :    0.160993
  10 H :    0.168291
  11 H :    0.270782
  12 H :    0.275246
  13 H :    0.267581

  Mayer bond orders larger than 0.100000
B(  0-C ,  1-C ) :   0.9779 B(  0-C ,  5-O ) :   0.9481 B(  0-C ,  6-H ) :   0.9570
B(  0-C ,  7-H ) :   0.9596 B(  1-C ,  2-C ) :   0.9517 B(  1-C ,  4-O ) :   0.9877
B(  1-C ,  8-H ) :   0.9455 B(  2-C ,  3-O ) :   0.9344 B(  2-C ,  9-H ) :   0.9597
B(  2-C , 10-H ) :   0.9625 B(  3-O , 11-H ) :   0.8986 B(  4-O , 12-H ) :   0.8774
B(  5-O , 13-H ) :   0.8991

Dispersion correction           -0.003000375
FINAL SINGLE POINT ENERGY      -344.720789367510

DIPOLE MOMENT
-------------

Method             : SCF
Type of density    : Electron Density
Multiplicity       :   1
Irrep              :   0
Energy             :  -344.7281574329695104 Eh
Relativity type    :
Basis              : AO
                                X                 Y                 Z
Electronic contribution:     -0.648568666       1.899971671      -0.723041939
Nuclear contribution   :      1.235650509      -3.043195073       0.504044178
                        -----------------------------------------
Total Dipole Moment    :      0.587081843      -1.143223403      -0.218997761
                        -----------------------------------------
Magnitude (a.u.)       :      1.303681272
Magnitude (Debye)      :      3.313694449

Rotational constants in cm-1:             0.195610             0.076548             0.065128
Rotational constants in MHz :          5864.248914          2294.858578          1952.487829

                             ****ORCA TERMINATED NORMALLY****
TOTAL RUN TIME: 0 days 0 hours 0 minutes 20 seconds 251 msec
