                         Program Version 6.0.0  -   RELEASE  -
|  1> ! r2scan-3c def2/J RI DEFGRID2 scfconv6 printgap
|  2> %output
|  3>     printlevel normal
|  4> end
|  5> %cpcm
|  6>     smd true
|  7>     smdsolvent "water"
|  8> end
|  9> * xyz 0 1
| 10> C -1.0349297734 -0.5243922595 -0.2737200302
| 11> C 0.0018758451 0.2509832131 0.5510092108
| 12> C 1.3117058313 -0.5441941748 0.6439529912
| 13> O 1.7717396787 -0.7893762765 -0.6694182913
| 14> O 0.2363854355 1.5379916546 0.0337724701
| 15> O -2.3005747709 0.0703266951 -0.0905005686
| 16> H -1.0469983308 -1.5662515025 0.0717381707
| 17> H -0.7364153555 -0.5026942939 -1.3285994496
| 18> H -0.4026982086 0.411979016 1.5549022942
| 19> H 1.1299835745 -1.4842305267 1.1778203173
| 20> H 2.038564802 0.055904968 1.204300504
| 21> H 2.6221236852 -1.2471064808 -0.6317039061
| 22> H 0.6603406985 1.4409566346 -0.8328315069
| 23> H -2.9431901795 -0.3652665781 -0.6668702625
| 24> *
| 25>
| 26>                          ****END OF INPUT****

CARTESIAN COORDINATES (ANGSTROEM)
---------------------------------
  C     -1.034930   -0.524392   -0.273720
  C      0.001876    0.250983    0.551009
  C      1.311706   -0.544194    0.643953
  O      1.771740   -0.789376   -0.669418
  O      0.236385    1.537992    0.033772
  O     -2.300575    0.070327   -0.090501
  H     -1.046998   -1.566252    0.071738
  H     -0.736415   -0.502694   -1.328599
  H     -0.402698    0.411979    1.554902
  H      1.129984   -1.484231    1.177820
  H      2.038565    0.055905    1.204301
  H      2.622124   -1.247106   -0.631704
  H      0.660341    1.440957   -0.832832
  H     -2.943190   -0.365267   -0.666870

 Total Charge           Charge          ....    0
 Multiplicity           Mult            ....    1
 Number of Electrons    NEL             ....   50
 Basis Dimension        Dim             ....  169

ORBITAL ENERGIES
----------------

  NO   OCC          E(Eh)            E(eV)
   0   2.0000     -18.955487      -515.8050
   1   2.0000     -18.954219      -515.7705
   2   2.0000     -18.953109      -515.7403
   3   2.0000     -10.081487      -274.3312
   4   2.0000     -10.072820      -274.0954
   5   2.0000     -10.070917      -274.0436
   6   2.0000      -1.006061       -27.3763
   7   2.0000      -0.988399       -26.8957
   8   2.0000      -0.979205       -26.6455
   9   2.0000      -0.723358       -19.6836
  10   2.0000      -0.637077       -17.3357
  11   2.0000      -0.569151       -15.4874
  12   2.0000      -0.495331       -13.4786
  13   2.0000      -0.477438       -12.9917
  14   2.0000      -0.455968       -12.4075
  15   2.0000      -0.427206       -11.6249
  16   2.0000      -0.420692       -11.4476
  17   2.0000      -0.377217       -10.2646
  18   2.0000      -0.368205       -10.0194
  19   2.0000      -0.339642        -9.2421
  20   2.0000      -0.315901        -8.5961
  21   2.0000      -0.294718        -8.0197
  22   2.0000      -0.248507        -6.7622
  23   2.0000      -0.242881        -6.6091
  24   2.0000      -0.240564        -6.5461
  25   0.0000       0.060300         1.6409
  26   0.0000       0.074893         2.0379
  27   0.0000       0.110476         3.0062
  28   0.0000       0.115777         3.1504
  29   0.0000       0.133986         3.6459

MULLIKEN ATOMIC CHARGES
-----------------------
   0 C :   -0.189698
   1 C :    0.032074
   2 C :   -0.164053
   3 O :   -0.510374
   4 O :   -0.484050
   5 O :   -0.499858
   6 H :    0.149898
   7 H :    0.154281
   8 H :    0.161005
   9 H :    0.149225
  10 H :    0.148807
  11 H :    0.349545
  12 H :    0.353392
  13 H :    0.349807
Sum of atomic charges:    0.0000000

LOEWDIN ATOMIC CHARGES
----------------------
   0 C :    0.025837
   1 C :    0.077429
   2 C :    0.030233
   3 O :   -0.647715
   4 O :   -0.607517
   5 O :   -0.642679
   6 H :    0.174174
   7 H :    0.176195
   8 H :    0.200184
   9 H :    0.173642
  10 H :    0.173662
  11 H :    0.289029
  12 H :    0.289745
  13 H :    0.287780

  Mayer bond orders larger than 0.100000
B(  0-C ,  1-C ) :   0.9466 B(  0-C ,  5-O ) :   0.9326 B(  0-C ,  6-H ) :   0.9588
B(  0-C ,  7-H ) :   0.9601 B(  1-C ,  2-C ) :   0.9550 B(  1-C ,  4-O ) :   0.9563
B(  1-C ,  8-H ) :   0.9359 B(  2-C ,  3-O ) :   0.9261 B(  2-C ,  9-H ) :   0.9583
B(  2-C , 10-H ) :   0.9615 B(  3-O , 11-H ) :   0.8723 B(  4-O , 12-H ) :   0.8552
B(  5-O , 13-H ) :   0.8711

Dispersion correction           -0.003000375
FINAL SINGLE POINT ENERGY      -344.743992329120

DIPOLE MOMENT
-------------

Method             : SCF
Type of density    : Electron Density
Multiplicity       :   1
Irrep              :   0
Energy             :  -344.7513603945797058 Eh
Relativity type    :
Basis              : AO
                                X                 Y                 Z
Electronic contribution:     -0.435787068       1.413802146      -0.771706071
Nuclear contribution   :      1.235650509      -3.043195073       0.504044178
                        -----------------------------------------
Total Dipole Moment    :      0.799863441      -1.629392927      -0.267661893
                        -----------------------------------------
Magnitude (a.u.)       :      1.834760400
Magnitude (Debye)      :      4.663590315

Rotational constants in cm-1:             0.195610             0.076548             0.065128
Rotational constants in MHz :          5864.248914          2294.858578          1952.487829

                             ****ORCA TERMINATED NORMALLY****
TOTAL RUN TIME: 0 days 0 hours 0 minutes 23 seconds 352 msec
