                         Program Version 6.0.0  -   RELEASE  -
|  1> ! r2scan-3c def2/J RI DEFGRID2 scfconv6 printgap
|  2> %output
|  3>     printlevel normal
|  4> end
|  5> * xyz 0 1
|  6> C 1.4543754789 -1.3958738098 -0.103171322
|  7> C 1.0838041674 0.0169925546 0.3438273089
|  8> C 2.1831697606 0.9973064171 -0.0643608711
|  9> C -0.2554322331 0.4674564425 -0.2490981005
| 10> C -1.4523962319 -0.3297547936 0.2714370545
| 11> O -2.6898023925 0.2468338065 -0.0975962914
| 12> H 0.7311215968 -2.1228176233 0.2556627018
| 13> H 2.4310260623 -1.6681666506 0.2896089525
| 14> H 1.4949366647 -1.4509050612 -1.188778574
| 15> H 0.9974545116 0.0264108856 1.4361636363
| 16> H 2.2919977512 1.0136836525 -1.1464922308
| 17> H 3.134832591 0.7041380533 0.3717419637
| 18> H 1.9468153272 2.0034460887 0.2731155731
| 19> H -0.2110698763 0.3880826533 -1.3381773907
| 20> H -0.4223853225 1.5170224184 0.0050269279
| 21> H -1.4101603645 -1.3691429463 -0.0776001205
| 22> H -1.453425954 -0.3331212786 1.3645875078
| 23> H -2.7449297088 0.2793329706 -1.0627096345
| 24> *
| 25>
| 26>                          ****END OF INPUT****

CARTESIAN COORDINATES (ANGSTROEM)
---------------------------------
  C      1.454375   -1.395874   -0.103171
  C      1.083804    0.016993    0.343827
  C      2.183170    0.997306   -0.064361
  C     -0.255432    0.467456   -0.249098
  C     -1.452396   -0.329755    0.271437
  O     -2.689802    0.246834   -0.097596
  H      0.731122   -2.122818    0.255663
  H      2.431026   -1.668167    0.289609
  H      1.494937   -1.450905   -1.188779
  H      0.997455    0.026411    1.436164
  H      2.291998    1.013684   -1.146492
  H      3.134833    0.704138    0.371742
  H      1.946815    2.003446    0.273116
  H     -0.211070    0.388083   -1.338177
  H     -0.422385    1.517022    0.005027
  H     -1.410160   -1.369143   -0.077600
  H     -1.453426   -0.333121    1.364588
  H     -2.744930    0.279333   -1.062710

 Total Charge           Charge          ....    0
 Multiplicity           Mult            ....    1
 Number of Electrons    NEL             ....   50
 Basis Dimension        Dim             ....  179

ORBITAL ENERGIES
----------------

  NO   OCC          E(Eh)            E(eV)
   0   2.0000     -18.944851      -515.5156
   1   2.0000     -10.072333      -274.0821
   2   2.0000     -10.038237      -273.1543
   3   2.0000     -10.024975      -272.7934
   4   2.0000     -10.018607      -272.6202
   5   2.0000     -10.017473      -272.5893
   6   2.0000      -0.981395       -26.7051
   7   2.0000      -0.780534       -21.2394
   8   2.0000      -0.690683       -18.7944
   9   2.0000      -0.653368       -17.7790
  10   2.0000      -0.595103       -16.1936
  11   2.0000      -0.532201       -14.4819
  12   2.0000      -0.470834       -12.8121
  13   2.0000      -0.442618       -12.0443
  14   2.0000      -0.418113       -11.3774
  15   2.0000      -0.398709       -10.8494
  16   2.0000      -0.384792       -10.4707
  17   2.0000      -0.361359        -9.8331
  18   2.0000      -0.355687        -9.6787
  19   2.0000      -0.333061        -9.0630
  20   2.0000      -0.315261        -8.5787
  21   2.0000      -0.299146        -8.1402
  22   2.0000      -0.297134        -8.0854
  23   2.0000      -0.285386        -7.7657
  24   2.0000      -0.231075        -6.2879
  25   0.0000       0.060462         1.6453
  26   0.0000       0.083658         2.2765
  27   0.0000       0.114284         3.1098
  28   0.0000       0.123336         3.3562
  29   0.0000       0.128851         3.5062

MULLIKEN ATOMIC CHARGES
-----------------------
   0 C :   -0.499702
   1 C :   -0.048246
   2 C :   -0.470518
   3 C :   -0.227707
   4 C :   -0.217511
   5 O :   -0.415524
   6 H :    0.149814
   7 H :    0.144305
   8 H :    0.149465
   9 H :    0.144135
  10 H :    0.144052
  11 H :    0.146948
  12 H :    0.146798
  13 H :    0.128573
  14 H :    0.154902
  15 H :    0.137309
  16 H :    0.140356
  17 H :    0.292552
Sum of atomic charges:    0.0000000

LOEWDIN ATOMIC CHARGES
----------------------
   0 C :   -0.417640
   1 C :   -0.246776
   2 C :   -0.415791
   3 C :   -0.293804
   4 C :    0.001124
   5 O :   -0.618789
   6 H :    0.152654
   7 H :    0.153952
   8 H :    0.153717
   9 H :    0.155829
  10 H :    0.153694
  11 H :    0.152480
  12 H :    0.153515
  13 H :    0.154477
  14 H :    0.166075
  15 H :    0.155523
  16 H :    0.175514
  17 H :    0.264247

  Mayer bond orders larger than 0.100000
B(  0-C ,  1-C ) :   0.9017 B(  0-C ,  6-H ) :   0.9733 B(  0-C ,  7-H ) :   0.9706
B(  0-C ,  8-H ) :   0.9869 B(  1-C ,  2-C ) :   0.9052 B(  1-C ,  3-C ) :   0.9055
B(  1-C ,  9-H ) :   0.9604 B(  2-C , 10-H ) :   0.9843 B(  2-C , 11-H ) :   0.9756
B(  2-C , 12-H ) :   0.9782 B(  3-C ,  4-C ) :   0.8897 B(  3-C , 13-H ) :   0.9622
B(  3-C , 14-H ) :   0.9665 B(  4-C ,  5-O ) :   0.9585 B(  4-C , 15-H ) :   0.9903
B(  4-C , 16-H ) :   0.9813 B(  5-O , 17-H ) :   0.8968

Dispersion correction           -0.004275412
FINAL SINGLE POINT ENERGY      -272.897966040379

DIPOLE MOMENT
-------------

Method             : SCF
Type of density    : Electron Density
Multiplicity       :   1
Irrep              :   0
Energy             :  -272.9034995837397446 Eh
Relativity type    :
Basis              : AO
                                X                 Y                 Z
Electronic contribution:     -5.825580712       0.790969635       0.407022547
Nuclear contribution   :      6.326660589      -0.945793026      -0.768726141
                        -----------------------------------------
Total Dipole Moment    :      0.501079878      -0.154823391      -0.361703594
                        -----------------------------------------
Magnitude (a.u.)       :      0.637087762
Magnitude (Debye)      :      1.619348399

Rotational constants in cm-1:             0.230263             0.057603             0.049671
Rotational constants in MHz :          6903.112598          1726.897550          1489.106426

                             ****ORCA TERMINATED NORMALLY****
TOTAL RUN TIME: 0 days 0 hours 0 minutes 23 seconds 131 msec
