                         Program Version 6.0.0  -   RELEASE  -
|  1> ! pbe def2-sv(p) def2/J RI DEFGRID1 loosescf d4 GCP(DFT/SV(P)) printgap
|  2> %output
|  3>     printlevel normal
|  4> end
|  5> * xyz 0 1
|  6> C 1.9758531217 0.3181578484 0.6986044002
|  7> C 1.406363769 -0.7213602771 -0.2588767
|  8> C 0.25399109 -0.1892018532 -1.1126661457
|  9> C -1.05724498 0.1239468579 -0.3751104602
| 10> H -1.8200008239 0.3043821456 -1.1538680095
| 11> C -1.537189261 -1.0248038688 0.5124163709
| 12> O -0.8902806286 1.3213453537 0.3686399979
| 13> H 2.3664559551 1.1681493967 0.1435778575
| 14> H 2.782477419 -0.1109080827 1.288934962
| 15> H 1.2051392397 0.6852387715 1.3696053698
| 16> H 2.1987375454 -1.0475565074 -0.9371657567
| 17> H 1.0774190195 -1.597355718 0.3011344141
| 18> H 0.5750106428 0.7307116916 -1.6058629888
| 19> H 0.0222795026 -0.9246948889 -1.8855352696
| 20> H -0.8862462453 -1.1307395875 1.3759228752
| 21> H -2.54881398 -0.8329246139 0.8635675619
| 22> H -1.5371647806 -1.9526408689 -0.0518058381
| 23> H -1.7176513663 1.5282891847 0.8227614087
| 24> *
| 25>
| 26>                          ****END OF INPUT****

CARTESIAN COORDINATES (ANGSTROEM)
---------------------------------
  C      1.975853    0.318158    0.698604
  C      1.406364   -0.721360   -0.258877
  C      0.253991   -0.189202   -1.112666
  C     -1.057245    0.123947   -0.375110
  H     -1.820001    0.304382   -1.153868
  C     -1.537189   -1.024804    0.512416
  O     -0.890281    1.321345    0.368640
  H      2.366456    1.168149    0.143578
  H      2.782477   -0.110908    1.288935
  H      1.205139    0.685239    1.369605
  H      2.198738   -1.047557   -0.937166
  H      1.077419   -1.597356    0.301134
  H      0.575011    0.730712   -1.605863
  H      0.022280   -0.924695   -1.885535
  H     -0.886246   -1.130740    1.375923
  H     -2.548814   -0.832925    0.863568
  H     -1.537165   -1.952641   -0.051806
  H     -1.717651    1.528289    0.822761

 Total Charge           Charge          ....    0
 Multiplicity           Mult            ....    1
 Number of Electrons    NEL             ....   50
 Basis Dimension        Dim             ....  108

ORBITAL ENERGIES
----------------

  NO   OCC          E(Eh)            E(eV)
   0   2.0000     -18.739587      -509.9301
   1   2.0000      -9.936644      -270.3898
   2   2.0000      -9.877840      -268.7897
   3   2.0000      -9.876541      -268.7543
   4   2.0000      -9.876308      -268.7480
   5   2.0000      -9.857042      -268.2238
   6   2.0000      -0.917127       -24.9563
   7   2.0000      -0.712808       -19.3965
   8   2.0000      -0.661979       -18.0134
   9   2.0000      -0.607721       -16.5369
  10   2.0000      -0.547397       -14.8954
  11   2.0000      -0.490129       -13.3371
  12   2.0000      -0.457868       -12.4592
  13   2.0000      -0.419651       -11.4193
  14   2.0000      -0.385668       -10.4946
  15   2.0000      -0.371942       -10.1211
  16   2.0000      -0.364720        -9.9245
  17   2.0000      -0.348508        -9.4834
  18   2.0000      -0.326395        -8.8816
  19   2.0000      -0.312903        -8.5145
  20   2.0000      -0.300475        -8.1764
  21   2.0000      -0.286489        -7.7958
  22   2.0000      -0.277281        -7.5452
  23   2.0000      -0.257238        -6.9998
  24   2.0000      -0.210238        -5.7209
  25   0.0000       0.020623         0.5612
  26   0.0000       0.057570         1.5666
  27   0.0000       0.070484         1.9180
  28   0.0000       0.080816         2.1991
  29   0.0000       0.088908         2.4193

MULLIKEN ATOMIC CHARGES
-----------------------
   0 C :   -0.276391
   1 C :   -0.195903
   2 C :   -0.141340
   3 C :    0.023173
   4 H :    0.057417
   5 C :   -0.283048
   6 O :   -0.420693
   7 H :    0.092818
   8 H :    0.091272
   9 H :    0.114431
  10 H :    0.081968
  11 H :    0.083255
  12 H :    0.087236
  13 H :    0.081227
  14 H :    0.117149
  15 H :    0.093248
  16 H :    0.100834
  17 H :    0.293346
Sum of atomic charges:   -0.0000000

LOEWDIN ATOMIC CHARGES
----------------------
   0 C :   -0.347676
   1 C :   -0.234713
   2 C :   -0.228902
   3 C :   -0.057343
   4 H :    0.094998
   5 C :   -0.356534
   6 O :   -0.328352
   7 H :    0.116551
   8 H :    0.112553
   9 H :    0.118379
  10 H :    0.114916
  11 H :    0.111548
  12 H :    0.121423
  13 H :    0.118655
  14 H :    0.123775
  15 H :    0.114727
  16 H :    0.124798
  17 H :    0.281197

  Mayer bond orders larger than 0.100000
B(  0-C ,  1-C ) :   1.1604 B(  0-C ,  7-H ) :   0.9538 B(  0-C ,  8-H ) :   0.9504
B(  0-C ,  9-H ) :   0.9398 B(  1-C ,  2-C ) :   1.1307 B(  1-C , 10-H ) :   0.9262
B(  1-C , 11-H ) :   0.9212 B(  2-C ,  3-C ) :   1.0832 B(  2-C , 12-H ) :   0.9145
B(  2-C , 13-H ) :   0.9154 B(  3-C ,  4-H ) :   0.9082 B(  3-C ,  5-C ) :   1.1061
B(  3-C ,  6-O ) :   1.0447 B(  5-C , 14-H ) :   0.9361 B(  5-C , 15-H ) :   0.9439
B(  5-C , 16-H ) :   0.9387 B(  6-O , 17-H ) :   0.8520

Dispersion correction           -0.013258470
FINAL SINGLE POINT ENERGY      -272.303301353552

DIPOLE MOMENT
-------------

Method             : SCF
Type of density    : Electron Density
Multiplicity       :   1
Irrep              :   0
Energy             :  -272.3732058499707591 Eh
Relativity type    :
Basis              : AO
                                X                 Y                 Z
Electronic contribution:     -2.180827103       2.717153745      -0.478619802
Nuclear contribution   :      1.598217204      -2.963797018       0.503885772
                        -----------------------------------------
Total Dipole Moment    :     -0.582609899      -0.246643273       0.025265970
                        -----------------------------------------
Magnitude (a.u.)       :      0.633171042
Magnitude (Debye)      :      1.609392887

Rotational constants in cm-1:             0.156589             0.082704             0.073087
Rotational constants in MHz :          4694.428448          2479.396878          2191.098989

                             ****ORCA TERMINATED NORMALLY****
TOTAL RUN TIME: 0 days 0 hours 0 minutes 7 seconds 522 msec
