                         Program Version 6.0.0  -   RELEASE  -
|  1> ! pbe def2-sv(p) def2/J RI DEFGRID1 loosescf d4 GCP(DFT/SV(P)) printgap
|  2> %output
|  3>     printlevel normal
|  4> end
|  5> * xyz 0 1
|  6> C -2.7694468453 0.2413111082 0.4539442655
|  7> C -1.6764387072 0.5484553326 -0.5728821341
|  8> C -0.4098571364 -0.1735509212 -0.190254753
|  9> O -0.2484953202 -1.3737458496 -0.2686831351
| 10> O 0.50467375 0.6629781028 0.2827222779
| 11> C 1.7686660641 0.1291541051 0.7123394493
| 12> C 2.7393970702 0.0133580825 -0.4528949162
| 13> H -2.9236153376 -0.832783135 0.5229508917
| 14> H -2.4861075155 0.6163182697 1.4341871023
| 15> H -3.700071018 0.7129632856 0.1536799523
| 16> H -1.4743676547 1.6174942788 -0.6108314969
| 17> H -1.9888853025 0.1910742013 -1.554246915
| 18> H 2.126853799 0.8386039507 1.4588338643
| 19> H 1.5963844728 -0.850384368 1.1686429699
| 20> H 2.3663887398 -0.7066448704 -1.1779369129
| 21> H 2.8566665533 0.9778388888 -0.9394019874
| 22> H 3.7034255123 -0.3234059944 -0.0858939087
| 23> *
| 24>
| 25>                          ****END OF INPUT****

CARTESIAN COORDINATES (ANGSTROEM)
---------------------------------
  C     -2.769447    0.241311    0.453944
  C     -1.676439    0.548455   -0.572882
  C     -0.409857   -0.173551   -0.190255
  O     -0.248495   -1.373746   -0.268683
  O      0.504674    0.662978    0.282722
  C      1.768666    0.129154    0.712339
  C      2.739397    0.013358   -0.452895
  H     -2.923615   -0.832783    0.522951
  H     -2.486108    0.616318    1.434187
  H     -3.700071    0.712963    0.153680
  H     -1.474368    1.617494   -0.610831
  H     -1.988885    0.191074   -1.554247
  H      2.126854    0.838604    1.458834
  H      1.596384   -0.850384    1.168643
  H      2.366389   -0.706645   -1.177937
  H      2.856667    0.977839   -0.939402
  H      3.703426   -0.323406   -0.085894

 Total Charge           Charge          ....    0
 Multiplicity           Mult            ....    1
 Number of Electrons    NEL             ....   56
 Basis Dimension        Dim             ....  118

ORBITAL ENERGIES
----------------

  NO   OCC          E(Eh)            E(eV)
   0   2.0000     -18.797349      -511.5019
   1   2.0000     -18.729982      -509.6687
   2   2.0000     -10.003861      -272.2189
   3   2.0000      -9.945999      -270.6444
   4   2.0000      -9.897977      -269.3377
   5   2.0000      -9.886362      -269.0216
   6   2.0000      -9.886126      -269.0152
   7   2.0000      -1.003610       -27.3096
   8   2.0000      -0.907546       -24.6956
   9   2.0000      -0.719871       -19.5887
  10   2.0000      -0.686643       -18.6845
  11   2.0000      -0.607559       -16.5325
  12   2.0000      -0.561213       -15.2714
  13   2.0000      -0.495694       -13.4885
  14   2.0000      -0.451995       -12.2994
  15   2.0000      -0.427105       -11.6221
  16   2.0000      -0.416411       -11.3311
  17   2.0000      -0.399726       -10.8771
  18   2.0000      -0.385541       -10.4911
  19   2.0000      -0.365194        -9.9374
  20   2.0000      -0.350162        -9.5284
  21   2.0000      -0.340619        -9.2687
  22   2.0000      -0.321649        -8.7525
  23   2.0000      -0.318242        -8.6598
  24   2.0000      -0.308939        -8.4067
  25   2.0000      -0.288909        -7.8616
  26   2.0000      -0.254567        -6.9271
  27   2.0000      -0.216195        -5.8830
  28   0.0000      -0.019646        -0.5346
  29   0.0000       0.046644         1.2692
  30   0.0000       0.057977         1.5776
  31   0.0000       0.083056         2.2601
  32   0.0000       0.088199         2.4000

MULLIKEN ATOMIC CHARGES
-----------------------
   0 C :   -0.301284
   1 C :   -0.138751
   2 C :    0.100499
   3 O :   -0.216596
   4 O :   -0.237082
   5 C :   -0.013851
   6 C :   -0.304035
   7 H :    0.122087
   8 H :    0.109739
   9 H :    0.113946
  10 H :    0.097019
  11 H :    0.109747
  12 H :    0.100565
  13 H :    0.106924
  14 H :    0.126833
  15 H :    0.112555
  16 H :    0.111684
Sum of atomic charges:    0.0000000

LOEWDIN ATOMIC CHARGES
----------------------
   0 C :   -0.330243
   1 C :   -0.251282
   2 C :    0.037434
   3 O :   -0.176063
   4 O :   -0.067456
   5 C :   -0.113531
   6 C :   -0.355971
   7 H :    0.127002
   8 H :    0.121869
   9 H :    0.123075
  10 H :    0.127661
  11 H :    0.137729
  12 H :    0.116501
  13 H :    0.118804
  14 H :    0.130511
  15 H :    0.124043
  16 H :    0.129919

  Mayer bond orders larger than 0.100000
B(  0-C ,  1-C ) :   1.1416 B(  0-C ,  7-H ) :   0.9512 B(  0-C ,  8-H ) :   0.9553
B(  0-C ,  9-H ) :   0.9531 B(  1-C ,  2-C ) :   1.0227 B(  1-C , 10-H ) :   0.9119
B(  1-C , 11-H ) :   0.9058 B(  2-C ,  3-O ) :   2.0341 B(  2-C ,  4-O ) :   1.2172
B(  4-O ,  5-C ) :   0.9228 B(  5-C ,  6-C ) :   1.1722 B(  5-C , 12-H ) :   0.9373
B(  5-C , 13-H ) :   0.9137 B(  6-C , 14-H ) :   0.9465 B(  6-C , 15-H ) :   0.9492
B(  6-C , 16-H ) :   0.9445

Dispersion correction           -0.011973248
FINAL SINGLE POINT ENERGY      -346.244479589728

DIPOLE MOMENT
-------------

Method             : SCF
Type of density    : Electron Density
Multiplicity       :   1
Irrep              :   0
Energy             :  -346.3090607735437629 Eh
Relativity type    :
Basis              : AO
                                X                 Y                 Z
Electronic contribution:      0.132510124      -1.451397170      -0.200584019
Nuclear contribution   :      0.075729531       2.091964645       0.347314587
                        -----------------------------------------
Total Dipole Moment    :      0.208239655       0.640567475       0.146730569
                        -----------------------------------------
Magnitude (a.u.)       :      0.689362244
Magnitude (Debye)      :      1.752219573

Rotational constants in cm-1:             0.216223             0.047210             0.044126
Rotational constants in MHz :          6482.188659          1415.318018          1322.851874

                             ****ORCA TERMINATED NORMALLY****
TOTAL RUN TIME: 0 days 0 hours 0 minutes 9 seconds 68 msec
