                         Program Version 6.0.0  -   RELEASE  -
|  1> ! pbe def2-sv(p) def2/J RI DEFGRID1 loosescf d4 GCP(DFT/SV(P)) printgap
|  2> %output
|  3>     printlevel normal
|  4> end
|  5> * xyz 0 1
|  6> C -2.5268741297 0.0670875994 -0.5422886698
|  7> C -1.9429238345 -1.1620800758 -0.2835787274
|  8> C -0.6735315612 -1.225817484 0.2609734957
|  9> C 0.0315639067 -0.0646988622 0.5568455298
| 10> C -0.5633834128 1.1618264331 0.2953764723
| 11> C -1.833885351 1.2287361719 -0.2504023811
| 12> C 1.4254624614 -0.1502840222 1.1109574628
| 13> C 2.4404832927 -0.4825751865 0.0052484772
| 14> O 2.5424112186 0.5177540818 -0.9826492101
| 15> H -3.5176118614 0.1180152227 -0.9686006627
| 16> H -2.478825485 -2.0727316125 -0.5076079782
| 17> H -0.2225030981 -2.1871659275 0.4620092996
| 18> H -0.0323378177 2.0746376036 0.5227561793
| 19> H -2.2833703777 2.1906334899 -0.4483324009
| 20> H 1.7010379117 0.7965098427 1.5791925203
| 21> H 1.4811588635 -0.9395181919 1.8619051931
| 22> H 3.4242754436 -0.6703835458 0.4569497077
| 23> H 2.1261894343 -1.3822902082 -0.5290819904
| 24> H 2.857928515 1.3349347781 -0.5723256831
| 25> *
| 26>
| 27>                          ****END OF INPUT****

CARTESIAN COORDINATES (ANGSTROEM)
---------------------------------
  C     -2.526874    0.067088   -0.542289
  C     -1.942924   -1.162080   -0.283579
  C     -0.673532   -1.225817    0.260973
  C      0.031564   -0.064699    0.556846
  C     -0.563383    1.161826    0.295376
  C     -1.833885    1.228736   -0.250402
  C      1.425462   -0.150284    1.110957
  C      2.440483   -0.482575    0.005248
  O      2.542411    0.517754   -0.982649
  H     -3.517612    0.118015   -0.968601
  H     -2.478825   -2.072732   -0.507608
  H     -0.222503   -2.187166    0.462009
  H     -0.032338    2.074638    0.522756
  H     -2.283370    2.190633   -0.448332
  H      1.701038    0.796510    1.579193
  H      1.481159   -0.939518    1.861905
  H      3.424275   -0.670384    0.456950
  H      2.126189   -1.382290   -0.529082
  H      2.857929    1.334935   -0.572326

 Total Charge           Charge          ....    0
 Multiplicity           Mult            ....    1
 Number of Electrons    NEL             ....   66
 Basis Dimension        Dim             ....  146

ORBITAL ENERGIES
----------------

  NO   OCC          E(Eh)            E(eV)
   0   2.0000     -18.742537      -510.0104
   1   2.0000      -9.934131      -270.3214
   2   2.0000      -9.899916      -269.3904
   3   2.0000      -9.894118      -269.2326
   4   2.0000      -9.888206      -269.0718
   5   2.0000      -9.887896      -269.0633
   6   2.0000      -9.887517      -269.0530
   7   2.0000      -9.887076      -269.0410
   8   2.0000      -9.886089      -269.0142
   9   2.0000      -0.919801       -25.0291
  10   2.0000      -0.775678       -21.1073
  11   2.0000      -0.706101       -19.2140
  12   2.0000      -0.666364       -18.1327
  13   2.0000      -0.641048       -17.4438
  14   2.0000      -0.569328       -15.4922
  15   2.0000      -0.540273       -14.7016
  16   2.0000      -0.519680       -14.1412
  17   2.0000      -0.468642       -12.7524
  18   2.0000      -0.440553       -11.9881
  19   2.0000      -0.421649       -11.4737
  20   2.0000      -0.400531       -10.8990
  21   2.0000      -0.392361       -10.6767
  22   2.0000      -0.385373       -10.4865
  23   2.0000      -0.370795       -10.0899
  24   2.0000      -0.353302        -9.6138
  25   2.0000      -0.329164        -8.9570
  26   2.0000      -0.322108        -8.7650
  27   2.0000      -0.296605        -8.0710
  28   2.0000      -0.294190        -8.0053
  29   2.0000      -0.274745        -7.4762
  30   2.0000      -0.227268        -6.1843
  31   2.0000      -0.222665        -6.0590
  32   2.0000      -0.209844        -5.7101
  33   0.0000      -0.032685        -0.8894
  34   0.0000      -0.029243        -0.7957
  35   0.0000       0.024593         0.6692
  36   0.0000       0.048335         1.3153
  37   0.0000       0.060085         1.6350

MULLIKEN ATOMIC CHARGES
-----------------------
   0 C :   -0.049155
   1 C :   -0.046697
   2 C :   -0.119584
   3 C :    0.107697
   4 C :   -0.112096
   5 C :   -0.049483
   6 C :   -0.153337
   7 C :    0.015074
   8 O :   -0.432606
   9 H :    0.051164
  10 H :    0.049555
  11 H :    0.037563
  12 H :    0.027704
  13 H :    0.048962
  14 H :    0.077519
  15 H :    0.086133
  16 H :    0.078617
  17 H :    0.091495
  18 H :    0.291474
Sum of atomic charges:   -0.0000000

LOEWDIN ATOMIC CHARGES
----------------------
   0 C :   -0.127915
   1 C :   -0.120573
   2 C :   -0.122530
   3 C :   -0.036250
   4 C :   -0.121490
   5 C :   -0.120418
   6 C :   -0.234594
   7 C :   -0.116051
   8 O :   -0.337010
   9 H :    0.122386
  10 H :    0.122581
  11 H :    0.118973
  12 H :    0.116393
  13 H :    0.122443
  14 H :    0.116502
  15 H :    0.128891
  16 H :    0.093893
  17 H :    0.114595
  18 H :    0.280175

  Mayer bond orders larger than 0.100000
B(  0-C ,  1-C ) :   1.3762 B(  0-C ,  5-C ) :   1.3872 B(  0-C ,  9-H ) :   0.9650
B(  1-C ,  2-C ) :   1.3839 B(  1-C , 10-H ) :   0.9634 B(  2-C ,  3-C ) :   1.3874
B(  2-C , 11-H ) :   0.9588 B(  3-C ,  4-C ) :   1.4045 B(  3-C ,  6-C ) :   1.0485
B(  4-C ,  5-C ) :   1.3743 B(  4-C , 12-H ) :   0.9590 B(  5-C , 13-H ) :   0.9627
B(  6-C ,  7-C ) :   1.0863 B(  6-C , 14-H ) :   0.9099 B(  6-C , 15-H ) :   0.8910
B(  7-C ,  8-O ) :   1.0758 B(  7-C , 16-H ) :   0.9252 B(  7-C , 17-H ) :   0.9272
B(  8-O , 18-H ) :   0.8542

Dispersion correction           -0.018876799
FINAL SINGLE POINT ENERGY      -385.218612001414

DIPOLE MOMENT
-------------

Method             : SCF
Type of density    : Electron Density
Multiplicity       :   1
Irrep              :   0
Energy             :  -385.2801899047630059 Eh
Relativity type    :
Basis              : AO
                                X                 Y                 Z
Electronic contribution:     -2.651604835       0.825757675      -1.179846232
Nuclear contribution   :      2.904667464      -0.684093581       1.727488980
                        -----------------------------------------
Total Dipole Moment    :      0.253062628       0.141664094       0.547642748
                        -----------------------------------------
Magnitude (a.u.)       :      0.619695077
Magnitude (Debye)      :      1.575139708

Rotational constants in cm-1:             0.112806             0.035701             0.031937
Rotational constants in MHz :          3381.827857          1070.298838           957.435240

                             ****ORCA TERMINATED NORMALLY****
TOTAL RUN TIME: 0 days 0 hours 0 minutes 8 seconds 99 msec
