                         Program Version 6.0.0  -   RELEASE  -
|  1> ! r2scan-3c def2/J RI DEFGRID2 scfconv6 printgap
|  2> %output
|  3>     printlevel normal
|  4> end
|  5> * xyz 0 1
|  6> C 2.6161601769 -0.838604961 -0.1015103796
|  7> C 1.9940532466 0.5515181918 -0.1718182755
|  8> C 0.5690940455 0.6049593875 0.3830979308
|  9> C -0.4177513006 -0.1607244428 -0.4830026605
| 10> S -2.1243484931 -0.0795379522 0.1757985657
| 11> H 2.5852412637 -1.2179714185 0.9174288253
| 12> H 3.654430118 -0.8007142894 -0.4215770099
| 13> H 2.0902297937 -1.5381095939 -0.7461005026
| 14> H 1.9901921633 0.89736683 -1.2077436507
| 15> H 2.60930888 1.2432089296 0.4068506602
| 16> H 0.2522426014 1.6490843926 0.4418041202
| 17> H 0.552209929 0.1940684681 1.3949272383
| 18> H -0.4381013405 0.2196155897 -1.5039588581
| 19> H -0.1925792097 -1.225934332 -0.5014889323
| 20> H -2.2622699053 1.2370652502 0.0748145911
| 21> *
| 22>
| 23>                          ****END OF INPUT****

CARTESIAN COORDINATES (ANGSTROEM)
---------------------------------
  C      2.616160   -0.838605   -0.101510
  C      1.994053    0.551518   -0.171818
  C      0.569094    0.604959    0.383098
  C     -0.417751   -0.160724   -0.483003
  S     -2.124348   -0.079538    0.175799
  H      2.585241   -1.217971    0.917429
  H      3.654430   -0.800714   -0.421577
  H      2.090230   -1.538110   -0.746101
  H      1.990192    0.897367   -1.207744
  H      2.609309    1.243209    0.406851
  H      0.252243    1.649084    0.441804
  H      0.552210    0.194068    1.394927
  H     -0.438101    0.219616   -1.503959
  H     -0.192579   -1.225934   -0.501489
  H     -2.262270    1.237065    0.074815

 Total Charge           Charge          ....    0
 Multiplicity           Mult            ....    1
 Number of Electrons    NEL             ....   50
 Basis Dimension        Dim             ....  153

ORBITAL ENERGIES
----------------

  NO   OCC          E(Eh)            E(eV)
   0   2.0000     -88.548860     -2409.5370
   1   2.0000     -10.065109      -273.8855
   2   2.0000     -10.034475      -273.0520
   3   2.0000     -10.032673      -273.0029
   4   2.0000     -10.022337      -272.7217
   5   2.0000      -7.844025      -213.4468
   6   2.0000      -5.791244      -157.5878
   7   2.0000      -5.787444      -157.4844
   8   2.0000      -5.781066      -157.3108
   9   2.0000      -0.785407       -21.3720
  10   2.0000      -0.730927       -19.8895
  11   2.0000      -0.658151       -17.9092
  12   2.0000      -0.595344       -16.2001
  13   2.0000      -0.544950       -14.8288
  14   2.0000      -0.451201       -12.2778
  15   2.0000      -0.427445       -11.6314
  16   2.0000      -0.407824       -11.0975
  17   2.0000      -0.380573       -10.3559
  18   2.0000      -0.357533        -9.7290
  19   2.0000      -0.348892        -9.4938
  20   2.0000      -0.330211        -8.9855
  21   2.0000      -0.307548        -8.3688
  22   2.0000      -0.303934        -8.2705
  23   2.0000      -0.286001        -7.7825
  24   2.0000      -0.207988        -5.6597
  25   0.0000       0.013625         0.3707
  26   0.0000       0.054615         1.4862
  27   0.0000       0.096045         2.6135
  28   0.0000       0.111441         3.0325
  29   0.0000       0.122357         3.3295

MULLIKEN ATOMIC CHARGES
-----------------------
   0 C :   -0.480564
   1 C :   -0.228595
   2 C :   -0.236055
   3 C :   -0.260851
   4 S :   -0.254420
   5 H :    0.146199
   6 H :    0.148069
   7 H :    0.144845
   8 H :    0.131857
   9 H :    0.145019
  10 H :    0.139059
  11 H :    0.153708
  12 H :    0.167341
  13 H :    0.155221
  14 H :    0.129168
Sum of atomic charges:   -0.0000000

LOEWDIN ATOMIC CHARGES
----------------------
   0 C :   -0.425782
   1 C :   -0.319009
   2 C :   -0.324392
   3 C :   -0.364431
   4 S :   -0.097248
   5 H :    0.151652
   6 H :    0.152530
   7 H :    0.148156
   8 H :    0.152025
   9 H :    0.154513
  10 H :    0.155200
  11 H :    0.160958
  12 H :    0.160995
  13 H :    0.168899
  14 H :    0.125935

  Mayer bond orders larger than 0.100000
B(  0-C ,  1-C ) :   0.9032 B(  0-C ,  5-H ) :   0.9800 B(  0-C ,  6-H ) :   0.9685
B(  0-C ,  7-H ) :   0.9832 B(  1-C ,  2-C ) :   0.8863 B(  1-C ,  8-H ) :   0.9755
B(  1-C ,  9-H ) :   0.9657 B(  2-C ,  3-C ) :   0.9014 B(  2-C , 10-H ) :   0.9656
B(  2-C , 11-H ) :   0.9786 B(  3-C ,  4-S ) :   0.9734 B(  3-C , 12-H ) :   0.9614
B(  3-C , 13-H ) :   0.9608 B(  4-S , 14-H ) :   0.9613

Dispersion correction           -0.003622376
FINAL SINGLE POINT ENERGY      -556.555358859514

DIPOLE MOMENT
-------------

Method             : SCF
Type of density    : Electron Density
Multiplicity       :   1
Irrep              :   0
Energy             :  -556.5620992491534480 Eh
Relativity type    :
Basis              : AO
                                X                 Y                 Z
Electronic contribution:     -9.566617140      -0.311701246       0.880084423
Nuclear contribution   :     10.230927310       0.619274432      -1.079237522
                        -----------------------------------------
Total Dipole Moment    :      0.664310171       0.307573187      -0.199153099
                        -----------------------------------------
Magnitude (a.u.)       :      0.758664105
Magnitude (Debye)      :      1.928370906

Rotational constants in cm-1:             0.394513             0.050286             0.047724
Rotational constants in MHz :         11827.197800          1507.535235          1430.715989

                             ****ORCA TERMINATED NORMALLY****
TOTAL RUN TIME: 0 days 0 hours 0 minutes 13 seconds 832 msec
