                         Program Version 6.0.0  -   RELEASE  -
|  1> ! r2scan-3c def2/J RI DEFGRID2 scfconv6 printgap
|  2> %output
|  3>     printlevel normal
|  4> end
|  5> %cpcm
|  6>     smd true
|  7>     smdsolvent "water"
|  8> end
|  9> * xyz 0 1
| 10> C 2.6161601769 -0.838604961 -0.1015103796
| 11> C 1.9940532466 0.5515181918 -0.1718182755
| 12> C 0.5690940455 0.6049593875 0.3830979308
| 13> C -0.4177513006 -0.1607244428 -0.4830026605
| 14> S -2.1243484931 -0.0795379522 0.1757985657
| 15> H 2.5852412637 -1.2179714185 0.9174288253
| 16> H 3.654430118 -0.8007142894 -0.4215770099
| 17> H 2.0902297937 -1.5381095939 -0.7461005026
| 18> H 1.9901921633 0.89736683 -1.2077436507
| 19> H 2.60930888 1.2432089296 0.4068506602
| 20> H 0.2522426014 1.6490843926 0.4418041202
| 21> H 0.552209929 0.1940684681 1.3949272383
| 22> H -0.4381013405 0.2196155897 -1.5039588581
| 23> H -0.1925792097 -1.225934332 -0.5014889323
| 24> H -2.2622699053 1.2370652502 0.0748145911
| 25> *
| 26>
| 27>                          ****END OF INPUT****

CARTESIAN COORDINATES (ANGSTROEM)
---------------------------------
  C      2.616160   -0.838605   -0.101510
  C      1.994053    0.551518   -0.171818
  C      0.569094    0.604959    0.383098
  C     -0.417751   -0.160724   -0.483003
  S     -2.124348   -0.079538    0.175799
  H      2.585241   -1.217971    0.917429
  H      3.654430   -0.800714   -0.421577
  H      2.090230   -1.538110   -0.746101
  H      1.990192    0.897367   -1.207744
  H      2.609309    1.243209    0.406851
  H      0.252243    1.649084    0.441804
  H      0.552210    0.194068    1.394927
  H     -0.438101    0.219616   -1.503959
  H     -0.192579   -1.225934   -0.501489
  H     -2.262270    1.237065    0.074815

 Total Charge           Charge          ....    0
 Multiplicity           Mult            ....    1
 Number of Electrons    NEL             ....   50
 Basis Dimension        Dim             ....  153

ORBITAL ENERGIES
----------------

  NO   OCC          E(Eh)            E(eV)
   0   2.0000     -88.547721     -2409.5060
   1   2.0000     -10.053908      -273.5807
   2   2.0000     -10.021859      -272.7086
   3   2.0000     -10.018766      -272.6245
   4   2.0000     -10.008154      -272.3357
   5   2.0000      -7.843019      -213.4194
   6   2.0000      -5.789974      -157.5532
   7   2.0000      -5.786286      -157.4529
   8   2.0000      -5.780514      -157.2958
   9   2.0000      -0.774331       -21.0706
  10   2.0000      -0.721381       -19.6298
  11   2.0000      -0.648572       -17.6485
  12   2.0000      -0.584881       -15.9154
  13   2.0000      -0.532335       -14.4856
  14   2.0000      -0.439006       -11.9460
  15   2.0000      -0.414762       -11.2862
  16   2.0000      -0.395863       -10.7720
  17   2.0000      -0.369768       -10.0619
  18   2.0000      -0.346843        -9.4381
  19   2.0000      -0.336772        -9.1640
  20   2.0000      -0.320985        -8.7345
  21   2.0000      -0.293755        -7.9935
  22   2.0000      -0.290341        -7.9006
  23   2.0000      -0.279313        -7.6005
  24   2.0000      -0.209242        -5.6938
  25   0.0000       0.017373         0.4727
  26   0.0000       0.061149         1.6639
  27   0.0000       0.109252         2.9729
  28   0.0000       0.123790         3.3685
  29   0.0000       0.133757         3.6397

MULLIKEN ATOMIC CHARGES
-----------------------
   0 C :   -0.517609
   1 C :   -0.244122
   2 C :   -0.251830
   3 C :   -0.254628
   4 S :   -0.339098
   5 H :    0.154609
   6 H :    0.156051
   7 H :    0.158806
   8 H :    0.143890
   9 H :    0.153775
  10 H :    0.155031
  11 H :    0.156200
  12 H :    0.183745
  13 H :    0.176931
  14 H :    0.168249
Sum of atomic charges:   -0.0000000

LOEWDIN ATOMIC CHARGES
----------------------
   0 C :   -0.433991
   1 C :   -0.318767
   2 C :   -0.325281
   3 C :   -0.359001
   4 S :   -0.137693
   5 H :    0.153400
   6 H :    0.153641
   7 H :    0.152227
   8 H :    0.155632
   9 H :    0.156731
  10 H :    0.159558
  11 H :    0.160224
  12 H :    0.168170
  13 H :    0.176142
  14 H :    0.139007

  Mayer bond orders larger than 0.100000
B(  0-C ,  1-C ) :   0.8977 B(  0-C ,  5-H ) :   0.9781 B(  0-C ,  6-H ) :   0.9672
B(  0-C ,  7-H ) :   0.9792 B(  1-C ,  2-C ) :   0.8879 B(  1-C ,  8-H ) :   0.9765
B(  1-C ,  9-H ) :   0.9667 B(  2-C ,  3-C ) :   0.9000 B(  2-C , 10-H ) :   0.9643
B(  2-C , 11-H ) :   0.9785 B(  3-C ,  4-S ) :   0.9536 B(  3-C , 12-H ) :   0.9557
B(  3-C , 13-H ) :   0.9529 B(  4-S , 14-H ) :   0.9549

Dispersion correction           -0.003622376
FINAL SINGLE POINT ENERGY      -556.557481696101

DIPOLE MOMENT
-------------

Method             : SCF
Type of density    : Electron Density
Multiplicity       :   1
Irrep              :   0
Energy             :  -556.5642220857400844 Eh
Relativity type    :
Basis              : AO
                                X                 Y                 Z
Electronic contribution:     -9.381925963      -0.212439790       0.771285323
Nuclear contribution   :     10.230927310       0.619274432      -1.079237522
                        -----------------------------------------
Total Dipole Moment    :      0.849001347       0.406834642      -0.307952200
                        -----------------------------------------
Magnitude (a.u.)       :      0.990531308
Magnitude (Debye)      :      2.517730496

Rotational constants in cm-1:             0.394513             0.050286             0.047724
Rotational constants in MHz :         11827.197800          1507.535235          1430.715989

                             ****ORCA TERMINATED NORMALLY****
TOTAL RUN TIME: 0 days 0 hours 0 minutes 16 seconds 253 msec
