                         Program Version 6.0.0  -   RELEASE  -
|  1> ! pbe def2-sv(p) def2/J RI DEFGRID1 loosescf d4 GCP(DFT/SV(P)) printgap
|  2> %output
|  3>     printlevel normal
|  4> end
|  5> * xyz 0 1
|  6> C -2.5438899139 0.6982348599 -0.6555689848
|  7> C -1.7496628392 0.3579893101 0.6074218199
|  8> C -0.5047730374 -0.4072251381 0.2363711217
|  9> O -0.4982824195 -1.524219196 -0.2401397671
| 10> O 0.5898139279 0.2985813908 0.4762238363
| 11> C 1.8750206889 -0.2551619621 0.142502079
| 12> C 2.7312187277 0.8292046273 -0.4875839276
| 13> H -3.4748657028 1.1869440882 -0.3855187201
| 14> H -1.9717331951 1.3633624469 -1.2973344487
| 15> H -2.7682616418 -0.2107859615 -1.2085235392
| 16> H -2.3544402006 -0.2769725027 1.2556837065
| 17> H -1.4603007535 1.2627958263 1.1392505308
| 18> H 2.3206670351 -0.6175640288 1.0731539393
| 19> H 1.7228439756 -1.1008579575 -0.5353704307
| 20> H 2.8266832098 1.6684227292 0.1949845511
| 21> H 3.7159613551 0.4275802446 -0.7025908602
| 22> H 2.2795409895 1.1780312398 -1.4120791268
| 23> *
| 24>
| 25>                          ****END OF INPUT****

CARTESIAN COORDINATES (ANGSTROEM)
---------------------------------
  C     -2.543890    0.698235   -0.655569
  C     -1.749663    0.357989    0.607422
  C     -0.504773   -0.407225    0.236371
  O     -0.498282   -1.524219   -0.240140
  O      0.589814    0.298581    0.476224
  C      1.875021   -0.255162    0.142502
  C      2.731219    0.829205   -0.487584
  H     -3.474866    1.186944   -0.385519
  H     -1.971733    1.363362   -1.297334
  H     -2.768262   -0.210786   -1.208524
  H     -2.354440   -0.276973    1.255684
  H     -1.460301    1.262796    1.139251
  H      2.320667   -0.617564    1.073154
  H      1.722844   -1.100858   -0.535370
  H      2.826683    1.668423    0.194985
  H      3.715961    0.427580   -0.702591
  H      2.279541    1.178031   -1.412079

 Total Charge           Charge          ....    0
 Multiplicity           Mult            ....    1
 Number of Electrons    NEL             ....   56
 Basis Dimension        Dim             ....  118

ORBITAL ENERGIES
----------------

  NO   OCC          E(Eh)            E(eV)
   0   2.0000     -18.797587      -511.5083
   1   2.0000     -18.728839      -509.6376
   2   2.0000     -10.003729      -272.2153
   3   2.0000      -9.945250      -270.6240
   4   2.0000      -9.897815      -269.3332
   5   2.0000      -9.889735      -269.1134
   6   2.0000      -9.885384      -268.9950
   7   2.0000      -1.003331       -27.3020
   8   2.0000      -0.906724       -24.6732
   9   2.0000      -0.720623       -19.6091
  10   2.0000      -0.689561       -18.7639
  11   2.0000      -0.604917       -16.4606
  12   2.0000      -0.558086       -15.1863
  13   2.0000      -0.503239       -13.6938
  14   2.0000      -0.445381       -12.1194
  15   2.0000      -0.440746       -11.9933
  16   2.0000      -0.418872       -11.3981
  17   2.0000      -0.388870       -10.5817
  18   2.0000      -0.378625       -10.3029
  19   2.0000      -0.370231       -10.0745
  20   2.0000      -0.358216        -9.7475
  21   2.0000      -0.336181        -9.1480
  22   2.0000      -0.324215        -8.8223
  23   2.0000      -0.317935        -8.6514
  24   2.0000      -0.307692        -8.3727
  25   2.0000      -0.289391        -7.8747
  26   2.0000      -0.253470        -6.8973
  27   2.0000      -0.215950        -5.8763
  28   0.0000      -0.018473        -0.5027
  29   0.0000       0.040590         1.1045
  30   0.0000       0.058926         1.6034
  31   0.0000       0.078995         2.1496
  32   0.0000       0.090999         2.4762

MULLIKEN ATOMIC CHARGES
-----------------------
   0 C :   -0.299749
   1 C :   -0.145333
   2 C :    0.097866
   3 O :   -0.212165
   4 O :   -0.238701
   5 C :   -0.029126
   6 C :   -0.284257
   7 H :    0.112789
   8 H :    0.107841
   9 H :    0.122985
  10 H :    0.111892
  11 H :    0.096947
  12 H :    0.103696
  13 H :    0.116335
  14 H :    0.114391
  15 H :    0.111736
  16 H :    0.112854
Sum of atomic charges:   -0.0000000

LOEWDIN ATOMIC CHARGES
----------------------
   0 C :   -0.330891
   1 C :   -0.251742
   2 C :    0.035708
   3 O :   -0.174879
   4 O :   -0.068415
   5 C :   -0.113427
   6 C :   -0.351221
   7 H :    0.122767
   8 H :    0.121024
   9 H :    0.127319
  10 H :    0.139097
  11 H :    0.126937
  12 H :    0.116577
  13 H :    0.120151
  14 H :    0.125407
  15 H :    0.129958
  16 H :    0.125632

  Mayer bond orders larger than 0.100000
B(  0-C ,  1-C ) :   1.1416 B(  0-C ,  7-H ) :   0.9533 B(  0-C ,  8-H ) :   0.9561
B(  0-C ,  9-H ) :   0.9504 B(  1-C ,  2-C ) :   1.0183 B(  1-C , 10-H ) :   0.9049
B(  1-C , 11-H ) :   0.9134 B(  2-C ,  3-O ) :   2.0552 B(  2-C ,  4-O ) :   1.2151
B(  4-O ,  5-C ) :   0.9124 B(  5-C ,  6-C ) :   1.1623 B(  5-C , 12-H ) :   0.9358
B(  5-C , 13-H ) :   0.9098 B(  6-C , 14-H ) :   0.9492 B(  6-C , 15-H ) :   0.9449
B(  6-C , 16-H ) :   0.9522

Dispersion correction           -0.011632041
FINAL SINGLE POINT ENERGY      -346.243750361698

DIPOLE MOMENT
-------------

Method             : SCF
Type of density    : Electron Density
Multiplicity       :   1
Irrep              :   0
Energy             :  -346.3083961812598091 Eh
Relativity type    :
Basis              : AO
                                X                 Y                 Z
Electronic contribution:     -0.448499953      -3.897044780       1.923795270
Nuclear contribution   :      0.785754034       4.560981450      -1.758700888
                        -----------------------------------------
Total Dipole Moment    :      0.337254080       0.663936670       0.165094382
                        -----------------------------------------
Magnitude (a.u.)       :      0.762763640
Magnitude (Debye)      :      1.938791096

Rotational constants in cm-1:             0.175795             0.047602             0.042731
Rotational constants in MHz :          5270.195265          1427.061966          1281.035283

                             ****ORCA TERMINATED NORMALLY****
TOTAL RUN TIME: 0 days 0 hours 0 minutes 8 seconds 915 msec
