                         Program Version 6.0.0  -   RELEASE  -
|  1> ! pbe def2-sv(p) def2/J RI DEFGRID1 loosescf d4 GCP(DFT/SV(P)) printgap
|  2> %output
|  3>     printlevel normal
|  4> end
|  5> * xyz 0 1
|  6> C 0.9753570234 1.4974256628 0.0833624211
|  7> C 0.9626882888 0.0673617624 -0.4400153537
|  8> C 1.3892514472 -0.9437253518 0.6159431151
|  9> O -0.3417450325 -0.2747863682 -0.994674647
| 10> C -1.4140783489 -0.2949120981 -0.2525775423
| 11> O -1.5211551874 -0.0568289254 0.9236619422
| 12> H 1.9892860513 1.7669064125 0.3609177844
| 13> H 0.6245024729 2.1820582072 -0.6849583814
| 14> H 0.3337161398 1.5875812237 0.9564589361
| 15> H 1.6080008897 -0.0151093153 -1.3203314155
| 16> H 0.7498016913 -0.870079721 1.4921975649
| 17> H 2.4145046858 -0.7424029851 0.909198857
| 18> H 1.3267242536 -1.9531701833 0.2169411835
| 19> H -2.2741798783 -0.5783751519 -0.883202984
| 20> *
| 21>
| 22>                          ****END OF INPUT****

CARTESIAN COORDINATES (ANGSTROEM)
---------------------------------
  C      0.975357    1.497426    0.083362
  C      0.962688    0.067362   -0.440015
  C      1.389251   -0.943725    0.615943
  O     -0.341745   -0.274786   -0.994675
  C     -1.414078   -0.294912   -0.252578
  O     -1.521155   -0.056829    0.923662
  H      1.989286    1.766906    0.360918
  H      0.624502    2.182058   -0.684958
  H      0.333716    1.587581    0.956459
  H      1.608001   -0.015109   -1.320331
  H      0.749802   -0.870080    1.492198
  H      2.414505   -0.742403    0.909199
  H      1.326724   -1.953170    0.216941
  H     -2.274180   -0.578375   -0.883203

 Total Charge           Charge          ....    0
 Multiplicity           Mult            ....    1
 Number of Electrons    NEL             ....   48
 Basis Dimension        Dim             ....  100

ORBITAL ENERGIES
----------------

  NO   OCC          E(Eh)            E(eV)
   0   2.0000     -18.806104      -511.7401
   1   2.0000     -18.740075      -509.9434
   2   2.0000     -10.003494      -272.2089
   3   2.0000      -9.963108      -271.1100
   4   2.0000      -9.885254      -268.9914
   5   2.0000      -9.885230      -268.9908
   6   2.0000      -1.010276       -27.4910
   7   2.0000      -0.919605       -25.0237
   8   2.0000      -0.727939       -19.8082
   9   2.0000      -0.628541       -17.1035
  10   2.0000      -0.607329       -16.5263
  11   2.0000      -0.502939       -13.6857
  12   2.0000      -0.453046       -12.3280
  13   2.0000      -0.426441       -11.6041
  14   2.0000      -0.420672       -11.4471
  15   2.0000      -0.398931       -10.8555
  16   2.0000      -0.373098       -10.1525
  17   2.0000      -0.367216        -9.9925
  18   2.0000      -0.346020        -9.4157
  19   2.0000      -0.323934        -8.8147
  20   2.0000      -0.318823        -8.6756
  21   2.0000      -0.293620        -7.9898
  22   2.0000      -0.263812        -7.1787
  23   2.0000      -0.222167        -6.0455
  24   0.0000      -0.023135        -0.6295
  25   0.0000       0.036836         1.0024
  26   0.0000       0.066467         1.8087
  27   0.0000       0.079220         2.1557
  28   0.0000       0.088112         2.3977

MULLIKEN ATOMIC CHARGES
-----------------------
   0 C :   -0.271043
   1 C :   -0.011729
   2 C :   -0.270761
   3 O :   -0.220377
   4 C :    0.130584
   5 O :   -0.217716
   6 H :    0.108052
   7 H :    0.112288
   8 H :    0.133603
   9 H :    0.088140
  10 H :    0.133526
  11 H :    0.107940
  12 H :    0.112230
  13 H :    0.065263
Sum of atomic charges:   -0.0000000

LOEWDIN ATOMIC CHARGES
----------------------
   0 C :   -0.349603
   1 C :   -0.035472
   2 C :   -0.349521
   3 O :   -0.056849
   4 C :   -0.018891
   5 O :   -0.168044
   6 H :    0.128858
   7 H :    0.125396
   8 H :    0.133509
   9 H :    0.118578
  10 H :    0.133470
  11 H :    0.128827
  12 H :    0.125372
  13 H :    0.084371

  Mayer bond orders larger than 0.100000
B(  0-C ,  1-C ) :   1.1204 B(  0-C ,  6-H ) :   0.9413 B(  0-C ,  7-H ) :   0.9440
B(  0-C ,  8-H ) :   0.9343 B(  1-C ,  2-C ) :   1.1201 B(  1-C ,  3-O ) :   0.8898
B(  1-C ,  9-H ) :   0.9214 B(  2-C , 10-H ) :   0.9344 B(  2-C , 11-H ) :   0.9413
B(  2-C , 12-H ) :   0.9440 B(  3-O ,  4-C ) :   1.2467 B(  3-O ,  5-O ) :   0.1061
B(  4-C ,  5-O ) :   2.0074 B(  4-C , 13-H ) :   0.9124

Dispersion correction           -0.010082874
FINAL SINGLE POINT ENERGY      -307.021687878825

DIPOLE MOMENT
-------------

Method             : SCF
Type of density    : Electron Density
Multiplicity       :   1
Irrep              :   0
Energy             :  -307.0767002286687557 Eh
Relativity type    :
Basis              : AO
                                X                 Y                 Z
Electronic contribution:     -5.624541678      -1.269393349      -1.445727880
Nuclear contribution   :      6.325971943       1.287321971       0.981420411
                        -----------------------------------------
Total Dipole Moment    :      0.701430265       0.017928622      -0.464307469
                        -----------------------------------------
Magnitude (a.u.)       :      0.841372259
Magnitude (Debye)      :      2.138598324

Rotational constants in cm-1:             0.171445             0.096291             0.090768
Rotational constants in MHz :          5139.777711          2886.735734          2721.169132

                             ****ORCA TERMINATED NORMALLY****
TOTAL RUN TIME: 0 days 0 hours 0 minutes 6 seconds 798 msec
