                         Program Version 6.0.0  -   RELEASE  -
|  1> ! r2scan-3c def2/J RI DEFGRID2 scfconv6 printgap
|  2> %output
|  3>     printlevel normal
|  4> end
|  5> * xyz 0 1
|  6> C -2.4331236255 -0.292541071 -0.8806674032
|  7> C -1.7272487415 0.7454576008 -0.0147277487
|  8> C -0.5788384843 0.1969479044 0.8367085457
|  9> C 0.7807641824 -0.0761179777 0.1576287912
| 10> C 1.2847875107 1.1404844842 -0.6200608677
| 11> C 0.763589282 -1.3124310705 -0.7474293676
| 12> O 1.7434643785 -0.2804432214 1.1993412524
| 13> H -3.3281674198 0.1419869699 -1.3203159825
| 14> H -2.7298808491 -1.1506625317 -0.2819650811
| 15> H -1.7981873312 -0.6405643019 -1.6888569332
| 16> H -1.3719348946 1.5654387643 -0.6384363656
| 17> H -2.4642399325 1.1625691076 0.6762182243
| 18> H -0.3715917261 0.9234307459 1.6279687463
| 19> H -0.9132645851 -0.7252648896 1.3208342608
| 20> H 0.686659202 1.3075520755 -1.5092124306
| 21> H 2.3164961005 0.9669734284 -0.9146083109
| 22> H 1.2537113439 2.0239074485 0.0119656222
| 23> H 1.7890854802 -1.6043741747 -0.9651314463
| 24> H 0.264370318 -1.0995477657 -1.686127002
| 25> H 0.2588324005 -2.1437442186 -0.2605246913
| 26> H 1.4943955586 -1.0641377699 1.7069593224
| 27> *
| 28>
| 29>                          ****END OF INPUT****

CARTESIAN COORDINATES (ANGSTROEM)
---------------------------------
  C     -2.433124   -0.292541   -0.880667
  C     -1.727249    0.745458   -0.014728
  C     -0.578838    0.196948    0.836709
  C      0.780764   -0.076118    0.157629
  C      1.284788    1.140484   -0.620061
  C      0.763589   -1.312431   -0.747429
  O      1.743464   -0.280443    1.199341
  H     -3.328167    0.141987   -1.320316
  H     -2.729881   -1.150663   -0.281965
  H     -1.798187   -0.640564   -1.688857
  H     -1.371935    1.565439   -0.638436
  H     -2.464240    1.162569    0.676218
  H     -0.371592    0.923431    1.627969
  H     -0.913265   -0.725265    1.320834
  H      0.686659    1.307552   -1.509212
  H      2.316496    0.966973   -0.914608
  H      1.253711    2.023907    0.011966
  H      1.789085   -1.604374   -0.965131
  H      0.264370   -1.099548   -1.686127
  H      0.258832   -2.143744   -0.260525
  H      1.494396   -1.064138    1.706959

 Total Charge           Charge          ....    0
 Multiplicity           Mult            ....    1
 Number of Electrons    NEL             ....   58
 Basis Dimension        Dim             ....  208

ORBITAL ENERGIES
----------------

  NO   OCC          E(Eh)            E(eV)
   0   2.0000     -18.939360      -515.3662
   1   2.0000     -10.087039      -274.4823
   2   2.0000     -10.027797      -272.8702
   3   2.0000     -10.022985      -272.7393
   4   2.0000     -10.017582      -272.5923
   5   2.0000     -10.016580      -272.5650
   6   2.0000     -10.014151      -272.4989
   7   2.0000      -0.978668       -26.6309
   8   2.0000      -0.769469       -20.9383
   9   2.0000      -0.723197       -19.6792
  10   2.0000      -0.658688       -17.9238
  11   2.0000      -0.651271       -17.7220
  12   2.0000      -0.569061       -15.4849
  13   2.0000      -0.524580       -14.2745
  14   2.0000      -0.462657       -12.5895
  15   2.0000      -0.433940       -11.8081
  16   2.0000      -0.414322       -11.2743
  17   2.0000      -0.404957       -11.0194
  18   2.0000      -0.388496       -10.5715
  19   2.0000      -0.370508       -10.0820
  20   2.0000      -0.353599        -9.6219
  21   2.0000      -0.350051        -9.5254
  22   2.0000      -0.337595        -9.1864
  23   2.0000      -0.327950        -8.9240
  24   2.0000      -0.313742        -8.5374
  25   2.0000      -0.300998        -8.1906
  26   2.0000      -0.290213        -7.8971
  27   2.0000      -0.277675        -7.5559
  28   2.0000      -0.230331        -6.2676
  29   0.0000       0.064512         1.7555
  30   0.0000       0.083960         2.2847
  31   0.0000       0.104471         2.8428
  32   0.0000       0.120946         3.2911
  33   0.0000       0.123091         3.3495

MULLIKEN ATOMIC CHARGES
-----------------------
   0 C :   -0.462587
   1 C :   -0.269933
   2 C :   -0.247783
   3 C :    0.195207
   4 C :   -0.524615
   5 C :   -0.500242
   6 O :   -0.414554
   7 H :    0.145023
   8 H :    0.145166
   9 H :    0.137179
  10 H :    0.148988
  11 H :    0.139056
  12 H :    0.165556
  13 H :    0.129825
  14 H :    0.154143
  15 H :    0.159922
  16 H :    0.158302
  17 H :    0.166769
  18 H :    0.148482
  19 H :    0.144179
  20 H :    0.281917
Sum of atomic charges:    0.0000000

LOEWDIN ATOMIC CHARGES
----------------------
   0 C :   -0.424051
   1 C :   -0.309917
   2 C :   -0.280123
   3 C :    0.061889
   4 C :   -0.374047
   5 C :   -0.389508
   6 O :   -0.613158
   7 H :    0.150359
   8 H :    0.150098
   9 H :    0.147380
  10 H :    0.155793
  11 H :    0.154315
  12 H :    0.173175
  13 H :    0.157382
  14 H :    0.156287
  15 H :    0.169098
  16 H :    0.165286
  17 H :    0.167327
  18 H :    0.157055
  19 H :    0.156153
  20 H :    0.269207

  Mayer bond orders larger than 0.100000
B(  0-C ,  1-C ) :   0.8998 B(  0-C ,  7-H ) :   0.9701 B(  0-C ,  8-H ) :   0.9869
B(  0-C ,  9-H ) :   0.9737 B(  1-C ,  2-C ) :   0.8834 B(  1-C , 10-H ) :   0.9766
B(  1-C , 11-H ) :   0.9590 B(  2-C ,  3-C ) :   0.9070 B(  2-C , 12-H ) :   0.9758
B(  2-C , 13-H ) :   0.9702 B(  3-C ,  4-C ) :   0.9269 B(  3-C ,  5-C ) :   0.9393
B(  3-C ,  6-O ) :   0.8667 B(  4-C , 14-H ) :   0.9763 B(  4-C , 15-H ) :   0.9676
B(  4-C , 16-H ) :   0.9704 B(  5-C , 17-H ) :   0.9736 B(  5-C , 18-H ) :   0.9733
B(  5-C , 19-H ) :   0.9623 B(  6-O , 20-H ) :   0.9033

Dispersion correction           -0.005831189
FINAL SINGLE POINT ENERGY      -312.203180149475

DIPOLE MOMENT
-------------

Method             : SCF
Type of density    : Electron Density
Multiplicity       :   1
Irrep              :   0
Energy             :  -312.2085380586166252 Eh
Relativity type    :
Basis              : AO
                                X                 Y                 Z
Electronic contribution:      4.077706022       0.049574985       3.536134127
Nuclear contribution   :     -4.583995185      -0.319795029      -3.660957833
                        -----------------------------------------
Total Dipole Moment    :     -0.506289163      -0.270220044      -0.124823706
                        -----------------------------------------
Magnitude (a.u.)       :      0.587306178
Magnitude (Debye)      :      1.492813669

Rotational constants in cm-1:             0.128644             0.054933             0.052575
Rotational constants in MHz :          3856.659013          1646.861540          1576.168340

                             ****ORCA TERMINATED NORMALLY****
TOTAL RUN TIME: 0 days 0 hours 0 minutes 25 seconds 183 msec
