                         Program Version 6.0.0  -   RELEASE  -
|  1> ! r2scan-3c def2/J RI DEFGRID2 scfconv6 printgap
|  2> %output
|  3>     printlevel normal
|  4> end
|  5> %cpcm
|  6>     smd true
|  7>     smdsolvent "water"
|  8> end
|  9> * xyz 0 1
| 10> C -2.4331236255 -0.292541071 -0.8806674032
| 11> C -1.7272487415 0.7454576008 -0.0147277487
| 12> C -0.5788384843 0.1969479044 0.8367085457
| 13> C 0.7807641824 -0.0761179777 0.1576287912
| 14> C 1.2847875107 1.1404844842 -0.6200608677
| 15> C 0.763589282 -1.3124310705 -0.7474293676
| 16> O 1.7434643785 -0.2804432214 1.1993412524
| 17> H -3.3281674198 0.1419869699 -1.3203159825
| 18> H -2.7298808491 -1.1506625317 -0.2819650811
| 19> H -1.7981873312 -0.6405643019 -1.6888569332
| 20> H -1.3719348946 1.5654387643 -0.6384363656
| 21> H -2.4642399325 1.1625691076 0.6762182243
| 22> H -0.3715917261 0.9234307459 1.6279687463
| 23> H -0.9132645851 -0.7252648896 1.3208342608
| 24> H 0.686659202 1.3075520755 -1.5092124306
| 25> H 2.3164961005 0.9669734284 -0.9146083109
| 26> H 1.2537113439 2.0239074485 0.0119656222
| 27> H 1.7890854802 -1.6043741747 -0.9651314463
| 28> H 0.264370318 -1.0995477657 -1.686127002
| 29> H 0.2588324005 -2.1437442186 -0.2605246913
| 30> H 1.4943955586 -1.0641377699 1.7069593224
| 31> *
| 32>
| 33>                          ****END OF INPUT****

CARTESIAN COORDINATES (ANGSTROEM)
---------------------------------
  C     -2.433124   -0.292541   -0.880667
  C     -1.727249    0.745458   -0.014728
  C     -0.578838    0.196948    0.836709
  C      0.780764   -0.076118    0.157629
  C      1.284788    1.140484   -0.620061
  C      0.763589   -1.312431   -0.747429
  O      1.743464   -0.280443    1.199341
  H     -3.328167    0.141987   -1.320316
  H     -2.729881   -1.150663   -0.281965
  H     -1.798187   -0.640564   -1.688857
  H     -1.371935    1.565439   -0.638436
  H     -2.464240    1.162569    0.676218
  H     -0.371592    0.923431    1.627969
  H     -0.913265   -0.725265    1.320834
  H      0.686659    1.307552   -1.509212
  H      2.316496    0.966973   -0.914608
  H      1.253711    2.023907    0.011966
  H      1.789085   -1.604374   -0.965131
  H      0.264370   -1.099548   -1.686127
  H      0.258832   -2.143744   -0.260525
  H      1.494396   -1.064138    1.706959

 Total Charge           Charge          ....    0
 Multiplicity           Mult            ....    1
 Number of Electrons    NEL             ....   58
 Basis Dimension        Dim             ....  208

ORBITAL ENERGIES
----------------

  NO   OCC          E(Eh)            E(eV)
   0   2.0000     -18.944497      -515.5060
   1   2.0000     -10.083114      -274.3755
   2   2.0000     -10.017578      -272.5922
   3   2.0000     -10.014280      -272.5024
   4   2.0000     -10.008625      -272.3485
   5   2.0000     -10.006927      -272.3023
   6   2.0000     -10.006390      -272.2877
   7   2.0000      -0.982444       -26.7336
   8   2.0000      -0.761894       -20.7322
   9   2.0000      -0.715583       -19.4720
  10   2.0000      -0.651103       -17.7174
  11   2.0000      -0.643407       -17.5080
  12   2.0000      -0.561298       -15.2737
  13   2.0000      -0.520218       -14.1559
  14   2.0000      -0.457067       -12.4374
  15   2.0000      -0.427080       -11.6214
  16   2.0000      -0.408283       -11.1099
  17   2.0000      -0.396665       -10.7938
  18   2.0000      -0.380655       -10.3581
  19   2.0000      -0.362311        -9.8590
  20   2.0000      -0.347654        -9.4601
  21   2.0000      -0.341705        -9.2983
  22   2.0000      -0.335595        -9.1320
  23   2.0000      -0.321724        -8.7546
  24   2.0000      -0.304616        -8.2890
  25   2.0000      -0.292503        -7.9594
  26   2.0000      -0.283218        -7.7068
  27   2.0000      -0.275297        -7.4912
  28   2.0000      -0.235080        -6.3969
  29   0.0000       0.080016         2.1773
  30   0.0000       0.093589         2.5467
  31   0.0000       0.117324         3.1926
  32   0.0000       0.130427         3.5491
  33   0.0000       0.132333         3.6010

MULLIKEN ATOMIC CHARGES
-----------------------
   0 C :   -0.508991
   1 C :   -0.273653
   2 C :   -0.265951
   3 C :    0.241507
   4 C :   -0.566736
   5 C :   -0.549639
   6 O :   -0.509598
   7 H :    0.153575
   8 H :    0.157489
   9 H :    0.153174
  10 H :    0.156521
  11 H :    0.147344
  12 H :    0.157969
  13 H :    0.154824
  14 H :    0.178564
  15 H :    0.165078
  16 H :    0.167178
  17 H :    0.164789
  18 H :    0.172365
  19 H :    0.166262
  20 H :    0.337930
Sum of atomic charges:    0.0000000

LOEWDIN ATOMIC CHARGES
----------------------
   0 C :   -0.432211
   1 C :   -0.310056
   2 C :   -0.279853
   3 C :    0.063848
   4 C :   -0.383612
   5 C :   -0.393207
   6 O :   -0.652277
   7 H :    0.152012
   8 H :    0.152954
   9 H :    0.151475
  10 H :    0.158149
  11 H :    0.156550
  12 H :    0.170739
  13 H :    0.165585
  14 H :    0.166069
  15 H :    0.167726
  16 H :    0.165677
  17 H :    0.165959
  18 H :    0.164433
  19 H :    0.163191
  20 H :    0.286850

  Mayer bond orders larger than 0.100000
B(  0-C ,  1-C ) :   0.8909 B(  0-C ,  7-H ) :   0.9683 B(  0-C ,  8-H ) :   0.9834
B(  0-C ,  9-H ) :   0.9730 B(  1-C ,  2-C ) :   0.8872 B(  1-C , 10-H ) :   0.9757
B(  1-C , 11-H ) :   0.9585 B(  2-C ,  3-C ) :   0.9066 B(  2-C , 12-H ) :   0.9708
B(  2-C , 13-H ) :   0.9720 B(  3-C ,  4-C ) :   0.9284 B(  3-C ,  5-C ) :   0.9260
B(  3-C ,  6-O ) :   0.8418 B(  4-C , 14-H ) :   0.9685 B(  4-C , 15-H ) :   0.9677
B(  4-C , 16-H ) :   0.9675 B(  5-C , 17-H ) :   0.9695 B(  5-C , 18-H ) :   0.9693
B(  5-C , 19-H ) :   0.9618 B(  6-O , 20-H ) :   0.8778

Dispersion correction           -0.005831189
FINAL SINGLE POINT ENERGY      -312.209277157703

DIPOLE MOMENT
-------------

Method             : SCF
Type of density    : Electron Density
Multiplicity       :   1
Irrep              :   0
Energy             :  -312.2146350668448918 Eh
Relativity type    :
Basis              : AO
                                X                 Y                 Z
Electronic contribution:      3.817711982      -0.114779327       3.457216906
Nuclear contribution   :     -4.583995185      -0.319795029      -3.660957833
                        -----------------------------------------
Total Dipole Moment    :     -0.766283203      -0.434574356      -0.203740927
                        -----------------------------------------
Magnitude (a.u.)       :      0.904187582
Magnitude (Debye)      :      2.298262187

Rotational constants in cm-1:             0.128644             0.054933             0.052575
Rotational constants in MHz :          3856.659013          1646.861540          1576.168340

                             ****ORCA TERMINATED NORMALLY****
TOTAL RUN TIME: 0 days 0 hours 0 minutes 30 seconds 241 msec
