                         Program Version 6.0.0  -   RELEASE  -
|  1> ! pbe def2-sv(p) def2/J RI DEFGRID1 loosescf d4 GCP(DFT/SV(P)) printgap
|  2> %output
|  3>     printlevel normal
|  4> end
|  5> * xyz 0 1
|  6> C -1.7149967012 -0.5878388484 0.5379942061
|  7> C -1.07958094 0.0641568983 -0.6850111377
|  8> C 0.0285453611 1.0403887488 -0.2939789468
|  9> C 1.2746145911 0.3799707002 0.1904745242
| 10> O 1.5019310677 -0.8055388779 0.1982387696
| 11> H -2.4983313674 -1.2777638555 0.2355365053
| 12> H -0.9681995422 -1.1446361634 1.0994858252
| 13> H -2.1517081514 0.1644486176 1.1912171154
| 14> H -1.8441019125 0.5973092226 -1.2514974729
| 15> H -0.6562100193 -0.7108328308 -1.3267061111
| 16> H 0.3213180952 1.656007197 -1.1492512715
| 17> H -0.3127600935 1.7270940652 0.4841500545
| 18> H 2.0412043876 1.0900707572 0.5555910585
| 19> *
| 20>
| 21>                          ****END OF INPUT****

CARTESIAN COORDINATES (ANGSTROEM)
---------------------------------
  C     -1.714997   -0.587839    0.537994
  C     -1.079581    0.064157   -0.685011
  C      0.028545    1.040389   -0.293979
  C      1.274615    0.379971    0.190475
  O      1.501931   -0.805539    0.198239
  H     -2.498331   -1.277764    0.235537
  H     -0.968200   -1.144636    1.099486
  H     -2.151708    0.164449    1.191217
  H     -1.844102    0.597309   -1.251497
  H     -0.656210   -0.710833   -1.326706
  H      0.321318    1.656007   -1.149251
  H     -0.312760    1.727094    0.484150
  H      2.041204    1.090071    0.555591

 Total Charge           Charge          ....    0
 Multiplicity           Mult            ....    1
 Number of Electrons    NEL             ....   40
 Basis Dimension        Dim             ....   86

ORBITAL ENERGIES
----------------

  NO   OCC          E(Eh)            E(eV)
   0   2.0000     -18.751845      -510.2637
   1   2.0000      -9.973972      -271.4056
   2   2.0000      -9.900748      -269.4131
   3   2.0000      -9.891069      -269.1497
   4   2.0000      -9.873218      -268.6639
   5   2.0000      -0.947016       -25.7696
   6   2.0000      -0.724074       -19.7031
   7   2.0000      -0.644761       -17.5448
   8   2.0000      -0.553749       -15.0683
   9   2.0000      -0.487724       -13.2717
  10   2.0000      -0.444031       -12.0827
  11   2.0000      -0.421737       -11.4760
  12   2.0000      -0.388189       -10.5631
  13   2.0000      -0.370101       -10.0709
  14   2.0000      -0.358819        -9.7640
  15   2.0000      -0.336155        -9.1472
  16   2.0000      -0.304658        -8.2902
  17   2.0000      -0.302867        -8.2414
  18   2.0000      -0.297709        -8.1011
  19   2.0000      -0.205997        -5.6055
  20   0.0000      -0.059546        -1.6203
  21   0.0000       0.035527         0.9667
  22   0.0000       0.066323         1.8047
  23   0.0000       0.077723         2.1150
  24   0.0000       0.095943         2.6107

MULLIKEN ATOMIC CHARGES
-----------------------
   0 C :   -0.297008
   1 C :   -0.171669
   2 C :   -0.175822
   3 C :    0.013638
   4 O :   -0.164184
   5 H :    0.107292
   6 H :    0.119232
   7 H :    0.095022
   8 H :    0.087008
   9 H :    0.103267
  10 H :    0.118617
  11 H :    0.107676
  12 H :    0.056932
Sum of atomic charges:   -0.0000000

LOEWDIN ATOMIC CHARGES
----------------------
   0 C :   -0.343836
   1 C :   -0.232912
   2 C :   -0.272896
   3 C :    0.006781
   4 O :   -0.120025
   5 H :    0.121588
   6 H :    0.123225
   7 H :    0.114203
   8 H :    0.117975
   9 H :    0.124607
  10 H :    0.145464
  11 H :    0.137977
  12 H :    0.077850

  Mayer bond orders larger than 0.100000
B(  0-C ,  1-C ) :   1.1494 B(  0-C ,  5-H ) :   0.9535 B(  0-C ,  6-H ) :   0.9536
B(  0-C ,  7-H ) :   0.9545 B(  1-C ,  2-C ) :   1.1064 B(  1-C ,  8-H ) :   0.9268
B(  1-C ,  9-H ) :   0.9232 B(  2-C ,  3-C ) :   0.9968 B(  2-C , 10-H ) :   0.8894
B(  2-C , 11-H ) :   0.8978 B(  3-C ,  4-O ) :   2.1642 B(  3-C , 12-H ) :   0.9095

Dispersion correction           -0.008349669
FINAL SINGLE POINT ENERGY      -231.919761519074

DIPOLE MOMENT
-------------

Method             : SCF
Type of density    : Electron Density
Multiplicity       :   1
Irrep              :   0
Energy             :  -231.9651669307753536 Eh
Relativity type    :
Basis              : AO
                                X                 Y                 Z
Electronic contribution:      5.313220028      -1.128602461       0.033328901
Nuclear contribution   :     -5.671239831       1.959777512      -0.148543295
                        -----------------------------------------
Total Dipole Moment    :     -0.358019803       0.831175051      -0.115214394
                        -----------------------------------------
Magnitude (a.u.)       :      0.912307240
Magnitude (Debye)      :      2.318900719

Rotational constants in cm-1:             0.285957             0.120986             0.098857
Rotational constants in MHz :          8572.777903          3627.055153          2963.648544

                             ****ORCA TERMINATED NORMALLY****
TOTAL RUN TIME: 0 days 0 hours 0 minutes 5 seconds 435 msec
