                         Program Version 6.0.0  -   RELEASE  -
|  1> ! pbe def2-sv(p) def2/J RI DEFGRID1 loosescf d4 GCP(DFT/SV(P)) printgap
|  2> %output
|  3>     printlevel normal
|  4> end
|  5> * xyz 0 1
|  6> C 3.4862028892 -0.2607779508 -0.9440471627
|  7> C 2.542569738 -0.0806479315 0.2060658998
|  8> C 2.9449420818 -0.1718818538 1.4635505979
|  9> C 1.104903732 0.1663029593 -0.1942079067
| 10> H 1.10520575 0.5765137036 -1.2090044726
| 11> C 0.3143828232 -1.1611476578 -0.2112707816
| 12> C -1.1210958151 -1.0237512347 0.3260171871
| 13> C -1.7191752466 0.3048276231 -0.0214320497
| 14> C -0.9732789824 1.4028105304 0.1941235487
| 15> C 0.407980186 1.2163930068 0.6974128358
| 16> C -3.0587836082 0.3847887303 -0.5596582294
| 17> O -3.7908872434 -0.5609736857 -0.7940816996
| 18> H 3.5365509916 0.6528508715 -1.5349557432
| 19> H 4.4854453968 -0.5074692871 -0.5967869079
| 20> H 3.1319379076 -1.0584276589 -1.5952957504
| 21> H 2.2788713152 -0.0548923235 2.3000096896
| 22> H 3.9732914258 -0.3742648898 1.709797701
| 23> H 0.2742438384 -1.5358742767 -1.2344678626
| 24> H 0.8364672894 -1.9056282196 0.3911563902
| 25> H -1.7526964708 -1.8242317723 -0.0610022098
| 26> H -1.1008432152 -1.1113743717 1.4155938691
| 27> H -1.3413877074 2.392363934 -0.0297886628
| 28> H 0.9746603047 2.1456722836 0.6936288213
| 29> H 0.3672713996 0.8368522915 1.7206409858
| 30> H -3.4096247729 1.4144040641 -0.7633929186
| 31> *
| 32>
| 33>                          ****END OF INPUT****

CARTESIAN COORDINATES (ANGSTROEM)
---------------------------------
  C      3.486203   -0.260778   -0.944047
  C      2.542570   -0.080648    0.206066
  C      2.944942   -0.171882    1.463551
  C      1.104904    0.166303   -0.194208
  H      1.105206    0.576514   -1.209004
  C      0.314383   -1.161148   -0.211271
  C     -1.121096   -1.023751    0.326017
  C     -1.719175    0.304828   -0.021432
  C     -0.973279    1.402811    0.194124
  C      0.407980    1.216393    0.697413
  C     -3.058784    0.384789   -0.559658
  O     -3.790887   -0.560974   -0.794082
  H      3.536551    0.652851   -1.534956
  H      4.485445   -0.507469   -0.596787
  H      3.131938   -1.058428   -1.595296
  H      2.278871   -0.054892    2.300010
  H      3.973291   -0.374265    1.709798
  H      0.274244   -1.535874   -1.234468
  H      0.836467   -1.905628    0.391156
  H     -1.752696   -1.824232   -0.061002
  H     -1.100843   -1.111374    1.415594
  H     -1.341388    2.392364   -0.029789
  H      0.974660    2.145672    0.693629
  H      0.367271    0.836852    1.720641
  H     -3.409625    1.414404   -0.763393

 Total Charge           Charge          ....    0
 Multiplicity           Mult            ....    1
 Number of Electrons    NEL             ....   82
 Basis Dimension        Dim             ....  182

ORBITAL ENERGIES
----------------

  NO   OCC          E(Eh)            E(eV)
   0   2.0000     -18.741506      -509.9823
   1   2.0000      -9.961615      -271.0693
   2   2.0000      -9.916807      -269.8500
   3   2.0000      -9.910200      -269.6702
   4   2.0000      -9.906199      -269.5614
   5   2.0000      -9.905050      -269.5301
   6   2.0000      -9.903098      -269.4770
   7   2.0000      -9.894807      -269.2514
   8   2.0000      -9.893342      -269.2115
   9   2.0000      -9.887910      -269.0637
  10   2.0000      -9.877557      -268.7820
  11   2.0000      -0.930907       -25.3313
  12   2.0000      -0.785212       -21.3667
  13   2.0000      -0.735325       -20.0092
  14   2.0000      -0.680759       -18.5244
  15   2.0000      -0.676015       -18.3953
  16   2.0000      -0.619933       -16.8692
  17   2.0000      -0.594735       -16.1836
  18   2.0000      -0.557759       -15.1774
  19   2.0000      -0.523648       -14.2492
  20   2.0000      -0.484347       -13.1798
  21   2.0000      -0.464871       -12.6498
  22   2.0000      -0.452181       -12.3045
  23   2.0000      -0.435593       -11.8531
  24   2.0000      -0.403080       -10.9684
  25   2.0000      -0.401775       -10.9329
  26   2.0000      -0.389166       -10.5897
  27   2.0000      -0.376640       -10.2489
  28   2.0000      -0.369272       -10.0484
  29   2.0000      -0.362534        -9.8651
  30   2.0000      -0.354371        -9.6429
  31   2.0000      -0.349203        -9.5023
  32   2.0000      -0.340645        -9.2694
  33   2.0000      -0.332655        -9.0520
  34   2.0000      -0.325286        -8.8515
  35   2.0000      -0.294430        -8.0118
  36   2.0000      -0.289982        -7.8908
  37   2.0000      -0.281853        -7.6696
  38   2.0000      -0.237536        -6.4637
  39   2.0000      -0.221971        -6.0401
  40   2.0000      -0.200151        -5.4464
  41   0.0000      -0.089990        -2.4487
  42   0.0000      -0.019052        -0.5184
  43   0.0000       0.020644         0.5618
  44   0.0000       0.027638         0.7521
  45   0.0000       0.044019         1.1978

MULLIKEN ATOMIC CHARGES
-----------------------
   0 C :   -0.207681
   1 C :   -0.033245
   2 C :   -0.245704
   3 C :   -0.186751
   4 H :    0.062690
   5 C :   -0.107807
   6 C :   -0.059989
   7 C :   -0.051691
   8 C :   -0.178569
   9 C :   -0.008112
  10 C :    0.036974
  11 O :   -0.174226
  12 H :    0.111161
  13 H :    0.097898
  14 H :    0.109916
  15 H :    0.088621
  16 H :    0.085460
  17 H :    0.090872
  18 H :    0.089590
  19 H :    0.097190
  20 H :    0.091510
  21 H :    0.064345
  22 H :    0.094102
  23 H :    0.102321
  24 H :    0.031125
Sum of atomic charges:   -0.0000000

LOEWDIN ATOMIC CHARGES
----------------------
   0 C :   -0.320004
   1 C :   -0.047372
   2 C :   -0.270794
   3 C :   -0.125736
   4 H :    0.121618
   5 C :   -0.206462
   6 C :   -0.211932
   7 C :   -0.103046
   8 C :   -0.084959
   9 C :   -0.209569
  10 C :   -0.006716
  11 O :   -0.135824
  12 H :    0.129561
  13 H :    0.123911
  14 H :    0.128899
  15 H :    0.115234
  16 H :    0.120123
  17 H :    0.123925
  18 H :    0.125406
  19 H :    0.132044
  20 H :    0.133262
  21 H :    0.125425
  22 H :    0.128027
  23 H :    0.137295
  24 H :    0.077684

  Mayer bond orders larger than 0.100000
B(  0-C ,  1-C ) :   1.1313 B(  0-C , 12-H ) :   0.9281 B(  0-C , 13-H ) :   0.9395
B(  0-C , 14-H ) :   0.9313 B(  1-C ,  2-C ) :   2.0323 B(  1-C ,  3-C ) :   0.9910
B(  2-C , 15-H ) :   0.9100 B(  2-C , 16-H ) :   0.9010 B(  3-C ,  4-H ) :   0.8833
B(  3-C ,  5-C ) :   1.0727 B(  3-C ,  9-C ) :   1.1125 B(  5-C ,  6-C ) :   1.1488
B(  5-C , 17-H ) :   0.9155 B(  5-C , 18-H ) :   0.9081 B(  6-C ,  7-C ) :   1.1201
B(  6-C , 19-H ) :   0.8910 B(  6-C , 20-H ) :   0.8714 B(  7-C ,  8-C ) :   1.7008
B(  7-C , 10-C ) :   1.0409 B(  8-C ,  9-C ) :   1.0876 B(  8-C , 11-O ) :   0.1052
B(  8-C , 21-H ) :   0.9492 B(  9-C , 22-H ) :   0.9174 B(  9-C , 23-H ) :   0.8452
B( 10-C , 11-O ) :   2.0985 B( 10-C , 24-H ) :   0.9172

Dispersion correction           -0.026370450
FINAL SINGLE POINT ENERGY      -463.620451781838

DIPOLE MOMENT
-------------

Method             : SCF
Type of density    : Electron Density
Multiplicity       :   1
Irrep              :   0
Energy             :  -463.6963819446699517 Eh
Relativity type    :
Basis              : AO
                                X                 Y                 Z
Electronic contribution:    -11.335504092       0.909106291      -0.940734930
Nuclear contribution   :     12.477153644      -0.339963619       1.119783198
                        -----------------------------------------
Total Dipole Moment    :      1.141649552       0.569142672       0.179048268
                        -----------------------------------------
Magnitude (a.u.)       :      1.288155799
Magnitude (Debye)      :      3.274231834

Rotational constants in cm-1:             0.094097             0.018550             0.017604
Rotational constants in MHz :          2820.961264           556.129821           527.764914

                             ****ORCA TERMINATED NORMALLY****
TOTAL RUN TIME: 0 days 0 hours 0 minutes 18 seconds 14 msec
