                         Program Version 6.0.0  -   RELEASE  -
|  1> ! pbe def2-sv(p) def2/J RI DEFGRID1 loosescf d4 GCP(DFT/SV(P)) printgap
|  2> %output
|  3>     printlevel normal
|  4> end
|  5> * xyz 0 1
|  6> C -2.7760358679 -0.0017950842 -0.3003994311
|  7> C -2.101683937 -1.2004672899 -0.1404353159
|  8> C -0.7594724271 -1.2021264968 0.1969271443
|  9> C -0.0736397236 -0.0082321418 0.3818464863
| 10> C -0.7590375784 1.1890015835 0.2172686385
| 11> C -2.1010992828 1.1937512688 -0.1202892849
| 12> C 1.3905961854 -0.0105968583 0.71224797
| 13> C 2.2300934032 0.0153194206 -0.5686803035
| 14> O 3.597523085 0.0174624047 -0.2117084733
| 15> H -3.8233873437 0.0006835941 -0.5622299665
| 16> H -2.6227775372 -2.1362865309 -0.2776707436
| 17> H -0.2377009514 -2.1397065888 0.3233442283
| 18> H -0.2367342003 2.1239804543 0.3597782127
| 19> H -2.6217339251 2.1319986319 -0.2417868725
| 20> H 1.6540384974 0.8635178573 1.309533044
| 21> H 1.6586720712 -0.9042379074 1.2776243138
| 22> H 1.9925562483 -0.8673839804 -1.178173562
| 23> H 1.9821398061 0.9147853225 -1.1487903714
| 24> H 4.1396311378 0.0351075063 -1.0113312712
| 25> *
| 26>
| 27>                          ****END OF INPUT****

CARTESIAN COORDINATES (ANGSTROEM)
---------------------------------
  C     -2.776036   -0.001795   -0.300399
  C     -2.101684   -1.200467   -0.140435
  C     -0.759472   -1.202126    0.196927
  C     -0.073640   -0.008232    0.381846
  C     -0.759038    1.189002    0.217269
  C     -2.101099    1.193751   -0.120289
  C      1.390596   -0.010597    0.712248
  C      2.230093    0.015319   -0.568680
  O      3.597523    0.017462   -0.211708
  H     -3.823387    0.000684   -0.562230
  H     -2.622778   -2.136287   -0.277671
  H     -0.237701   -2.139707    0.323344
  H     -0.236734    2.123980    0.359778
  H     -2.621734    2.131999   -0.241787
  H      1.654038    0.863518    1.309533
  H      1.658672   -0.904238    1.277624
  H      1.992556   -0.867384   -1.178174
  H      1.982140    0.914785   -1.148790
  H      4.139631    0.035108   -1.011331

 Total Charge           Charge          ....    0
 Multiplicity           Mult            ....    1
 Number of Electrons    NEL             ....   66
 Basis Dimension        Dim             ....  146

ORBITAL ENERGIES
----------------

  NO   OCC          E(Eh)            E(eV)
   0   2.0000     -18.741164      -509.9730
   1   2.0000      -9.933192      -270.2959
   2   2.0000      -9.902417      -269.4585
   3   2.0000      -9.890281      -269.1282
   4   2.0000      -9.890253      -269.1275
   5   2.0000      -9.889642      -269.1108
   6   2.0000      -9.889620      -269.1102
   7   2.0000      -9.888789      -269.0876
   8   2.0000      -9.888166      -269.0707
   9   2.0000      -0.917268       -24.9601
  10   2.0000      -0.778214       -21.1763
  11   2.0000      -0.707737       -19.2585
  12   2.0000      -0.668548       -18.1921
  13   2.0000      -0.641344       -17.4519
  14   2.0000      -0.559366       -15.2211
  15   2.0000      -0.542746       -14.7689
  16   2.0000      -0.515639       -14.0313
  17   2.0000      -0.472960       -12.8699
  18   2.0000      -0.449986       -12.2447
  19   2.0000      -0.428337       -11.6556
  20   2.0000      -0.398345       -10.8395
  21   2.0000      -0.392389       -10.6774
  22   2.0000      -0.372893       -10.1469
  23   2.0000      -0.369600       -10.0573
  24   2.0000      -0.357459        -9.7269
  25   2.0000      -0.322896        -8.7865
  26   2.0000      -0.320701        -8.7267
  27   2.0000      -0.297623        -8.0987
  28   2.0000      -0.294186        -8.0052
  29   2.0000      -0.278251        -7.5716
  30   2.0000      -0.229013        -6.2318
  31   2.0000      -0.220490        -5.9998
  32   2.0000      -0.212865        -5.7924
  33   0.0000      -0.033442        -0.9100
  34   0.0000      -0.032877        -0.8946
  35   0.0000       0.030247         0.8231
  36   0.0000       0.041423         1.1272
  37   0.0000       0.068065         1.8522

MULLIKEN ATOMIC CHARGES
-----------------------
   0 C :   -0.048806
   1 C :   -0.047748
   2 C :   -0.114038
   3 C :    0.056565
   4 C :   -0.114120
   5 C :   -0.047612
   6 C :   -0.107717
   7 C :    0.001584
   8 O :   -0.433302
   9 H :    0.052127
  10 H :    0.050667
  11 H :    0.039720
  12 H :    0.039794
  13 H :    0.050659
  14 H :    0.092126
  15 H :    0.091855
  16 H :    0.069879
  17 H :    0.069977
  18 H :    0.298390
Sum of atomic charges:   -0.0000000

LOEWDIN ATOMIC CHARGES
----------------------
   0 C :   -0.127861
   1 C :   -0.121489
   2 C :   -0.123245
   3 C :   -0.038148
   4 C :   -0.123196
   5 C :   -0.121477
   6 C :   -0.218239
   7 C :   -0.115282
   8 O :   -0.351773
   9 H :    0.122755
  10 H :    0.122984
  11 H :    0.121386
  12 H :    0.121357
  13 H :    0.122978
  14 H :    0.126550
  15 H :    0.126369
  16 H :    0.095459
  17 H :    0.095376
  18 H :    0.285496

  Mayer bond orders larger than 0.100000
B(  0-C ,  1-C ) :   1.3811 B(  0-C ,  5-C ) :   1.3805 B(  0-C ,  9-H ) :   0.9651
B(  1-C ,  2-C ) :   1.3729 B(  1-C , 10-H ) :   0.9639 B(  2-C ,  3-C ) :   1.3931
B(  2-C , 11-H ) :   0.9620 B(  3-C ,  4-C ) :   1.3921 B(  3-C ,  6-C ) :   1.0383
B(  4-C ,  5-C ) :   1.3734 B(  4-C , 12-H ) :   0.9619 B(  5-C , 13-H ) :   0.9639
B(  6-C ,  7-C ) :   1.1218 B(  6-C , 14-H ) :   0.9010 B(  6-C , 15-H ) :   0.9012
B(  7-C ,  8-O ) :   1.0895 B(  7-C , 16-H ) :   0.9232 B(  7-C , 17-H ) :   0.9235
B(  8-O , 18-H ) :   0.8523

Dispersion correction           -0.018377133
FINAL SINGLE POINT ENERGY      -385.218950233031

DIPOLE MOMENT
-------------

Method             : SCF
Type of density    : Electron Density
Multiplicity       :   1
Irrep              :   0
Energy             :  -385.2808863053734285 Eh
Relativity type    :
Basis              : AO
                                X                 Y                 Z
Electronic contribution:     -1.822944131      -0.011025955       0.500519134
Nuclear contribution   :      1.821485686       0.021328524      -1.081752920
                        -----------------------------------------
Total Dipole Moment    :     -0.001458445       0.010302569      -0.581233785
                        -----------------------------------------
Magnitude (a.u.)       :      0.581326916
Magnitude (Debye)      :      1.477615592

Rotational constants in cm-1:             0.149110             0.028824             0.025840
Rotational constants in MHz :          4470.207229           864.108919           774.666106

                             ****ORCA TERMINATED NORMALLY****
TOTAL RUN TIME: 0 days 0 hours 0 minutes 7 seconds 923 msec
