                         Program Version 6.0.0  -   RELEASE  -
|  1> ! r2scan-3c def2/J RI DEFGRID2 scfconv6 printgap
|  2> %output
|  3>     printlevel normal
|  4> end
|  5> * xyz 0 1
|  6> C -2.1052932234 -0.5739592675 0.648257266
|  7> C -1.3675624954 -0.3444715345 -0.6666120553
|  8> C 0.0410760486 0.2530744155 -0.5229723335
|  9> C -0.0054574425 1.6477064965 0.099692228
| 10> C 0.9713056647 -0.6825280274 0.2588463528
| 11> C 2.4462316927 -0.3311522059 0.0952413131
| 12> H -1.5623465206 -1.2685683899 1.2832564449
| 13> H -2.2402930397 0.3594700515 1.1873097259
| 14> H -3.0884673941 -0.9945526646 0.4493366969
| 15> H -1.9635382388 0.3251968306 -1.2917735004
| 16> H -1.2867028705 -1.2976281155 -1.1955256297
| 17> H 0.4440534731 0.3512265477 -1.5388939937
| 18> H -0.7404914334 2.2656126057 -0.4113209301
| 19> H 0.9615982076 2.1364866318 0.0173743694
| 20> H -0.270016312 1.5928443839 1.1526243985
| 21> H 0.7138921312 -0.650771706 1.3189210558
| 22> H 0.815086578 -1.7054511989 -0.09256396
| 23> H 2.6614714378 0.6522094861 0.5044364914
| 24> H 2.7250213632 -0.3351909394 -0.9563840593
| 25> H 3.0654917814 -1.0575269299 0.6164906832
| 26> *
| 27>
| 28>                          ****END OF INPUT****

CARTESIAN COORDINATES (ANGSTROEM)
---------------------------------
  C     -2.105293   -0.573959    0.648257
  C     -1.367562   -0.344472   -0.666612
  C      0.041076    0.253074   -0.522972
  C     -0.005457    1.647706    0.099692
  C      0.971306   -0.682528    0.258846
  C      2.446232   -0.331152    0.095241
  H     -1.562347   -1.268568    1.283256
  H     -2.240293    0.359470    1.187310
  H     -3.088467   -0.994553    0.449337
  H     -1.963538    0.325197   -1.291774
  H     -1.286703   -1.297628   -1.195526
  H      0.444053    0.351227   -1.538894
  H     -0.740491    2.265613   -0.411321
  H      0.961598    2.136487    0.017374
  H     -0.270016    1.592844    1.152624
  H      0.713892   -0.650772    1.318921
  H      0.815087   -1.705451   -0.092564
  H      2.661471    0.652209    0.504436
  H      2.725021   -0.335191   -0.956384
  H      3.065492   -1.057527    0.616491

 Total Charge           Charge          ....    0
 Multiplicity           Mult            ....    1
 Number of Electrons    NEL             ....   50
 Basis Dimension        Dim             ....  184

ORBITAL ENERGIES
----------------

  NO   OCC          E(Eh)            E(eV)
   0   2.0000     -10.027356      -272.8582
   1   2.0000     -10.019856      -272.6541
   2   2.0000     -10.019660      -272.6488
   3   2.0000     -10.013636      -272.4849
   4   2.0000     -10.012365      -272.4503
   5   2.0000     -10.011893      -272.4375
   6   2.0000      -0.780429       -21.2366
   7   2.0000      -0.714146       -19.4329
   8   2.0000      -0.676906       -18.4195
   9   2.0000      -0.613011       -16.6809
  10   2.0000      -0.574893       -15.6436
  11   2.0000      -0.506680       -13.7875
  12   2.0000      -0.434068       -11.8116
  13   2.0000      -0.419835       -11.4243
  14   2.0000      -0.413046       -11.2395
  15   2.0000      -0.388368       -10.5680
  16   2.0000      -0.355882        -9.6840
  17   2.0000      -0.350625        -9.5410
  18   2.0000      -0.346812        -9.4372
  19   2.0000      -0.333377        -9.0716
  20   2.0000      -0.323098        -8.7919
  21   2.0000      -0.301177        -8.1954
  22   2.0000      -0.282888        -7.6978
  23   2.0000      -0.279096        -7.5946
  24   2.0000      -0.273508        -7.4425
  25   0.0000       0.082642         2.2488
  26   0.0000       0.108547         2.9537
  27   0.0000       0.117485         3.1969
  28   0.0000       0.126621         3.4455
  29   0.0000       0.130920         3.5625

MULLIKEN ATOMIC CHARGES
-----------------------
   0 C :   -0.504540
   1 C :   -0.244344
   2 C :   -0.011657
   3 C :   -0.541551
   4 C :   -0.261721
   5 C :   -0.500511
   6 H :    0.154434
   7 H :    0.152985
   8 H :    0.145551
   9 H :    0.142993
  10 H :    0.141598
  11 H :    0.145674
  12 H :    0.147023
  13 H :    0.149529
  14 H :    0.158379
  15 H :    0.144395
  16 H :    0.143855
  17 H :    0.146311
  18 H :    0.145423
  19 H :    0.146173
Sum of atomic charges:    0.0000000

LOEWDIN ATOMIC CHARGES
----------------------
   0 C :   -0.425539
   1 C :   -0.312377
   2 C :   -0.245402
   3 C :   -0.417698
   4 C :   -0.312203
   5 C :   -0.422481
   6 H :    0.151249
   7 H :    0.150907
   8 H :    0.150743
   9 H :    0.152859
  10 H :    0.153135
  11 H :    0.156932
  12 H :    0.154764
  13 H :    0.153314
  14 H :    0.153034
  15 H :    0.154070
  16 H :    0.154805
  17 H :    0.149474
  18 H :    0.150199
  19 H :    0.150215

  Mayer bond orders larger than 0.100000
B(  0-C ,  1-C ) :   0.8751 B(  0-C ,  6-H ) :   0.9797 B(  0-C ,  7-H ) :   0.9830
B(  0-C ,  8-H ) :   0.9682 B(  1-C ,  2-C ) :   0.9010 B(  1-C ,  9-H ) :   0.9839
B(  1-C , 10-H ) :   0.9821 B(  2-C ,  3-C ) :   0.8932 B(  2-C ,  4-C ) :   0.8931
B(  2-C , 11-H ) :   0.9739 B(  3-C , 12-H ) :   0.9715 B(  3-C , 13-H ) :   0.9723
B(  3-C , 14-H ) :   0.9866 B(  4-C ,  5-C ) :   0.8989 B(  4-C , 15-H ) :   0.9680
B(  4-C , 16-H ) :   0.9710 B(  5-C , 17-H ) :   0.9839 B(  5-C , 18-H ) :   0.9877
B(  5-C , 19-H ) :   0.9732

Dispersion correction           -0.005132524
FINAL SINGLE POINT ENERGY      -236.986626919146

DIPOLE MOMENT
-------------

Method             : SCF
Type of density    : Electron Density
Multiplicity       :   1
Irrep              :   0
Energy             :  -236.9910663213208295 Eh
Relativity type    :
Basis              : AO
                                X                 Y                 Z
Electronic contribution:     -0.217601785      -0.373160227      -1.015589937
Nuclear contribution   :      0.220241932       0.350268660       0.978772102
                        -----------------------------------------
Total Dipole Moment    :      0.002640147      -0.022891567      -0.036817835
                        -----------------------------------------
Magnitude (a.u.)       :      0.043434401
Magnitude (Debye)      :      0.110401474

Rotational constants in cm-1:             0.175707             0.071268             0.060878
Rotational constants in MHz :          5267.561022          2136.550072          1825.071599

                             ****ORCA TERMINATED NORMALLY****
TOTAL RUN TIME: 0 days 0 hours 0 minutes 15 seconds 765 msec
