                         Program Version 6.0.0  -   RELEASE  -
|  1> ! r2scan-3c def2/J RI DEFGRID2 scfconv6 printgap
|  2> %output
|  3>     printlevel normal
|  4> end
|  5> %cpcm
|  6>     smd true
|  7>     smdsolvent "water"
|  8> end
|  9> * xyz 0 1
| 10> C -2.1052932234 -0.5739592675 0.648257266
| 11> C -1.3675624954 -0.3444715345 -0.6666120553
| 12> C 0.0410760486 0.2530744155 -0.5229723335
| 13> C -0.0054574425 1.6477064965 0.099692228
| 14> C 0.9713056647 -0.6825280274 0.2588463528
| 15> C 2.4462316927 -0.3311522059 0.0952413131
| 16> H -1.5623465206 -1.2685683899 1.2832564449
| 17> H -2.2402930397 0.3594700515 1.1873097259
| 18> H -3.0884673941 -0.9945526646 0.4493366969
| 19> H -1.9635382388 0.3251968306 -1.2917735004
| 20> H -1.2867028705 -1.2976281155 -1.1955256297
| 21> H 0.4440534731 0.3512265477 -1.5388939937
| 22> H -0.7404914334 2.2656126057 -0.4113209301
| 23> H 0.9615982076 2.1364866318 0.0173743694
| 24> H -0.270016312 1.5928443839 1.1526243985
| 25> H 0.7138921312 -0.650771706 1.3189210558
| 26> H 0.815086578 -1.7054511989 -0.09256396
| 27> H 2.6614714378 0.6522094861 0.5044364914
| 28> H 2.7250213632 -0.3351909394 -0.9563840593
| 29> H 3.0654917814 -1.0575269299 0.6164906832
| 30> *
| 31>
| 32>                          ****END OF INPUT****

CARTESIAN COORDINATES (ANGSTROEM)
---------------------------------
  C     -2.105293   -0.573959    0.648257
  C     -1.367562   -0.344472   -0.666612
  C      0.041076    0.253074   -0.522972
  C     -0.005457    1.647706    0.099692
  C      0.971306   -0.682528    0.258846
  C      2.446232   -0.331152    0.095241
  H     -1.562347   -1.268568    1.283256
  H     -2.240293    0.359470    1.187310
  H     -3.088467   -0.994553    0.449337
  H     -1.963538    0.325197   -1.291774
  H     -1.286703   -1.297628   -1.195526
  H      0.444053    0.351227   -1.538894
  H     -0.740491    2.265613   -0.411321
  H      0.961598    2.136487    0.017374
  H     -0.270016    1.592844    1.152624
  H      0.713892   -0.650772    1.318921
  H      0.815087   -1.705451   -0.092564
  H      2.661471    0.652209    0.504436
  H      2.725021   -0.335191   -0.956384
  H      3.065492   -1.057527    0.616491

 Total Charge           Charge          ....    0
 Multiplicity           Mult            ....    1
 Number of Electrons    NEL             ....   50
 Basis Dimension        Dim             ....  184

ORBITAL ENERGIES
----------------

  NO   OCC          E(Eh)            E(eV)
   0   2.0000     -10.019903      -272.6554
   1   2.0000     -10.012496      -272.4539
   2   2.0000     -10.012051      -272.4418
   3   2.0000     -10.006237      -272.2835
   4   2.0000     -10.005551      -272.2649
   5   2.0000     -10.004002      -272.2227
   6   2.0000      -0.773071       -21.0363
   7   2.0000      -0.707296       -19.2465
   8   2.0000      -0.669969       -18.2308
   9   2.0000      -0.606131       -16.4937
  10   2.0000      -0.568020       -15.4566
  11   2.0000      -0.499552       -13.5935
  12   2.0000      -0.426742       -11.6122
  13   2.0000      -0.412492       -11.2245
  14   2.0000      -0.406003       -11.0479
  15   2.0000      -0.381204       -10.3731
  16   2.0000      -0.348842        -9.4925
  17   2.0000      -0.343562        -9.3488
  18   2.0000      -0.339552        -9.2397
  19   2.0000      -0.326369        -8.8810
  20   2.0000      -0.315931        -8.5969
  21   2.0000      -0.293718        -7.9925
  22   2.0000      -0.275390        -7.4937
  23   2.0000      -0.271696        -7.3932
  24   2.0000      -0.266273        -7.2457
  25   0.0000       0.090525         2.4633
  26   0.0000       0.115348         3.1388
  27   0.0000       0.123514         3.3610
  28   0.0000       0.133499         3.6327
  29   0.0000       0.138858         3.7785

MULLIKEN ATOMIC CHARGES
-----------------------
   0 C :   -0.537492
   1 C :   -0.261080
   2 C :   -0.002207
   3 C :   -0.579596
   4 C :   -0.271940
   5 C :   -0.539463
   6 H :    0.162615
   7 H :    0.162462
   8 H :    0.154906
   9 H :    0.150869
  10 H :    0.149431
  11 H :    0.151887
  12 H :    0.156733
  13 H :    0.160432
  14 H :    0.168810
  15 H :    0.153112
  16 H :    0.151521
  17 H :    0.157908
  18 H :    0.155837
  19 H :    0.155257
Sum of atomic charges:   -0.0000000

LOEWDIN ATOMIC CHARGES
----------------------
   0 C :   -0.433372
   1 C :   -0.315415
   2 C :   -0.244368
   3 C :   -0.425801
   4 C :   -0.314216
   5 C :   -0.431215
   6 H :    0.153209
   7 H :    0.153275
   8 H :    0.152450
   9 H :    0.154572
  10 H :    0.154832
  11 H :    0.158628
  12 H :    0.156678
  13 H :    0.155589
  14 H :    0.155750
  15 H :    0.156208
  16 H :    0.156599
  17 H :    0.152189
  18 H :    0.152496
  19 H :    0.151911

  Mayer bond orders larger than 0.100000
B(  0-C ,  1-C ) :   0.8728 B(  0-C ,  6-H ) :   0.9769 B(  0-C ,  7-H ) :   0.9797
B(  0-C ,  8-H ) :   0.9665 B(  1-C ,  2-C ) :   0.8965 B(  1-C ,  9-H ) :   0.9840
B(  1-C , 10-H ) :   0.9821 B(  2-C ,  3-C ) :   0.8892 B(  2-C ,  4-C ) :   0.8905
B(  2-C , 11-H ) :   0.9745 B(  3-C , 12-H ) :   0.9698 B(  3-C , 13-H ) :   0.9696
B(  3-C , 14-H ) :   0.9831 B(  4-C ,  5-C ) :   0.8912 B(  4-C , 15-H ) :   0.9674
B(  4-C , 16-H ) :   0.9710 B(  5-C , 17-H ) :   0.9807 B(  5-C , 18-H ) :   0.9853
B(  5-C , 19-H ) :   0.9710

Dispersion correction           -0.005132524
FINAL SINGLE POINT ENERGY      -236.983184089433

DIPOLE MOMENT
-------------

Method             : SCF
Type of density    : Electron Density
Multiplicity       :   1
Irrep              :   0
Energy             :  -236.9876234916075362 Eh
Relativity type    :
Basis              : AO
                                X                 Y                 Z
Electronic contribution:     -0.217352074      -0.374392447      -1.021058704
Nuclear contribution   :      0.220241932       0.350268660       0.978772102
                        -----------------------------------------
Total Dipole Moment    :      0.002889858      -0.024123787      -0.042286602
                        -----------------------------------------
Magnitude (a.u.)       :      0.048769510
Magnitude (Debye)      :      0.123962243

Rotational constants in cm-1:             0.175707             0.071268             0.060878
Rotational constants in MHz :          5267.561022          2136.550072          1825.071599

                             ****ORCA TERMINATED NORMALLY****
TOTAL RUN TIME: 0 days 0 hours 0 minutes 19 seconds 270 msec
