                         Program Version 6.0.0  -   RELEASE  -
|  1> ! r2scan-3c def2/J RI DEFGRID2 scfconv6 printgap
|  2> %output
|  3>     printlevel normal
|  4> end
|  5> * xyz 0 1
|  6> C -0.2087299944 -2.5570211678 0.0194571768
|  7> C 0.0432422831 -1.0784001902 -0.2009989055
|  8> O 1.2750126183 -0.7498412148 0.4183647632
|  9> C 1.7710964932 0.4866700413 0.2452892527
| 10> O 1.2040612299 1.3337800913 -0.4075557525
| 11> C 3.0810897974 0.6489707778 0.9428102572
| 12> O -0.9739536239 -0.2995325333 0.4164028113
| 13> C -1.7591985544 0.4764883297 -0.3496390654
| 14> O -1.7051698377 0.4814133063 -1.5569280458
| 15> C -2.7138639263 1.2636735974 0.4867011094
| 16> H -0.2867268218 -2.7468706209 1.0856244917
| 17> H 0.6200593039 -3.1223648997 -0.3927488745
| 18> H -1.1316317739 -2.8424621266 -0.4748287731
| 19> H 0.0815347841 -0.8053288334 -1.2672686366
| 20> H 3.8627443603 0.7351191778 0.1911406725
| 21> H 3.07078314 1.570812314 1.5176348465
| 22> H 3.2702259443 -0.208025429 1.5791764494
| 23> H -3.0809392829 2.1105467008 -0.0835108084
| 24> H -3.5503911579 0.6188949074 0.7486355965
| 25> H -2.2259426451 1.5853274299 1.4009014898
| 26> *
| 27>
| 28>                          ****END OF INPUT****

CARTESIAN COORDINATES (ANGSTROEM)
---------------------------------
  C     -0.208730   -2.557021    0.019457
  C      0.043242   -1.078400   -0.200999
  O      1.275013   -0.749841    0.418365
  C      1.771096    0.486670    0.245289
  O      1.204061    1.333780   -0.407556
  C      3.081090    0.648971    0.942810
  O     -0.973954   -0.299533    0.416403
  C     -1.759199    0.476488   -0.349639
  O     -1.705170    0.481413   -1.556928
  C     -2.713864    1.263674    0.486701
  H     -0.286727   -2.746871    1.085624
  H      0.620059   -3.122365   -0.392749
  H     -1.131632   -2.842462   -0.474829
  H      0.081535   -0.805329   -1.267269
  H      3.862744    0.735119    0.191141
  H      3.070783    1.570812    1.517635
  H      3.270226   -0.208025    1.579176
  H     -3.080939    2.110547   -0.083511
  H     -3.550391    0.618895    0.748636
  H     -2.225943    1.585327    1.400901

 Total Charge           Charge          ....    0
 Multiplicity           Mult            ....    1
 Number of Electrons    NEL             ....   78
 Basis Dimension        Dim             ....  260

ORBITAL ENERGIES
----------------

  NO   OCC          E(Eh)            E(eV)
   0   2.0000     -19.007872      -517.2305
   1   2.0000     -19.001484      -517.0567
   2   2.0000     -18.937814      -515.3241
   3   2.0000     -18.931509      -515.1526
   4   2.0000     -10.165924      -276.6289
   5   2.0000     -10.160438      -276.4796
   6   2.0000     -10.155962      -276.3578
   7   2.0000     -10.046245      -273.3722
   8   2.0000     -10.040726      -273.2220
   9   2.0000     -10.040526      -273.2166
  10   2.0000      -1.100296       -29.9406
  11   2.0000      -1.062197       -28.9038
  12   2.0000      -0.992417       -27.0050
  13   2.0000      -0.975091       -26.5336
  14   2.0000      -0.773603       -21.0508
  15   2.0000      -0.726892       -19.7797
  16   2.0000      -0.712175       -19.3793
  17   2.0000      -0.632111       -17.2006
  18   2.0000      -0.585620       -15.9355
  19   2.0000      -0.536255       -14.5922
  20   2.0000      -0.471953       -12.8425
  21   2.0000      -0.462280       -12.5793
  22   2.0000      -0.455869       -12.4048
  23   2.0000      -0.441893       -12.0245
  24   2.0000      -0.434289       -11.8176
  25   2.0000      -0.426658       -11.6100
  26   2.0000      -0.397942       -10.8286
  27   2.0000      -0.393220       -10.7001
  28   2.0000      -0.386262       -10.5107
  29   2.0000      -0.376264       -10.2387
  30   2.0000      -0.375067       -10.2061
  31   2.0000      -0.365762        -9.9529
  32   2.0000      -0.346013        -9.4155
  33   2.0000      -0.342892        -9.3306
  34   2.0000      -0.316253        -8.6057
  35   2.0000      -0.292394        -7.9564
  36   2.0000      -0.280547        -7.6341
  37   2.0000      -0.245235        -6.6732
  38   2.0000      -0.238165        -6.4808
  39   0.0000      -0.027531        -0.7492
  40   0.0000      -0.017394        -0.4733
  41   0.0000       0.072797         1.9809
  42   0.0000       0.091195         2.4815
  43   0.0000       0.106052         2.8858

MULLIKEN ATOMIC CHARGES
-----------------------
   0 C :   -0.484247
   1 C :    0.022397
   2 O :   -0.138359
   3 C :    0.433096
   4 O :   -0.392582
   5 C :   -0.539949
   6 O :   -0.112542
   7 C :    0.430853
   8 O :   -0.412745
   9 C :   -0.535636
  10 H :    0.168643
  11 H :    0.160117
  12 H :    0.161717
  13 H :    0.186680
  14 H :    0.177926
  15 H :    0.176036
  16 H :    0.175000
  17 H :    0.179263
  18 H :    0.172055
  19 H :    0.172277
Sum of atomic charges:   -0.0000000

LOEWDIN ATOMIC CHARGES
----------------------
   0 C :   -0.338056
   1 C :    0.318579
   2 O :   -0.530307
   3 C :    0.368913
   4 O :   -0.395549
   5 C :   -0.332164
   6 O :   -0.524898
   7 C :    0.367340
   8 O :   -0.417544
   9 C :   -0.331124
  10 H :    0.171706
  11 H :    0.169405
  12 H :    0.169211
  13 H :    0.226319
  14 H :    0.183762
  15 H :    0.180739
  16 H :    0.176116
  17 H :    0.177903
  18 H :    0.181674
  19 H :    0.177975

  Mayer bond orders larger than 0.100000
B(  0-C ,  1-C ) :   0.9233 B(  0-C , 10-H ) :   0.9785 B(  0-C , 11-H ) :   0.9686
B(  0-C , 12-H ) :   0.9679 B(  1-C ,  2-O ) :   0.9236 B(  1-C ,  6-O ) :   0.7815
B(  1-C , 13-H ) :   0.9408 B(  2-O ,  3-C ) :   0.9948 B(  3-C ,  4-O ) :   1.8002
B(  3-C ,  5-C ) :   0.9170 B(  5-C , 14-H ) :   0.9455 B(  5-C , 15-H ) :   0.9617
B(  5-C , 16-H ) :   0.9901 B(  6-O ,  7-C ) :   0.9754 B(  7-C ,  8-O ) :   1.8600
B(  7-C ,  9-C ) :   0.9394 B(  9-C , 17-H ) :   0.9852 B(  9-C , 18-H ) :   0.9368
B(  9-C , 19-H ) :   0.9730

Dispersion correction           -0.005612497
FINAL SINGLE POINT ENERGY      -535.491411129685

DIPOLE MOMENT
-------------

Method             : SCF
Type of density    : Electron Density
Multiplicity       :   1
Irrep              :   0
Energy             :  -535.5003648032864021 Eh
Relativity type    :
Basis              : AO
                                X                 Y                 Z
Electronic contribution:     -0.259669762       2.170656941      -2.960840233
Nuclear contribution   :      0.587816730      -2.901063474       4.021856272
                        -----------------------------------------
Total Dipole Moment    :      0.328146967      -0.730406533       1.061016039
                        -----------------------------------------
Magnitude (a.u.)       :      1.329258880
Magnitude (Debye)      :      3.378707562

Rotational constants in cm-1:             0.064543             0.031956             0.025218
Rotational constants in MHz :          1934.937907           958.013727           756.023444

                             ****ORCA TERMINATED NORMALLY****
TOTAL RUN TIME: 0 days 0 hours 0 minutes 34 seconds 789 msec
