                         Program Version 6.0.0  -   RELEASE  -
|  1> ! r2scan-3c def2/J RI DEFGRID2 scfconv6 printgap
|  2> %output
|  3>     printlevel normal
|  4> end
|  5> %cpcm
|  6>     smd true
|  7>     smdsolvent "water"
|  8> end
|  9> * xyz 0 1
| 10> C -0.2087299944 -2.5570211678 0.0194571768
| 11> C 0.0432422831 -1.0784001902 -0.2009989055
| 12> O 1.2750126183 -0.7498412148 0.4183647632
| 13> C 1.7710964932 0.4866700413 0.2452892527
| 14> O 1.2040612299 1.3337800913 -0.4075557525
| 15> C 3.0810897974 0.6489707778 0.9428102572
| 16> O -0.9739536239 -0.2995325333 0.4164028113
| 17> C -1.7591985544 0.4764883297 -0.3496390654
| 18> O -1.7051698377 0.4814133063 -1.5569280458
| 19> C -2.7138639263 1.2636735974 0.4867011094
| 20> H -0.2867268218 -2.7468706209 1.0856244917
| 21> H 0.6200593039 -3.1223648997 -0.3927488745
| 22> H -1.1316317739 -2.8424621266 -0.4748287731
| 23> H 0.0815347841 -0.8053288334 -1.2672686366
| 24> H 3.8627443603 0.7351191778 0.1911406725
| 25> H 3.07078314 1.570812314 1.5176348465
| 26> H 3.2702259443 -0.208025429 1.5791764494
| 27> H -3.0809392829 2.1105467008 -0.0835108084
| 28> H -3.5503911579 0.6188949074 0.7486355965
| 29> H -2.2259426451 1.5853274299 1.4009014898
| 30> *
| 31>
| 32>                          ****END OF INPUT****

CARTESIAN COORDINATES (ANGSTROEM)
---------------------------------
  C     -0.208730   -2.557021    0.019457
  C      0.043242   -1.078400   -0.200999
  O      1.275013   -0.749841    0.418365
  C      1.771096    0.486670    0.245289
  O      1.204061    1.333780   -0.407556
  C      3.081090    0.648971    0.942810
  O     -0.973954   -0.299533    0.416403
  C     -1.759199    0.476488   -0.349639
  O     -1.705170    0.481413   -1.556928
  C     -2.713864    1.263674    0.486701
  H     -0.286727   -2.746871    1.085624
  H      0.620059   -3.122365   -0.392749
  H     -1.131632   -2.842462   -0.474829
  H      0.081535   -0.805329   -1.267269
  H      3.862744    0.735119    0.191141
  H      3.070783    1.570812    1.517635
  H      3.270226   -0.208025    1.579176
  H     -3.080939    2.110547   -0.083511
  H     -3.550391    0.618895    0.748636
  H     -2.225943    1.585327    1.400901

 Total Charge           Charge          ....    0
 Multiplicity           Mult            ....    1
 Number of Electrons    NEL             ....   78
 Basis Dimension        Dim             ....  260

ORBITAL ENERGIES
----------------

  NO   OCC          E(Eh)            E(eV)
   0   2.0000     -19.012678      -517.3613
   1   2.0000     -19.009976      -517.2877
   2   2.0000     -18.951409      -515.6941
   3   2.0000     -18.950282      -515.6634
   4   2.0000     -10.174386      -276.8591
   5   2.0000     -10.174019      -276.8491
   6   2.0000     -10.154487      -276.3176
   7   2.0000     -10.033360      -273.0216
   8   2.0000     -10.033273      -273.0192
   9   2.0000     -10.027114      -272.8517
  10   2.0000      -1.107306       -30.1313
  11   2.0000      -1.072387       -29.1811
  12   2.0000      -1.007051       -27.4033
  13   2.0000      -0.989087       -26.9144
  14   2.0000      -0.771404       -20.9910
  15   2.0000      -0.721945       -19.6451
  16   2.0000      -0.703977       -19.1562
  17   2.0000      -0.626668       -17.0525
  18   2.0000      -0.586883       -15.9699
  19   2.0000      -0.538442       -14.6517
  20   2.0000      -0.475481       -12.9385
  21   2.0000      -0.471314       -12.8251
  22   2.0000      -0.466878       -12.7044
  23   2.0000      -0.444816       -12.1041
  24   2.0000      -0.437193       -11.8966
  25   2.0000      -0.431984       -11.7549
  26   2.0000      -0.392899       -10.6913
  27   2.0000      -0.383219       -10.4279
  28   2.0000      -0.380405       -10.3513
  29   2.0000      -0.372147       -10.1266
  30   2.0000      -0.365676        -9.9505
  31   2.0000      -0.359002        -9.7689
  32   2.0000      -0.348340        -9.4788
  33   2.0000      -0.346802        -9.4370
  34   2.0000      -0.320880        -8.7316
  35   2.0000      -0.302657        -8.2357
  36   2.0000      -0.291741        -7.9387
  37   2.0000      -0.260727        -7.0947
  38   2.0000      -0.255487        -6.9522
  39   0.0000      -0.033087        -0.9003
  40   0.0000      -0.028518        -0.7760
  41   0.0000       0.075260         2.0479
  42   0.0000       0.096729         2.6321
  43   0.0000       0.114362         3.1119

MULLIKEN ATOMIC CHARGES
-----------------------
   0 C :   -0.530027
   1 C :    0.021293
   2 O :   -0.144648
   3 C :    0.484535
   4 O :   -0.473482
   5 C :   -0.575763
   6 O :   -0.121779
   7 C :    0.462948
   8 O :   -0.499285
   9 C :   -0.567065
  10 H :    0.184331
  11 H :    0.183275
  12 H :    0.181278
  13 H :    0.201345
  14 H :    0.206821
  15 H :    0.198458
  16 H :    0.193109
  17 H :    0.190737
  18 H :    0.209103
  19 H :    0.194815
Sum of atomic charges:   -0.0000000

LOEWDIN ATOMIC CHARGES
----------------------
   0 C :   -0.337196
   1 C :    0.321822
   2 O :   -0.525054
   3 C :    0.382730
   4 O :   -0.455118
   5 C :   -0.328289
   6 O :   -0.524611
   7 C :    0.375114
   8 O :   -0.479437
   9 C :   -0.328580
  10 H :    0.176803
  11 H :    0.178168
  12 H :    0.176960
  13 H :    0.227955
  14 H :    0.195585
  15 H :    0.189919
  16 H :    0.184937
  17 H :    0.182830
  18 H :    0.197399
  19 H :    0.188062

  Mayer bond orders larger than 0.100000
B(  0-C ,  1-C ) :   0.9321 B(  0-C , 10-H ) :   0.9725 B(  0-C , 11-H ) :   0.9611
B(  0-C , 12-H ) :   0.9594 B(  1-C ,  2-O ) :   0.9056 B(  1-C ,  6-O ) :   0.7632
B(  1-C , 13-H ) :   0.9333 B(  2-O ,  3-C ) :   1.0182 B(  3-C ,  4-O ) :   1.7329
B(  3-C ,  5-C ) :   0.9168 B(  5-C , 14-H ) :   0.9320 B(  5-C , 15-H ) :   0.9508
B(  5-C , 16-H ) :   0.9791 B(  6-O ,  7-C ) :   1.0001 B(  7-C ,  8-O ) :   1.7839
B(  7-C ,  9-C ) :   0.9455 B(  9-C , 17-H ) :   0.9757 B(  9-C , 18-H ) :   0.9212
B(  9-C , 19-H ) :   0.9600

Dispersion correction           -0.005612497
FINAL SINGLE POINT ENERGY      -535.503210363029

DIPOLE MOMENT
-------------

Method             : SCF
Type of density    : Electron Density
Multiplicity       :   1
Irrep              :   0
Energy             :  -535.5121640366306792 Eh
Relativity type    :
Basis              : AO
                                X                 Y                 Z
Electronic contribution:     -0.141827585       1.813312897      -2.501975925
Nuclear contribution   :      0.587816730      -2.901063474       4.021856272
                        -----------------------------------------
Total Dipole Moment    :      0.445989145      -1.087750577       1.519880346
                        -----------------------------------------
Magnitude (a.u.)       :      1.921495225
Magnitude (Debye)      :      4.884052721

Rotational constants in cm-1:             0.064543             0.031956             0.025218
Rotational constants in MHz :          1934.937907           958.013727           756.023444

                             ****ORCA TERMINATED NORMALLY****
TOTAL RUN TIME: 0 days 0 hours 0 minutes 40 seconds 818 msec
