                         Program Version 6.0.0  -   RELEASE  -
|  1> ! pbe def2-sv(p) def2/J RI DEFGRID1 loosescf d4 GCP(DFT/SV(P)) printgap
|  2> %output
|  3>     printlevel normal
|  4> end
|  5> * xyz 0 1
|  6> C 2.5258224796 -0.0679914429 0.0593039493
|  7> C 1.2653940184 0.7683844584 -0.1224609643
|  8> C 1.21109e-05 -0.0482695379 -0.0001873189
|  9> O -2.62204e-05 -1.2621074556 -0.0002461206
| 10> C -1.265321964 0.7684359446 0.1221221205
| 11> C -2.5258754706 -0.0679778731 -0.0585656859
| 12> H 2.5335276336 -0.8916745872 -0.6505891028
| 13> H 3.4121582329 0.5404689334 -0.0947993363
| 14> H 2.5579433896 -0.4903669703 1.0608554928
| 15> H 1.2319613385 1.5839364486 0.6007548567
| 16> H 1.2588322606 1.2156847024 -1.1196225018
| 17> H -1.2321599485 1.5834600749 -0.6017037799
| 18> H -1.258332036 1.2164772783 1.1189394354
| 19> H -3.4121279461 0.540675594 0.095227941
| 20> H -2.5334585004 -0.8910404397 0.6520319185
| 21> H -2.5582996953 -0.4912514808 -1.0597155783
| 22> *
| 23>
| 24>                          ****END OF INPUT****

CARTESIAN COORDINATES (ANGSTROEM)
---------------------------------
  C      2.525822   -0.067991    0.059304
  C      1.265394    0.768384   -0.122461
  C      0.000012   -0.048270   -0.000187
  O     -0.000026   -1.262107   -0.000246
  C     -1.265322    0.768436    0.122122
  C     -2.525875   -0.067978   -0.058566
  H      2.533528   -0.891675   -0.650589
  H      3.412158    0.540469   -0.094799
  H      2.557943   -0.490367    1.060855
  H      1.231961    1.583936    0.600755
  H      1.258832    1.215685   -1.119623
  H     -1.232160    1.583460   -0.601704
  H     -1.258332    1.216477    1.118939
  H     -3.412128    0.540676    0.095228
  H     -2.533459   -0.891040    0.652032
  H     -2.558300   -0.491251   -1.059716

 Total Charge           Charge          ....    0
 Multiplicity           Mult            ....    1
 Number of Electrons    NEL             ....   48
 Basis Dimension        Dim             ....  104

ORBITAL ENERGIES
----------------

  NO   OCC          E(Eh)            E(eV)
   0   2.0000     -18.741344      -509.9779
   1   2.0000      -9.969500      -271.2839
   2   2.0000      -9.894193      -269.2347
   3   2.0000      -9.894185      -269.2345
   4   2.0000      -9.875653      -268.7302
   5   2.0000      -9.875643      -268.7299
   6   2.0000      -0.937463       -25.5097
   7   2.0000      -0.714234       -19.4353
   8   2.0000      -0.688620       -18.7383
   9   2.0000      -0.601273       -16.3615
  10   2.0000      -0.545818       -14.8525
  11   2.0000      -0.457431       -12.4473
  12   2.0000      -0.432678       -11.7738
  13   2.0000      -0.428910       -11.6712
  14   2.0000      -0.399313       -10.8659
  15   2.0000      -0.375919       -10.2293
  16   2.0000      -0.358766        -9.7625
  17   2.0000      -0.335121        -9.1191
  18   2.0000      -0.322321        -8.7708
  19   2.0000      -0.313890        -8.5414
  20   2.0000      -0.308755        -8.4016
  21   2.0000      -0.305388        -8.3100
  22   2.0000      -0.303439        -8.2570
  23   2.0000      -0.198158        -5.3922
  24   0.0000      -0.047396        -1.2897
  25   0.0000       0.027885         0.7588
  26   0.0000       0.062522         1.7013
  27   0.0000       0.078197         2.1279
  28   0.0000       0.082149         2.2354

MULLIKEN ATOMIC CHARGES
-----------------------
   0 C :   -0.254037
   1 C :   -0.188625
   2 C :   -0.012082
   3 O :   -0.171885
   4 C :   -0.188663
   5 C :   -0.253996
   6 H :    0.113737
   7 H :    0.099108
   8 H :    0.106428
   9 H :    0.102265
  10 H :    0.113113
  11 H :    0.102285
  12 H :    0.113102
  13 H :    0.099106
  14 H :    0.113710
  15 H :    0.106433
Sum of atomic charges:    0.0000000

LOEWDIN ATOMIC CHARGES
----------------------
   0 C :   -0.338369
   1 C :   -0.263470
   2 C :    0.048253
   3 O :   -0.126929
   4 C :   -0.263474
   5 C :   -0.338373
   6 H :    0.126409
   7 H :    0.119156
   8 H :    0.123355
   9 H :    0.131360
  10 H :    0.140895
  11 H :    0.131383
  12 H :    0.140881
  13 H :    0.119157
  14 H :    0.126403
  15 H :    0.123361

  Mayer bond orders larger than 0.100000
B(  0-C ,  1-C ) :   1.1602 B(  0-C ,  6-H ) :   0.9482 B(  0-C ,  7-H ) :   0.9495
B(  0-C ,  8-H ) :   0.9586 B(  1-C ,  2-C ) :   1.0031 B(  1-C ,  9-H ) :   0.9120
B(  1-C , 10-H ) :   0.8932 B(  2-C ,  3-O ) :   2.1846 B(  2-C ,  4-C ) :   1.0031
B(  4-C ,  5-C ) :   1.1602 B(  4-C , 11-H ) :   0.9120 B(  4-C , 12-H ) :   0.8932
B(  5-C , 13-H ) :   0.9495 B(  5-C , 14-H ) :   0.9482 B(  5-C , 15-H ) :   0.9586

Dispersion correction           -0.010976928
FINAL SINGLE POINT ENERGY      -271.145327935215

DIPOLE MOMENT
-------------

Method             : SCF
Type of density    : Electron Density
Multiplicity       :   1
Irrep              :   0
Energy             :  -271.2002248365744208 Eh
Relativity type    :
Basis              : AO
                                X                 Y                 Z
Electronic contribution:      0.000004470      -2.696279680      -0.001325142
Nuclear contribution   :      0.000041574       3.655459834       0.001290403
                        -----------------------------------------
Total Dipole Moment    :      0.000046044       0.959180154      -0.000034739
                        -----------------------------------------
Magnitude (a.u.)       :      0.959180155
Magnitude (Debye)      :      2.438042201

Rotational constants in cm-1:             0.293897             0.066260             0.056550
Rotational constants in MHz :          8810.812200          1986.434308          1695.331401

                             ****ORCA TERMINATED NORMALLY****
TOTAL RUN TIME: 0 days 0 hours 0 minutes 5 seconds 700 msec
