                         Program Version 6.0.0  -   RELEASE  -
|  1> ! pbe def2-sv(p) def2/J RI DEFGRID1 loosescf d4 GCP(DFT/SV(P)) printgap
|  2> %output
|  3>     printlevel normal
|  4> end
|  5> * xyz 0 1
|  6> C -3.1818268974 0.5728851407 0.0183963484
|  7> C -1.7718093702 0.3184379898 -0.4981104717
|  8> C -0.8191168092 -0.0547319065 0.6460760564
|  9> C 0.5405379649 -0.3828425824 0.0924885819
| 10> O 0.7958154306 -1.3415077161 -0.6064436539
| 11> O 1.4470777488 0.5254234809 0.4355998959
| 12> C 2.7807680673 0.3488129421 -0.0502625195
| 13> H -3.1823490613 1.3876816559 0.7377730819
| 14> H -3.8397156987 0.8379518585 -0.8046183116
| 15> H -3.5765045992 -0.3164916971 0.5029113377
| 16> H -1.3964777184 1.2127492824 -0.9994783725
| 17> H -1.7806562738 -0.4959018833 -1.2253702673
| 18> H -1.2039731344 -0.9387681864 1.1561647103
| 19> H -0.7254389235 0.7693433717 1.3517945862
| 20> H 3.3300084228 1.226462319 0.2750676584
| 21> H 2.7737015446 0.2682523446 -1.1378265768
| 22> H 3.2112728062 -0.5607731333 0.3698419096
| 23> *
| 24>
| 25>                          ****END OF INPUT****

CARTESIAN COORDINATES (ANGSTROEM)
---------------------------------
  C     -3.181827    0.572885    0.018396
  C     -1.771809    0.318438   -0.498110
  C     -0.819117   -0.054732    0.646076
  C      0.540538   -0.382843    0.092489
  O      0.795815   -1.341508   -0.606444
  O      1.447078    0.525423    0.435600
  C      2.780768    0.348813   -0.050263
  H     -3.182349    1.387682    0.737773
  H     -3.839716    0.837952   -0.804618
  H     -3.576505   -0.316492    0.502911
  H     -1.396478    1.212749   -0.999478
  H     -1.780656   -0.495902   -1.225370
  H     -1.203973   -0.938768    1.156165
  H     -0.725439    0.769343    1.351795
  H      3.330008    1.226462    0.275068
  H      2.773702    0.268252   -1.137827
  H      3.211273   -0.560773    0.369842

 Total Charge           Charge          ....    0
 Multiplicity           Mult            ....    1
 Number of Electrons    NEL             ....   56
 Basis Dimension        Dim             ....  118

ORBITAL ENERGIES
----------------

  NO   OCC          E(Eh)            E(eV)
   0   2.0000     -18.799119      -511.5500
   1   2.0000     -18.730132      -509.6728
   2   2.0000     -10.002912      -272.1931
   3   2.0000      -9.941124      -270.5117
   4   2.0000      -9.896299      -269.2920
   5   2.0000      -9.894070      -269.2313
   6   2.0000      -9.879795      -268.8429
   7   2.0000      -1.004475       -27.3332
   8   2.0000      -0.906909       -24.6782
   9   2.0000      -0.725971       -19.7547
  10   2.0000      -0.672923       -18.3112
  11   2.0000      -0.620971       -16.8975
  12   2.0000      -0.537131       -14.6161
  13   2.0000      -0.505229       -13.7480
  14   2.0000      -0.447851       -12.1866
  15   2.0000      -0.435187       -11.8420
  16   2.0000      -0.427039       -11.6203
  17   2.0000      -0.403110       -10.9692
  18   2.0000      -0.381441       -10.3795
  19   2.0000      -0.373119       -10.1531
  20   2.0000      -0.352031        -9.5793
  21   2.0000      -0.335780        -9.1370
  22   2.0000      -0.320898        -8.7321
  23   2.0000      -0.302386        -8.2283
  24   2.0000      -0.296636        -8.0719
  25   2.0000      -0.293940        -7.9985
  26   2.0000      -0.256553        -6.9812
  27   2.0000      -0.215876        -5.8743
  28   0.0000      -0.018986        -0.5166
  29   0.0000       0.041039         1.1167
  30   0.0000       0.058444         1.5903
  31   0.0000       0.078006         2.1227
  32   0.0000       0.082062         2.2330

MULLIKEN ATOMIC CHARGES
-----------------------
   0 C :   -0.246234
   1 C :   -0.234347
   2 C :   -0.129291
   3 C :    0.107035
   4 O :   -0.215879
   5 O :   -0.237606
   6 C :   -0.108722
   7 H :    0.098457
   8 H :    0.107180
   9 H :    0.100231
  10 H :    0.094971
  11 H :    0.108791
  12 H :    0.104552
  13 H :    0.092187
  14 H :    0.120707
  15 H :    0.119546
  16 H :    0.118421
Sum of atomic charges:   -0.0000000

LOEWDIN ATOMIC CHARGES
----------------------
   0 C :   -0.339324
   1 C :   -0.225145
   2 C :   -0.244371
   3 C :    0.035057
   4 O :   -0.172868
   5 O :   -0.074415
   6 C :   -0.203999
   7 H :    0.117758
   8 H :    0.121931
   9 H :    0.118923
  10 H :    0.118350
  11 H :    0.123746
  12 H :    0.137610
  13 H :    0.127166
  14 H :    0.120168
  15 H :    0.119654
  16 H :    0.119759

  Mayer bond orders larger than 0.100000
B(  0-C ,  1-C ) :   1.1590 B(  0-C ,  7-H ) :   0.9527 B(  0-C ,  8-H ) :   0.9521
B(  0-C ,  9-H ) :   0.9538 B(  1-C ,  2-C ) :   1.1276 B(  1-C , 10-H ) :   0.9293
B(  1-C , 11-H ) :   0.9235 B(  2-C ,  3-C ) :   1.0254 B(  2-C , 12-H ) :   0.8961
B(  2-C , 13-H ) :   0.9063 B(  3-C ,  4-O ) :   2.0501 B(  3-C ,  5-O ) :   1.2219
B(  5-O ,  6-C ) :   0.9391 B(  6-C , 14-H ) :   0.9592 B(  6-C , 15-H ) :   0.9502
B(  6-C , 16-H ) :   0.9534

Dispersion correction           -0.011773745
FINAL SINGLE POINT ENERGY      -346.239879377387

DIPOLE MOMENT
-------------

Method             : SCF
Type of density    : Electron Density
Multiplicity       :   1
Irrep              :   0
Energy             :  -346.3044757102621247 Eh
Relativity type    :
Basis              : AO
                                X                 Y                 Z
Electronic contribution:      6.064086181      -2.553299026       0.067931906
Nuclear contribution   :     -5.961759366       3.168762069       0.209736526
                        -----------------------------------------
Total Dipole Moment    :      0.102326815       0.615463043       0.277668432
                        -----------------------------------------
Magnitude (a.u.)       :      0.682909432
Magnitude (Debye)      :      1.735817829

Rotational constants in cm-1:             0.231146             0.041793             0.038502
Rotational constants in MHz :          6929.568063          1252.925689          1154.260820

                             ****ORCA TERMINATED NORMALLY****
TOTAL RUN TIME: 0 days 0 hours 0 minutes 9 seconds 718 msec
