                         Program Version 6.0.0  -   RELEASE  -
|  1> ! pbe def2-sv(p) def2/J RI DEFGRID1 loosescf d4 GCP(DFT/SV(P)) printgap
|  2> %output
|  3>     printlevel normal
|  4> end
|  5> * xyz 0 1
|  6> C 1.6501099566 -0.5115058344 1.7225115374
|  7> C 2.2571004719 -0.1890655256 0.3906545158
|  8> C 3.5378053683 -0.4079077214 0.1350325398
|  9> C 1.3440924836 0.3939890614 -0.6629054357
| 10> H 1.9735700827 0.7786102801 -1.4693942759
| 11> C 0.4211823031 -0.7037277399 -1.2351510066
| 12> C -1.032976207 -0.2393845216 -1.3817289104
| 13> C -1.5047067707 0.2931620758 -0.0636889567
| 14> C -0.7083852592 1.1729223615 0.5695340351
| 15> C 0.5453793792 1.5953084199 -0.0959170937
| 16> C -2.7416081744 -0.1742915553 0.5185143566
| 17> O -3.4962716599 -0.9956106695 0.0260392853
| 18> H 1.4711733576 0.4025545018 2.2866018949
| 19> H 0.6952423372 -1.0198118551 1.6061314267
| 20> H 2.3166504914 -1.143257896 2.3033464082
| 21> H 3.9801624375 -0.1655416045 -0.8163361444
| 22> H 4.1977808103 -0.8435140947 0.8660267749
| 23> H 0.7955878198 -1.0300164953 -2.2048568876
| 24> H 0.434115365 -1.573405902 -0.5757971654
| 25> H -1.0907775151 0.5474463824 -2.1378785597
| 26> H -1.6707811664 -1.0661500669 -1.6970719521
| 27> H -0.9693312983 1.5769264175 1.5360786148
| 28> H 0.2696124175 2.228667486 -0.9444080222
| 29> H 1.1815475491 2.181588763 0.5651229976
| 30> H -2.9873920056 0.278459508 1.4982446611
| 31> *
| 32>
| 33>                          ****END OF INPUT****

CARTESIAN COORDINATES (ANGSTROEM)
---------------------------------
  C      1.650110   -0.511506    1.722512
  C      2.257100   -0.189066    0.390655
  C      3.537805   -0.407908    0.135033
  C      1.344092    0.393989   -0.662905
  H      1.973570    0.778610   -1.469394
  C      0.421182   -0.703728   -1.235151
  C     -1.032976   -0.239385   -1.381729
  C     -1.504707    0.293162   -0.063689
  C     -0.708385    1.172922    0.569534
  C      0.545379    1.595308   -0.095917
  C     -2.741608   -0.174292    0.518514
  O     -3.496272   -0.995611    0.026039
  H      1.471173    0.402555    2.286602
  H      0.695242   -1.019812    1.606131
  H      2.316650   -1.143258    2.303346
  H      3.980162   -0.165542   -0.816336
  H      4.197781   -0.843514    0.866027
  H      0.795588   -1.030016   -2.204857
  H      0.434115   -1.573406   -0.575797
  H     -1.090778    0.547446   -2.137879
  H     -1.670781   -1.066150   -1.697072
  H     -0.969331    1.576926    1.536079
  H      0.269612    2.228667   -0.944408
  H      1.181548    2.181589    0.565123
  H     -2.987392    0.278460    1.498245

 Total Charge           Charge          ....    0
 Multiplicity           Mult            ....    1
 Number of Electrons    NEL             ....   82
 Basis Dimension        Dim             ....  182

ORBITAL ENERGIES
----------------

  NO   OCC          E(Eh)            E(eV)
   0   2.0000     -18.742138      -509.9995
   1   2.0000      -9.962119      -271.0830
   2   2.0000      -9.919247      -269.9164
   3   2.0000      -9.910132      -269.6684
   4   2.0000      -9.907945      -269.6089
   5   2.0000      -9.904920      -269.5266
   6   2.0000      -9.903152      -269.4785
   7   2.0000      -9.895116      -269.2598
   8   2.0000      -9.893324      -269.2110
   9   2.0000      -9.886987      -269.0386
  10   2.0000      -9.877493      -268.7802
  11   2.0000      -0.931253       -25.3407
  12   2.0000      -0.786751       -21.4086
  13   2.0000      -0.733539       -19.9606
  14   2.0000      -0.683399       -18.5962
  15   2.0000      -0.676226       -18.4010
  16   2.0000      -0.621957       -16.9243
  17   2.0000      -0.592216       -16.1150
  18   2.0000      -0.560796       -15.2600
  19   2.0000      -0.522211       -14.2101
  20   2.0000      -0.484687       -13.1890
  21   2.0000      -0.465183       -12.6583
  22   2.0000      -0.452434       -12.3113
  23   2.0000      -0.436967       -11.8905
  24   2.0000      -0.405765       -11.0414
  25   2.0000      -0.401562       -10.9270
  26   2.0000      -0.386304       -10.5119
  27   2.0000      -0.384803       -10.4710
  28   2.0000      -0.360599        -9.8124
  29   2.0000      -0.356948        -9.7130
  30   2.0000      -0.356187        -9.6924
  31   2.0000      -0.354385        -9.6433
  32   2.0000      -0.344871        -9.3844
  33   2.0000      -0.332933        -9.0596
  34   2.0000      -0.322039        -8.7631
  35   2.0000      -0.299622        -8.1531
  36   2.0000      -0.290504        -7.9050
  37   2.0000      -0.279071        -7.5939
  38   2.0000      -0.238739        -6.4964
  39   2.0000      -0.222127        -6.0444
  40   2.0000      -0.200889        -5.4665
  41   0.0000      -0.091379        -2.4865
  42   0.0000      -0.016956        -0.4614
  43   0.0000       0.021115         0.5746
  44   0.0000       0.023908         0.6506
  45   0.0000       0.041140         1.1195

MULLIKEN ATOMIC CHARGES
-----------------------
   0 C :   -0.197905
   1 C :   -0.081816
   2 C :   -0.230721
   3 C :   -0.124630
   4 H :    0.057594
   5 C :   -0.123385
   6 C :   -0.056725
   7 C :   -0.061153
   8 C :   -0.173045
   9 C :   -0.041938
  10 C :    0.034125
  11 O :   -0.174396
  12 H :    0.108321
  13 H :    0.114282
  14 H :    0.105411
  15 H :    0.084892
  16 H :    0.082834
  17 H :    0.088919
  18 H :    0.098916
  19 H :    0.087965
  20 H :    0.096293
  21 H :    0.066440
  22 H :    0.106024
  23 H :    0.102430
  24 H :    0.031268
Sum of atomic charges:   -0.0000000

LOEWDIN ATOMIC CHARGES
----------------------
   0 C :   -0.324846
   1 C :   -0.050665
   2 C :   -0.264628
   3 C :   -0.122038
   4 H :    0.123108
   5 C :   -0.205350
   6 C :   -0.211281
   7 C :   -0.105438
   8 C :   -0.085379
   9 C :   -0.212600
  10 C :   -0.007494
  11 O :   -0.135739
  12 H :    0.129497
  13 H :    0.126574
  14 H :    0.128201
  15 H :    0.117003
  16 H :    0.117242
  17 H :    0.125072
  18 H :    0.125078
  19 H :    0.128930
  20 H :    0.131034
  21 H :    0.124353
  22 H :    0.143007
  23 H :    0.128494
  24 H :    0.077865

  Mayer bond orders larger than 0.100000
B(  0-C ,  1-C ) :   1.1324 B(  0-C , 12-H ) :   0.9169 B(  0-C , 13-H ) :   0.9150
B(  0-C , 14-H ) :   0.9341 B(  1-C ,  2-C ) :   2.0351 B(  1-C ,  3-C ) :   1.0197
B(  2-C , 15-H ) :   0.9090 B(  2-C , 16-H ) :   0.9082 B(  3-C ,  4-H ) :   0.8718
B(  3-C ,  5-C ) :   1.0631 B(  3-C ,  9-C ) :   1.0830 B(  5-C ,  6-C ) :   1.1455
B(  5-C , 17-H ) :   0.9091 B(  5-C , 18-H ) :   0.9139 B(  6-C ,  7-C ) :   1.1104
B(  6-C , 19-H ) :   0.8735 B(  6-C , 20-H ) :   0.8903 B(  7-C ,  8-C ) :   1.7041
B(  7-C , 10-C ) :   1.0420 B(  8-C ,  9-C ) :   1.0974 B(  8-C , 11-O ) :   0.1046
B(  8-C , 21-H ) :   0.9434 B(  9-C , 22-H ) :   0.8616 B(  9-C , 23-H ) :   0.9150
B( 10-C , 11-O ) :   2.0973 B( 10-C , 24-H ) :   0.9178

Dispersion correction           -0.027566687
FINAL SINGLE POINT ENERGY      -463.622044221299

DIPOLE MOMENT
-------------

Method             : SCF
Type of density    : Electron Density
Multiplicity       :   1
Irrep              :   0
Energy             :  -463.6973687710753893 Eh
Relativity type    :
Basis              : AO
                                X                 Y                 Z
Electronic contribution:     -8.893957115      -0.302238119      -0.651282186
Nuclear contribution   :      9.890083654       1.066530987       0.765752361
                        -----------------------------------------
Total Dipole Moment    :      0.996126540       0.764292868       0.114470175
                        -----------------------------------------
Magnitude (a.u.)       :      1.260759728
Magnitude (Debye)      :      3.204596555

Rotational constants in cm-1:             0.075403             0.021981             0.021235
Rotational constants in MHz :          2260.527275           658.977796           636.613554

                             ****ORCA TERMINATED NORMALLY****
TOTAL RUN TIME: 0 days 0 hours 0 minutes 19 seconds 915 msec
