                         Program Version 6.0.0  -   RELEASE  -
|  1> ! r2scan-3c def2/J RI DEFGRID2 scfconv6 printgap
|  2> %output
|  3>     printlevel normal
|  4> end
|  5> * xyz 0 1
|  6> C -2.7241323412 -0.7865054014 -0.9725911333
|  7> C -1.9768199323 -0.2818521286 0.2598969242
|  8> C -2.9481251168 0.4342747541 1.1972536338
|  9> C -0.8299641145 0.6576727303 -0.1330750293
| 10> C 0.3466541235 -0.0607965817 -0.8133760746
| 11> C 1.6935220527 0.0055813406 -0.0682992751
| 12> C 2.7255371948 -0.7788357674 -0.8873016375
| 13> C 2.1744146874 1.4527017515 0.06275731
| 14> C 1.5790921614 -0.635802903 1.3164684084
| 15> H -3.1878999077 0.0466408363 -1.4969203263
| 16> H -3.5045035636 -1.4873656053 -0.6843737691
| 17> H -2.0502937422 -1.2899381974 -1.6609747226
| 18> H -1.5540597944 -1.1411995393 0.7922953934
| 19> H -3.3625529818 1.3149257747 0.7107545032
| 20> H -3.769172269 -0.2237676929 1.4721220003
| 21> H -2.4439804582 0.7507092392 2.1077826302
| 22> H -1.2280636933 1.4279059295 -0.7967201393
| 23> H -0.4846611842 1.1654475297 0.767381647
| 24> H 0.4969654405 0.3531369498 -1.8125138609
| 25> H 0.0951929807 -1.115768324 -0.9404382151
| 26> H 3.6964964084 -0.7566519751 -0.3977215619
| 27> H 2.4212177625 -1.817642349 -0.995338937
| 28> H 2.8338951407 -0.3490586436 -1.8807361411
| 29> H 3.1521007498 1.4820086579 0.5387882087
| 30> H 2.2567376496 1.9148485369 -0.9184385459
| 31> H 1.489657043 2.0461167827 0.6624816393
| 32> H 0.8677639011 -0.1035546605 1.9419441847
| 33> H 2.5446424009 -0.6240141887 1.8173364267
| 34> H 1.2517141242 -1.6694973343 1.2293104381
| 35> *
| 36>
| 37>                          ****END OF INPUT****

CARTESIAN COORDINATES (ANGSTROEM)
---------------------------------
  C     -2.724132   -0.786505   -0.972591
  C     -1.976820   -0.281852    0.259897
  C     -2.948125    0.434275    1.197254
  C     -0.829964    0.657673   -0.133075
  C      0.346654   -0.060797   -0.813376
  C      1.693522    0.005581   -0.068299
  C      2.725537   -0.778836   -0.887302
  C      2.174415    1.452702    0.062757
  C      1.579092   -0.635803    1.316468
  H     -3.187900    0.046641   -1.496920
  H     -3.504504   -1.487366   -0.684374
  H     -2.050294   -1.289938   -1.660975
  H     -1.554060   -1.141200    0.792295
  H     -3.362553    1.314926    0.710755
  H     -3.769172   -0.223768    1.472122
  H     -2.443980    0.750709    2.107783
  H     -1.228064    1.427906   -0.796720
  H     -0.484661    1.165448    0.767382
  H      0.496965    0.353137   -1.812514
  H      0.095193   -1.115768   -0.940438
  H      3.696496   -0.756652   -0.397722
  H      2.421218   -1.817642   -0.995339
  H      2.833895   -0.349059   -1.880736
  H      3.152101    1.482009    0.538788
  H      2.256738    1.914849   -0.918439
  H      1.489657    2.046117    0.662482
  H      0.867764   -0.103555    1.941944
  H      2.544642   -0.624014    1.817336
  H      1.251714   -1.669497    1.229310

 Total Charge           Charge          ....    0
 Multiplicity           Mult            ....    1
 Number of Electrons    NEL             ....   74
 Basis Dimension        Dim             ....  271

ORBITAL ENERGIES
----------------

  NO   OCC          E(Eh)            E(eV)
   0   2.0000     -10.038966      -273.1741
   1   2.0000     -10.029815      -272.9251
   2   2.0000     -10.017964      -272.6027
   3   2.0000     -10.017706      -272.5956
   4   2.0000     -10.012198      -272.4458
   5   2.0000     -10.012108      -272.4433
   6   2.0000     -10.012102      -272.4431
   7   2.0000     -10.011540      -272.4279
   8   2.0000     -10.011449      -272.4254
   9   2.0000      -0.795362       -21.6429
  10   2.0000      -0.765912       -20.8415
  11   2.0000      -0.684849       -18.6357
  12   2.0000      -0.650024       -17.6881
  13   2.0000      -0.649583       -17.6760
  14   2.0000      -0.646482       -17.5917
  15   2.0000      -0.593667       -16.1545
  16   2.0000      -0.524364       -14.2687
  17   2.0000      -0.493872       -13.4389
  18   2.0000      -0.440145       -11.9770
  19   2.0000      -0.425658       -11.5827
  20   2.0000      -0.418708       -11.3936
  21   2.0000      -0.403644       -10.9837
  22   2.0000      -0.395144       -10.7524
  23   2.0000      -0.377111       -10.2617
  24   2.0000      -0.372004       -10.1227
  25   2.0000      -0.357120        -9.7177
  26   2.0000      -0.351101        -9.5539
  27   2.0000      -0.342657        -9.3242
  28   2.0000      -0.330265        -8.9870
  29   2.0000      -0.324781        -8.8377
  30   2.0000      -0.321594        -8.7510
  31   2.0000      -0.302872        -8.2416
  32   2.0000      -0.298286        -8.1168
  33   2.0000      -0.291262        -7.9256
  34   2.0000      -0.278911        -7.5896
  35   2.0000      -0.273246        -7.4354
  36   2.0000      -0.269149        -7.3239
  37   0.0000       0.075373         2.0510
  38   0.0000       0.087867         2.3910
  39   0.0000       0.105093         2.8597
  40   0.0000       0.114606         3.1186
  41   0.0000       0.116495         3.1700

MULLIKEN ATOMIC CHARGES
-----------------------
   0 C :   -0.496126
   1 C :   -0.049834
   2 C :   -0.484420
   3 C :   -0.283736
   4 C :   -0.330987
   5 C :    0.107965
   6 C :   -0.488966
   7 C :   -0.489111
   8 C :   -0.509430
   9 H :    0.149961
  10 H :    0.145856
  11 H :    0.144543
  12 H :    0.149052
  13 H :    0.146051
  14 H :    0.146547
  15 H :    0.145631
  16 H :    0.155656
  17 H :    0.144727
  18 H :    0.160165
  19 H :    0.158504
  20 H :    0.154728
  21 H :    0.152216
  22 H :    0.151298
  23 H :    0.151614
  24 H :    0.154046
  25 H :    0.150683
  26 H :    0.156110
  27 H :    0.152344
  28 H :    0.154915
Sum of atomic charges:   -0.0000000

LOEWDIN ATOMIC CHARGES
----------------------
   0 C :   -0.416314
   1 C :   -0.248176
   2 C :   -0.418589
   3 C :   -0.302925
   4 C :   -0.294440
   5 C :   -0.212683
   6 C :   -0.409403
   7 C :   -0.405885
   8 C :   -0.408066
   9 H :    0.153059
  10 H :    0.152313
  11 H :    0.153062
  12 H :    0.154518
  13 H :    0.153784
  14 H :    0.152313
  15 H :    0.151626
  16 H :    0.159603
  17 H :    0.158358
  18 H :    0.161175
  19 H :    0.162911
  20 H :    0.155118
  21 H :    0.155689
  22 H :    0.156125
  23 H :    0.156092
  24 H :    0.157160
  25 H :    0.154659
  26 H :    0.155356
  27 H :    0.156670
  28 H :    0.156892

  Mayer bond orders larger than 0.100000
B(  0-C ,  1-C ) :   0.9206 B(  0-C ,  9-H ) :   0.9912 B(  0-C , 10-H ) :   0.9744
B(  0-C , 11-H ) :   0.9672 B(  1-C ,  2-C ) :   0.8965 B(  1-C ,  3-C ) :   0.8771
B(  1-C , 12-H ) :   0.9626 B(  2-C , 13-H ) :   0.9828 B(  2-C , 14-H ) :   0.9786
B(  2-C , 15-H ) :   0.9820 B(  3-C ,  4-C ) :   0.8145 B(  3-C , 16-H ) :   0.9750
B(  3-C , 17-H ) :   0.9929 B(  4-C ,  5-C ) :   0.8934 B(  4-C , 18-H ) :   0.9790
B(  4-C , 19-H ) :   1.0012 B(  5-C ,  6-C ) :   0.9359 B(  5-C ,  7-C ) :   0.9383
B(  5-C ,  8-C ) :   0.9170 B(  6-C , 20-H ) :   0.9805 B(  6-C , 21-H ) :   0.9789
B(  6-C , 22-H ) :   0.9748 B(  7-C , 23-H ) :   0.9752 B(  7-C , 24-H ) :   0.9785
B(  7-C , 25-H ) :   0.9670 B(  8-C , 26-H ) :   0.9704 B(  8-C , 27-H ) :   0.9735
B(  8-C , 28-H ) :   0.9769

Dispersion correction           -0.009063427
FINAL SINGLE POINT ENERGY      -354.886826955974

DIPOLE MOMENT
-------------

Method             : SCF
Type of density    : Electron Density
Multiplicity       :   1
Irrep              :   0
Energy             :  -354.8919148120285740 Eh
Relativity type    :
Basis              : AO
                                X                 Y                 Z
Electronic contribution:      0.461347863       0.060699762      -0.426920594
Nuclear contribution   :     -0.449195610      -0.071974153       0.427821338
                        -----------------------------------------
Total Dipole Moment    :      0.012152253      -0.011274391       0.000900744
                        -----------------------------------------
Magnitude (a.u.)       :      0.016601219
Magnitude (Debye)      :      0.042196946

Rotational constants in cm-1:             0.092160             0.025910             0.024383
Rotational constants in MHz :          2762.877093           776.776018           730.988922

                             ****ORCA TERMINATED NORMALLY****
TOTAL RUN TIME: 0 days 0 hours 0 minutes 33 seconds 23 msec
