                         Program Version 6.0.0  -   RELEASE  -
|  1> ! r2scan-3c def2/J RI DEFGRID2 scfconv6 printgap
|  2> %output
|  3>     printlevel normal
|  4> end
|  5> %cpcm
|  6>     smd true
|  7>     smdsolvent "water"
|  8> end
|  9> * xyz 0 1
| 10> C -2.7241323412 -0.7865054014 -0.9725911333
| 11> C -1.9768199323 -0.2818521286 0.2598969242
| 12> C -2.9481251168 0.4342747541 1.1972536338
| 13> C -0.8299641145 0.6576727303 -0.1330750293
| 14> C 0.3466541235 -0.0607965817 -0.8133760746
| 15> C 1.6935220527 0.0055813406 -0.0682992751
| 16> C 2.7255371948 -0.7788357674 -0.8873016375
| 17> C 2.1744146874 1.4527017515 0.06275731
| 18> C 1.5790921614 -0.635802903 1.3164684084
| 19> H -3.1878999077 0.0466408363 -1.4969203263
| 20> H -3.5045035636 -1.4873656053 -0.6843737691
| 21> H -2.0502937422 -1.2899381974 -1.6609747226
| 22> H -1.5540597944 -1.1411995393 0.7922953934
| 23> H -3.3625529818 1.3149257747 0.7107545032
| 24> H -3.769172269 -0.2237676929 1.4721220003
| 25> H -2.4439804582 0.7507092392 2.1077826302
| 26> H -1.2280636933 1.4279059295 -0.7967201393
| 27> H -0.4846611842 1.1654475297 0.767381647
| 28> H 0.4969654405 0.3531369498 -1.8125138609
| 29> H 0.0951929807 -1.115768324 -0.9404382151
| 30> H 3.6964964084 -0.7566519751 -0.3977215619
| 31> H 2.4212177625 -1.817642349 -0.995338937
| 32> H 2.8338951407 -0.3490586436 -1.8807361411
| 33> H 3.1521007498 1.4820086579 0.5387882087
| 34> H 2.2567376496 1.9148485369 -0.9184385459
| 35> H 1.489657043 2.0461167827 0.6624816393
| 36> H 0.8677639011 -0.1035546605 1.9419441847
| 37> H 2.5446424009 -0.6240141887 1.8173364267
| 38> H 1.2517141242 -1.6694973343 1.2293104381
| 39> *
| 40>
| 41>                          ****END OF INPUT****

CARTESIAN COORDINATES (ANGSTROEM)
---------------------------------
  C     -2.724132   -0.786505   -0.972591
  C     -1.976820   -0.281852    0.259897
  C     -2.948125    0.434275    1.197254
  C     -0.829964    0.657673   -0.133075
  C      0.346654   -0.060797   -0.813376
  C      1.693522    0.005581   -0.068299
  C      2.725537   -0.778836   -0.887302
  C      2.174415    1.452702    0.062757
  C      1.579092   -0.635803    1.316468
  H     -3.187900    0.046641   -1.496920
  H     -3.504504   -1.487366   -0.684374
  H     -2.050294   -1.289938   -1.660975
  H     -1.554060   -1.141200    0.792295
  H     -3.362553    1.314926    0.710755
  H     -3.769172   -0.223768    1.472122
  H     -2.443980    0.750709    2.107783
  H     -1.228064    1.427906   -0.796720
  H     -0.484661    1.165448    0.767382
  H      0.496965    0.353137   -1.812514
  H      0.095193   -1.115768   -0.940438
  H      3.696496   -0.756652   -0.397722
  H      2.421218   -1.817642   -0.995339
  H      2.833895   -0.349059   -1.880736
  H      3.152101    1.482009    0.538788
  H      2.256738    1.914849   -0.918439
  H      1.489657    2.046117    0.662482
  H      0.867764   -0.103555    1.941944
  H      2.544642   -0.624014    1.817336
  H      1.251714   -1.669497    1.229310

 Total Charge           Charge          ....    0
 Multiplicity           Mult            ....    1
 Number of Electrons    NEL             ....   74
 Basis Dimension        Dim             ....  271

ORBITAL ENERGIES
----------------

  NO   OCC          E(Eh)            E(eV)
   0   2.0000     -10.031321      -272.9661
   1   2.0000     -10.022229      -272.7187
   2   2.0000     -10.009035      -272.3597
   3   2.0000     -10.008747      -272.3518
   4   2.0000     -10.004632      -272.2399
   5   2.0000     -10.004628      -272.2398
   6   2.0000     -10.003561      -272.2107
   7   2.0000     -10.003526      -272.2098
   8   2.0000     -10.003472      -272.2083
   9   2.0000      -0.787206       -21.4210
  10   2.0000      -0.758202       -20.6317
  11   2.0000      -0.676886       -18.4190
  12   2.0000      -0.642369       -17.4797
  13   2.0000      -0.642311       -17.4782
  14   2.0000      -0.639519       -17.4022
  15   2.0000      -0.585754       -15.9392
  16   2.0000      -0.516832       -14.0637
  17   2.0000      -0.486225       -13.2309
  18   2.0000      -0.431906       -11.7528
  19   2.0000      -0.417651       -11.3649
  20   2.0000      -0.410759       -11.1773
  21   2.0000      -0.396100       -10.7784
  22   2.0000      -0.387349       -10.5403
  23   2.0000      -0.369464       -10.0536
  24   2.0000      -0.364167        -9.9095
  25   2.0000      -0.349408        -9.5079
  26   2.0000      -0.343832        -9.3561
  27   2.0000      -0.334620        -9.1055
  28   2.0000      -0.322334        -8.7711
  29   2.0000      -0.316822        -8.6212
  30   2.0000      -0.313420        -8.5286
  31   2.0000      -0.295177        -8.0322
  32   2.0000      -0.290770        -7.9123
  33   2.0000      -0.283483        -7.7140
  34   2.0000      -0.270631        -7.3642
  35   2.0000      -0.265058        -7.2126
  36   2.0000      -0.261094        -7.1047
  37   0.0000       0.084455         2.2981
  38   0.0000       0.096213         2.6181
  39   0.0000       0.113959         3.1010
  40   0.0000       0.122326         3.3287
  41   0.0000       0.123628         3.3641

MULLIKEN ATOMIC CHARGES
-----------------------
   0 C :   -0.543415
   1 C :   -0.024794
   2 C :   -0.531058
   3 C :   -0.309392
   4 C :   -0.354872
   5 C :    0.168921
   6 C :   -0.542651
   7 C :   -0.544330
   8 C :   -0.559942
   9 H :    0.161484
  10 H :    0.156658
  11 H :    0.154958
  12 H :    0.153378
  13 H :    0.156823
  14 H :    0.157160
  15 H :    0.157534
  16 H :    0.163304
  17 H :    0.159978
  18 H :    0.167709
  19 H :    0.169736
  20 H :    0.166235
  21 H :    0.164038
  22 H :    0.162545
  23 H :    0.163239
  24 H :    0.165450
  25 H :    0.163373
  26 H :    0.168330
  27 H :    0.163564
  28 H :    0.166036
Sum of atomic charges:   -0.0000000

LOEWDIN ATOMIC CHARGES
----------------------
   0 C :   -0.425365
   1 C :   -0.246046
   2 C :   -0.427887
   3 C :   -0.306708
   4 C :   -0.297599
   5 C :   -0.207676
   6 C :   -0.418745
   7 C :   -0.415318
   8 C :   -0.416702
   9 H :    0.155421
  10 H :    0.154471
  11 H :    0.155112
  12 H :    0.155866
  13 H :    0.155860
  14 H :    0.154377
  15 H :    0.154262
  16 H :    0.160851
  17 H :    0.162384
  18 H :    0.162655
  19 H :    0.165705
  20 H :    0.157526
  21 H :    0.158032
  22 H :    0.158230
  23 H :    0.158490
  24 H :    0.159266
  25 H :    0.157273
  26 H :    0.158300
  27 H :    0.158754
  28 H :    0.159211

  Mayer bond orders larger than 0.100000
B(  0-C ,  1-C ) :   0.9091 B(  0-C ,  9-H ) :   0.9892 B(  0-C , 10-H ) :   0.9723
B(  0-C , 11-H ) :   0.9663 B(  1-C ,  2-C ) :   0.8843 B(  1-C ,  3-C ) :   0.8748
B(  1-C , 12-H ) :   0.9636 B(  2-C , 13-H ) :   0.9819 B(  2-C , 14-H ) :   0.9764
B(  2-C , 15-H ) :   0.9793 B(  3-C ,  4-C ) :   0.8113 B(  3-C , 16-H ) :   0.9751
B(  3-C , 17-H ) :   0.9895 B(  4-C ,  5-C ) :   0.8903 B(  4-C , 18-H ) :   0.9791
B(  4-C , 19-H ) :   0.9981 B(  5-C ,  6-C ) :   0.9172 B(  5-C ,  7-C ) :   0.9222
B(  5-C ,  8-C ) :   0.9055 B(  6-C , 20-H ) :   0.9788 B(  6-C , 21-H ) :   0.9780
B(  6-C , 22-H ) :   0.9742 B(  7-C , 23-H ) :   0.9740 B(  7-C , 24-H ) :   0.9773
B(  7-C , 25-H ) :   0.9663 B(  8-C , 26-H ) :   0.9686 B(  8-C , 27-H ) :   0.9728
B(  8-C , 28-H ) :   0.9751

Dispersion correction           -0.009063427
FINAL SINGLE POINT ENERGY      -354.882492005013

DIPOLE MOMENT
-------------

Method             : SCF
Type of density    : Electron Density
Multiplicity       :   1
Irrep              :   0
Energy             :  -354.8875798610672518 Eh
Relativity type    :
Basis              : AO
                                X                 Y                 Z
Electronic contribution:      0.465608207       0.056197586      -0.414158932
Nuclear contribution   :     -0.449195610      -0.071974153       0.427821338
                        -----------------------------------------
Total Dipole Moment    :      0.016412597      -0.015776566       0.013662406
                        -----------------------------------------
Magnitude (a.u.)       :      0.026550606
Magnitude (Debye)      :      0.067486278

Rotational constants in cm-1:             0.092160             0.025910             0.024383
Rotational constants in MHz :          2762.877093           776.776018           730.988922

                             ****ORCA TERMINATED NORMALLY****
TOTAL RUN TIME: 0 days 0 hours 0 minutes 44 seconds 10 msec
