                         Program Version 6.0.0  -   RELEASE  -
|  1> ! r2scan-3c def2/J RI DEFGRID2 scfconv6 printgap
|  2> %output
|  3>     printlevel normal
|  4> end
|  5> * xyz 0 1
|  6> C 2.3958424746 0.9941005769 -0.0788202959
|  7> C 1.1593737448 0.1788499038 0.2923025408
|  8> C 1.4680628954 -1.3145652403 0.2447370865
|  9> C -0.0006246076 0.5261160932 -0.6656419005
| 10> C -1.2979244702 -0.0391994558 -0.1484282764
| 11> O -1.6957830477 -1.1465019387 -0.4586562238
| 12> C -2.0549021648 0.8530993378 0.789485237
| 13> H 2.1974108268 2.0593847011 0.0065968855
| 14> H 3.2206411353 0.7434124185 0.5833154225
| 15> H 2.698189056 0.7787939867 -1.1008355656
| 16> H 0.8605814784 0.4421778397 1.3127302941
| 17> H 0.5711119939 -1.9017479104 0.4305814494
| 18> H 2.2113136153 -1.5738700141 0.9945783918
| 19> H 1.8549936287 -1.5893815007 -0.7341334139
| 20> H 0.2156551427 0.0957236966 -1.6444830697
| 21> H -0.0820833847 1.6090643814 -0.7493304502
| 22> H -2.5149115846 1.6487719832 0.2063322745
| 23> H -2.8340573343 0.2955141345 1.3016805737
| 24> H -1.3790918992 1.3105471147 1.5061150499
| 25> *
| 26>
| 27>                          ****END OF INPUT****

CARTESIAN COORDINATES (ANGSTROEM)
---------------------------------
  C      2.395842    0.994101   -0.078820
  C      1.159374    0.178850    0.292303
  C      1.468063   -1.314565    0.244737
  C     -0.000625    0.526116   -0.665642
  C     -1.297924   -0.039199   -0.148428
  O     -1.695783   -1.146502   -0.458656
  C     -2.054902    0.853099    0.789485
  H      2.197411    2.059385    0.006597
  H      3.220641    0.743412    0.583315
  H      2.698189    0.778794   -1.100836
  H      0.860581    0.442178    1.312730
  H      0.571112   -1.901748    0.430581
  H      2.211314   -1.573870    0.994578
  H      1.854994   -1.589382   -0.734133
  H      0.215655    0.095724   -1.644483
  H     -0.082083    1.609064   -0.749330
  H     -2.514912    1.648772    0.206332
  H     -2.834057    0.295514    1.301681
  H     -1.379092    1.310547    1.506115

 Total Charge           Charge          ....    0
 Multiplicity           Mult            ....    1
 Number of Electrons    NEL             ....   56
 Basis Dimension        Dim             ....  198

ORBITAL ENERGIES
----------------

  NO   OCC          E(Eh)            E(eV)
   0   2.0000     -18.935987      -515.2744
   1   2.0000     -10.117278      -275.3051
   2   2.0000     -10.050812      -273.4965
   3   2.0000     -10.035717      -273.0857
   4   2.0000     -10.034204      -273.0446
   5   2.0000     -10.024559      -272.7821
   6   2.0000     -10.015865      -272.5455
   7   2.0000      -1.001440       -27.2506
   8   2.0000      -0.789509       -21.4836
   9   2.0000      -0.726525       -19.7697
  10   2.0000      -0.667302       -18.1582
  11   2.0000      -0.655456       -17.8359
  12   2.0000      -0.546190       -14.8626
  13   2.0000      -0.502984       -13.6869
  14   2.0000      -0.444402       -12.0928
  15   2.0000      -0.436714       -11.8836
  16   2.0000      -0.426862       -11.6155
  17   2.0000      -0.405080       -11.0228
  18   2.0000      -0.396196       -10.7810
  19   2.0000      -0.379455       -10.3255
  20   2.0000      -0.359782        -9.7902
  21   2.0000      -0.347988        -9.4692
  22   2.0000      -0.345196        -9.3933
  23   2.0000      -0.329430        -8.9642
  24   2.0000      -0.313646        -8.5347
  25   2.0000      -0.305773        -8.3205
  26   2.0000      -0.299512        -8.1501
  27   2.0000      -0.210766        -5.7352
  28   0.0000      -0.046020        -1.2523
  29   0.0000       0.071924         1.9572
  30   0.0000       0.097562         2.6548
  31   0.0000       0.110177         2.9981
  32   0.0000       0.123065         3.3488

MULLIKEN ATOMIC CHARGES
-----------------------
   0 C :   -0.465105
   1 C :   -0.036383
   2 C :   -0.497964
   3 C :   -0.293856
   4 C :    0.272133
   5 O :   -0.348621
   6 C :   -0.510698
   7 H :    0.144805
   8 H :    0.150723
   9 H :    0.151968
  10 H :    0.140359
  11 H :    0.173111
  12 H :    0.147185
  13 H :    0.148531
  14 H :    0.171726
  15 H :    0.149924
  16 H :    0.171452
  17 H :    0.176961
  18 H :    0.153747
Sum of atomic charges:    0.0000000

LOEWDIN ATOMIC CHARGES
----------------------
   0 C :   -0.411837
   1 C :   -0.226190
   2 C :   -0.408711
   3 C :   -0.276425
   4 C :    0.211307
   5 O :   -0.468152
   6 C :   -0.387406
   7 H :    0.152118
   8 H :    0.155669
   9 H :    0.156130
  10 H :    0.155799
  11 H :    0.170246
  12 H :    0.152716
  13 H :    0.156190
  14 H :    0.181621
  15 H :    0.167595
  16 H :    0.177900
  17 H :    0.174487
  18 H :    0.166942

  Mayer bond orders larger than 0.100000
B(  0-C ,  1-C ) :   0.8938 B(  0-C ,  7-H ) :   0.9778 B(  0-C ,  8-H ) :   0.9741
B(  0-C ,  9-H ) :   0.9857 B(  1-C ,  2-C ) :   0.9385 B(  1-C ,  3-C ) :   0.8860
B(  1-C , 10-H ) :   0.9568 B(  2-C , 11-H ) :   0.9581 B(  2-C , 12-H ) :   0.9747
B(  2-C , 13-H ) :   0.9830 B(  3-C ,  4-C ) :   0.8973 B(  3-C , 14-H ) :   0.9674
B(  3-C , 15-H ) :   0.9543 B(  4-C ,  5-O ) :   1.9593 B(  4-C ,  6-C ) :   0.9178
B(  6-C , 16-H ) :   0.9435 B(  6-C , 17-H ) :   0.9829 B(  6-C , 18-H ) :   0.9535

Dispersion correction           -0.005063665
FINAL SINGLE POINT ENERGY      -311.004366013040

DIPOLE MOMENT
-------------

Method             : SCF
Type of density    : Electron Density
Multiplicity       :   1
Irrep              :   0
Energy             :  -311.0081788807442535 Eh
Relativity type    :
Basis              : AO
                                X                 Y                 Z
Electronic contribution:     -6.084710014      -2.646037207      -1.635040204
Nuclear contribution   :      6.560531618       3.659090194       1.975677835
                        -----------------------------------------
Total Dipole Moment    :      0.475821604       1.013052987       0.340637631
                        -----------------------------------------
Magnitude (a.u.)       :      1.169921600
Magnitude (Debye)      :      2.973704382

Rotational constants in cm-1:             0.143791             0.054954             0.046119
Rotational constants in MHz :          4310.734651          1647.486514          1382.614404

                             ****ORCA TERMINATED NORMALLY****
TOTAL RUN TIME: 0 days 0 hours 0 minutes 24 seconds 785 msec
