                         Program Version 6.0.0  -   RELEASE  -
|  1> ! r2scan-3c def2/J RI DEFGRID2 scfconv6 printgap
|  2> %output
|  3>     printlevel normal
|  4> end
|  5> %cpcm
|  6>     smd true
|  7>     smdsolvent "water"
|  8> end
|  9> * xyz 0 1
| 10> C 2.3958424746 0.9941005769 -0.0788202959
| 11> C 1.1593737448 0.1788499038 0.2923025408
| 12> C 1.4680628954 -1.3145652403 0.2447370865
| 13> C -0.0006246076 0.5261160932 -0.6656419005
| 14> C -1.2979244702 -0.0391994558 -0.1484282764
| 15> O -1.6957830477 -1.1465019387 -0.4586562238
| 16> C -2.0549021648 0.8530993378 0.789485237
| 17> H 2.1974108268 2.0593847011 0.0065968855
| 18> H 3.2206411353 0.7434124185 0.5833154225
| 19> H 2.698189056 0.7787939867 -1.1008355656
| 20> H 0.8605814784 0.4421778397 1.3127302941
| 21> H 0.5711119939 -1.9017479104 0.4305814494
| 22> H 2.2113136153 -1.5738700141 0.9945783918
| 23> H 1.8549936287 -1.5893815007 -0.7341334139
| 24> H 0.2156551427 0.0957236966 -1.6444830697
| 25> H -0.0820833847 1.6090643814 -0.7493304502
| 26> H -2.5149115846 1.6487719832 0.2063322745
| 27> H -2.8340573343 0.2955141345 1.3016805737
| 28> H -1.3790918992 1.3105471147 1.5061150499
| 29> *
| 30>
| 31>                          ****END OF INPUT****

CARTESIAN COORDINATES (ANGSTROEM)
---------------------------------
  C      2.395842    0.994101   -0.078820
  C      1.159374    0.178850    0.292303
  C      1.468063   -1.314565    0.244737
  C     -0.000625    0.526116   -0.665642
  C     -1.297924   -0.039199   -0.148428
  O     -1.695783   -1.146502   -0.458656
  C     -2.054902    0.853099    0.789485
  H      2.197411    2.059385    0.006597
  H      3.220641    0.743412    0.583315
  H      2.698189    0.778794   -1.100836
  H      0.860581    0.442178    1.312730
  H      0.571112   -1.901748    0.430581
  H      2.211314   -1.573870    0.994578
  H      1.854994   -1.589382   -0.734133
  H      0.215655    0.095724   -1.644483
  H     -0.082083    1.609064   -0.749330
  H     -2.514912    1.648772    0.206332
  H     -2.834057    0.295514    1.301681
  H     -1.379092    1.310547    1.506115

 Total Charge           Charge          ....    0
 Multiplicity           Mult            ....    1
 Number of Electrons    NEL             ....   56
 Basis Dimension        Dim             ....  198

ORBITAL ENERGIES
----------------

  NO   OCC          E(Eh)            E(eV)
   0   2.0000     -18.945323      -515.5284
   1   2.0000     -10.123152      -275.4650
   2   2.0000     -10.038652      -273.1656
   3   2.0000     -10.025716      -272.8136
   4   2.0000     -10.021931      -272.7106
   5   2.0000     -10.010127      -272.3894
   6   2.0000     -10.008439      -272.3435
   7   2.0000      -1.013394       -27.5758
   8   2.0000      -0.778989       -21.1974
   9   2.0000      -0.717503       -19.5243
  10   2.0000      -0.657156       -17.8821
  11   2.0000      -0.645434       -17.5631
  12   2.0000      -0.535864       -14.5816
  13   2.0000      -0.498138       -13.5550
  14   2.0000      -0.440862       -11.9965
  15   2.0000      -0.431145       -11.7321
  16   2.0000      -0.420540       -11.4435
  17   2.0000      -0.401031       -10.9126
  18   2.0000      -0.384640       -10.4666
  19   2.0000      -0.375083       -10.2065
  20   2.0000      -0.349284        -9.5045
  21   2.0000      -0.339560        -9.2399
  22   2.0000      -0.337869        -9.1939
  23   2.0000      -0.327807        -8.9201
  24   2.0000      -0.306039        -8.3277
  25   2.0000      -0.294576        -8.0158
  26   2.0000      -0.289941        -7.8897
  27   2.0000      -0.220737        -6.0066
  28   0.0000      -0.048157        -1.3104
  29   0.0000       0.085281         2.3206
  30   0.0000       0.110777         3.0144
  31   0.0000       0.123975         3.3735
  32   0.0000       0.135768         3.6944

MULLIKEN ATOMIC CHARGES
-----------------------
   0 C :   -0.515704
   1 C :    0.000778
   2 C :   -0.553811
   3 C :   -0.306981
   4 C :    0.304143
   5 O :   -0.453145
   6 C :   -0.540497
   7 H :    0.160839
   8 H :    0.161952
   9 H :    0.163613
  10 H :    0.164070
  11 H :    0.163284
  12 H :    0.163261
  13 H :    0.164961
  14 H :    0.179670
  15 H :    0.178061
  16 H :    0.202612
  17 H :    0.177327
  18 H :    0.185569
Sum of atomic charges:    0.0000000

LOEWDIN ATOMIC CHARGES
----------------------
   0 C :   -0.417635
   1 C :   -0.219000
   2 C :   -0.418984
   3 C :   -0.272110
   4 C :    0.228326
   5 O :   -0.545853
   6 C :   -0.384463
   7 H :    0.157224
   8 H :    0.158430
   9 H :    0.158519
  10 H :    0.164368
  11 H :    0.163356
  12 H :    0.157815
  13 H :    0.158693
  14 H :    0.183259
  15 H :    0.180713
  16 H :    0.191767
  17 H :    0.173920
  18 H :    0.181655

  Mayer bond orders larger than 0.100000
B(  0-C ,  1-C ) :   0.8835 B(  0-C ,  7-H ) :   0.9746 B(  0-C ,  8-H ) :   0.9719
B(  0-C ,  9-H ) :   0.9845 B(  1-C ,  2-C ) :   0.9076 B(  1-C ,  3-C ) :   0.8745
B(  1-C , 10-H ) :   0.9536 B(  2-C , 11-H ) :   0.9643 B(  2-C , 12-H ) :   0.9708
B(  2-C , 13-H ) :   0.9829 B(  3-C ,  4-C ) :   0.9125 B(  3-C , 14-H ) :   0.9678
B(  3-C , 15-H ) :   0.9440 B(  4-C ,  5-O ) :   1.8847 B(  4-C ,  6-C ) :   0.9421
B(  6-C , 16-H ) :   0.9286 B(  6-C , 17-H ) :   0.9785 B(  6-C , 18-H ) :   0.9396

Dispersion correction           -0.005063665
FINAL SINGLE POINT ENERGY      -311.010648496799

DIPOLE MOMENT
-------------

Method             : SCF
Type of density    : Electron Density
Multiplicity       :   1
Irrep              :   0
Energy             :  -311.0144613645036316 Eh
Relativity type    :
Basis              : AO
                                X                 Y                 Z
Electronic contribution:     -5.882740517      -2.092458975      -1.464827940
Nuclear contribution   :      6.560531618       3.659090194       1.975677835
                        -----------------------------------------
Total Dipole Moment    :      0.677791101       1.566631219       0.510849894
                        -----------------------------------------
Magnitude (a.u.)       :      1.781769280
Magnitude (Debye)      :      4.528897593

Rotational constants in cm-1:             0.143791             0.054954             0.046119
Rotational constants in MHz :          4310.734651          1647.486514          1382.614404

                             ****ORCA TERMINATED NORMALLY****
TOTAL RUN TIME: 0 days 0 hours 0 minutes 28 seconds 358 msec
