                         Program Version 6.0.0  -   RELEASE  -
|  1> ! pbe def2-sv(p) def2/J RI DEFGRID1 loosescf d4 GCP(DFT/SV(P)) printgap
|  2> %output
|  3>     printlevel normal
|  4> end
|  5> * xyz 0 1
|  6> C -1.6354907642 0.0788154608 1.5415802325
|  7> C -1.3152187786 -0.4656201342 0.1506338546
|  8> C -2.5293440104 -0.2535843069 -0.7572883467
|  9> C -0.0420512084 0.1215759577 -0.5056859551
| 10> C 0.0531342739 1.6388172582 -0.3578665681
| 11> C 1.2582097574 -0.6011782305 -0.0744052456
| 12> C 2.2742702741 -0.5883823914 -1.2194475503
| 13> C 1.9252808577 -0.0407954523 1.1810849828
| 14> H -1.8788907573 1.1367354866 1.4982085914
| 15> H -2.4967961594 -0.4482267777 1.9473775974
| 16> H -0.8055004005 -0.0627275253 2.2266220236
| 17> H -1.1621957639 -1.547967893 0.2420718524
| 18> H -2.3653621346 -0.7017766575 -1.7347394424
| 19> H -2.7297339797 0.806322989 -0.8936547725
| 20> H -3.4127420814 -0.7105004155 -0.3170412776
| 21> H -0.1490010637 -0.0881895201 -1.5772820826
| 22> H 0.9098428697 2.0156858085 -0.9113711393
| 23> H 0.1583783523 1.9333260011 0.6812492857
| 24> H -0.8378722298 2.1125366104 -0.7624971106
| 25> H 1.0001440687 -1.6486495698 0.1230189965
| 26> H 1.8670439471 -1.0715638234 -2.1047612679
| 27> H 2.5477355386 0.4315575808 -1.4791598504
| 28> H 3.178682824 -1.1176831202 -0.9281047083
| 29> H 2.7656212871 -0.6747433629 1.4573427174
| 30> H 1.2394458127 -0.0108598101 2.0217626343
| 31> H 2.3047830508 0.9617710597 1.0042514262
| 32> *
| 33>
| 34>                          ****END OF INPUT****

CARTESIAN COORDINATES (ANGSTROEM)
---------------------------------
  C     -1.635491    0.078815    1.541580
  C     -1.315219   -0.465620    0.150634
  C     -2.529344   -0.253584   -0.757288
  C     -0.042051    0.121576   -0.505686
  C      0.053134    1.638817   -0.357867
  C      1.258210   -0.601178   -0.074405
  C      2.274270   -0.588382   -1.219448
  C      1.925281   -0.040795    1.181085
  H     -1.878891    1.136735    1.498209
  H     -2.496796   -0.448227    1.947378
  H     -0.805500   -0.062728    2.226622
  H     -1.162196   -1.547968    0.242072
  H     -2.365362   -0.701777   -1.734739
  H     -2.729734    0.806323   -0.893655
  H     -3.412742   -0.710500   -0.317041
  H     -0.149001   -0.088190   -1.577282
  H      0.909843    2.015686   -0.911371
  H      0.158378    1.933326    0.681249
  H     -0.837872    2.112537   -0.762497
  H      1.000144   -1.648650    0.123019
  H      1.867044   -1.071564   -2.104761
  H      2.547736    0.431558   -1.479160
  H      3.178683   -1.117683   -0.928105
  H      2.765621   -0.674743    1.457343
  H      1.239446   -0.010860    2.021763
  H      2.304783    0.961771    1.004251

 Total Charge           Charge          ....    0
 Multiplicity           Mult            ....    1
 Number of Electrons    NEL             ....   66
 Basis Dimension        Dim             ....  148

ORBITAL ENERGIES
----------------

  NO   OCC          E(Eh)            E(eV)
   0   2.0000      -9.888224      -269.0723
   1   2.0000      -9.888076      -269.0682
   2   2.0000      -9.885588      -269.0005
   3   2.0000      -9.868260      -268.5290
   4   2.0000      -9.867936      -268.5202
   5   2.0000      -9.867823      -268.5171
   6   2.0000      -9.867768      -268.5156
   7   2.0000      -9.867677      -268.5132
   8   2.0000      -0.745043       -20.2737
   9   2.0000      -0.697932       -18.9917
  10   2.0000      -0.642789       -17.4912
  11   2.0000      -0.610466       -16.6116
  12   2.0000      -0.602141       -16.3851
  13   2.0000      -0.570697       -15.5295
  14   2.0000      -0.500577       -13.6214
  15   2.0000      -0.469832       -12.7848
  16   2.0000      -0.423967       -11.5367
  17   2.0000      -0.410747       -11.1770
  18   2.0000      -0.403199       -10.9716
  19   2.0000      -0.378176       -10.2907
  20   2.0000      -0.361507        -9.8371
  21   2.0000      -0.351036        -9.5522
  22   2.0000      -0.343713        -9.3529
  23   2.0000      -0.334198        -9.0940
  24   2.0000      -0.332749        -9.0546
  25   2.0000      -0.325082        -8.8459
  26   2.0000      -0.321283        -8.7426
  27   2.0000      -0.306231        -8.3330
  28   2.0000      -0.288004        -7.8370
  29   2.0000      -0.280248        -7.6259
  30   2.0000      -0.268866        -7.3162
  31   2.0000      -0.261643        -7.1197
  32   2.0000      -0.252964        -6.8835
  33   0.0000       0.027911         0.7595
  34   0.0000       0.057170         1.5557
  35   0.0000       0.060920         1.6577
  36   0.0000       0.067159         1.8275
  37   0.0000       0.081964         2.2304

MULLIKEN ATOMIC CHARGES
-----------------------
   0 C :   -0.259067
   1 C :   -0.141851
   2 C :   -0.245705
   3 C :   -0.114056
   4 C :   -0.261402
   5 C :   -0.136881
   6 C :   -0.247356
   7 C :   -0.257749
   8 H :    0.099746
   9 H :    0.094455
  10 H :    0.107284
  11 H :    0.062727
  12 H :    0.096898
  13 H :    0.095633
  14 H :    0.094896
  15 H :    0.055200
  16 H :    0.099161
  17 H :    0.108826
  18 H :    0.099488
  19 H :    0.061833
  20 H :    0.097770
  21 H :    0.094967
  22 H :    0.094966
  23 H :    0.095258
  24 H :    0.106706
  25 H :    0.098252
Sum of atomic charges:   -0.0000000

LOEWDIN ATOMIC CHARGES
----------------------
   0 C :   -0.331847
   1 C :   -0.147969
   2 C :   -0.329296
   3 C :   -0.134611
   4 C :   -0.330725
   5 C :   -0.147748
   6 C :   -0.328933
   7 C :   -0.331728
   8 H :    0.117400
   9 H :    0.118217
  10 H :    0.115123
  11 H :    0.111776
  12 H :    0.115070
  13 H :    0.114804
  14 H :    0.116193
  15 H :    0.112766
  16 H :    0.117666
  17 H :    0.118718
  18 H :    0.117677
  19 H :    0.111709
  20 H :    0.115089
  21 H :    0.114853
  22 H :    0.115886
  23 H :    0.118223
  24 H :    0.114535
  25 H :    0.117152

  Mayer bond orders larger than 0.100000
B(  0-C ,  1-C ) :   1.1170 B(  0-C ,  8-H ) :   0.9404 B(  0-C ,  9-H ) :   0.9445
B(  0-C , 10-H ) :   0.9410 B(  1-C ,  2-C ) :   1.1112 B(  1-C ,  3-C ) :   1.0308
B(  1-C , 11-H ) :   0.8963 B(  2-C , 12-H ) :   0.9473 B(  2-C , 13-H ) :   0.9455
B(  2-C , 14-H ) :   0.9490 B(  3-C ,  4-C ) :   1.1174 B(  3-C ,  5-C ) :   1.0262
B(  3-C , 15-H ) :   0.8969 B(  4-C , 16-H ) :   0.9416 B(  4-C , 17-H ) :   0.9281
B(  4-C , 18-H ) :   0.9416 B(  5-C ,  6-C ) :   1.1112 B(  5-C ,  7-C ) :   1.1206
B(  5-C , 19-H ) :   0.8970 B(  6-C , 20-H ) :   0.9472 B(  6-C , 21-H ) :   0.9456
B(  6-C , 22-H ) :   0.9492 B(  7-C , 23-H ) :   0.9446 B(  7-C , 24-H ) :   0.9408
B(  7-C , 25-H ) :   0.9383

Dispersion correction           -0.023481390
FINAL SINGLE POINT ENERGY      -314.869102297195

DIPOLE MOMENT
-------------

Method             : SCF
Type of density    : Electron Density
Multiplicity       :   1
Irrep              :   0
Energy             :  -314.9559583015580415 Eh
Relativity type    :
Basis              : AO
                                X                 Y                 Z
Electronic contribution:     -0.128955158      -1.276699596      -0.457922731
Nuclear contribution   :      0.125322615       1.233726698       0.462789010
                        -----------------------------------------
Total Dipole Moment    :     -0.003632543      -0.042972898       0.004866280
                        -----------------------------------------
Magnitude (a.u.)       :      0.043399839
Magnitude (Debye)      :      0.110313624

Rotational constants in cm-1:             0.095943             0.042117             0.038298
Rotational constants in MHz :          2876.299940          1262.624833          1148.152605

                             ****ORCA TERMINATED NORMALLY****
TOTAL RUN TIME: 0 days 0 hours 0 minutes 11 seconds 740 msec
