                         Program Version 6.0.0  -   RELEASE  -
|  1> ! pbe def2-sv(p) def2/J RI DEFGRID1 loosescf d4 GCP(DFT/SV(P)) printgap
|  2> %output
|  3>     printlevel normal
|  4> end
|  5> * xyz 0 1
|  6> C -2.1644090198 -0.4011711946 -0.9360680809
|  7> C -2.078529296 0.5593892465 0.244284324
|  8> C -0.8165358087 0.3416272945 1.0746121368
|  9> O 0.347479267 0.7273459881 0.3294036448
| 10> C 1.2170843534 -0.2011106001 -0.0509793104
| 11> O 1.1096460166 -1.3804397104 0.215554603
| 12> C 2.3445297795 0.4017449787 -0.8358265494
| 13> H -2.1487181805 -1.4327670639 -0.5907298864
| 14> H -3.0816294016 -0.2339523621 -1.4935568906
| 15> H -1.3221912134 -0.2579965475 -1.610249845
| 16> H -2.936595434 0.415927629 0.9008250427
| 17> H -2.0849170756 1.5891349099 -0.1154039678
| 18> H -0.8247018376 0.9757228095 1.9638786817
| 19> H -0.7137373592 -0.7084628495 1.3652635014
| 20> H 3.0334772411 -0.3782532256 -1.1419573199
| 21> H 2.855412299 1.135084058 -0.2178392555
| 22> H 1.9429839322 0.915252814 -1.7050673264
| 23> *
| 24>
| 25>                          ****END OF INPUT****

CARTESIAN COORDINATES (ANGSTROEM)
---------------------------------
  C     -2.164409   -0.401171   -0.936068
  C     -2.078529    0.559389    0.244284
  C     -0.816536    0.341627    1.074612
  O      0.347479    0.727346    0.329404
  C      1.217084   -0.201111   -0.050979
  O      1.109646   -1.380440    0.215555
  C      2.344530    0.401745   -0.835827
  H     -2.148718   -1.432767   -0.590730
  H     -3.081629   -0.233952   -1.493557
  H     -1.322191   -0.257997   -1.610250
  H     -2.936595    0.415928    0.900825
  H     -2.084917    1.589135   -0.115404
  H     -0.824702    0.975723    1.963879
  H     -0.713737   -0.708463    1.365264
  H      3.033477   -0.378253   -1.141957
  H      2.855412    1.135084   -0.217839
  H      1.942984    0.915253   -1.705067

 Total Charge           Charge          ....    0
 Multiplicity           Mult            ....    1
 Number of Electrons    NEL             ....   56
 Basis Dimension        Dim             ....  118

ORBITAL ENERGIES
----------------

  NO   OCC          E(Eh)            E(eV)
   0   2.0000     -18.796109      -511.4681
   1   2.0000     -18.730072      -509.6712
   2   2.0000     -10.008085      -272.3338
   3   2.0000      -9.941504      -270.5221
   4   2.0000      -9.895525      -269.2709
   5   2.0000      -9.893441      -269.2142
   6   2.0000      -9.879185      -268.8263
   7   2.0000      -1.002987       -27.2927
   8   2.0000      -0.907879       -24.7046
   9   2.0000      -0.723324       -19.6827
  10   2.0000      -0.677800       -18.4439
  11   2.0000      -0.623245       -16.9594
  12   2.0000      -0.549005       -14.9392
  13   2.0000      -0.498499       -13.5648
  14   2.0000      -0.445652       -12.1268
  15   2.0000      -0.435645       -11.8545
  16   2.0000      -0.411070       -11.1858
  17   2.0000      -0.396906       -10.8004
  18   2.0000      -0.396049       -10.7770
  19   2.0000      -0.363088        -9.8801
  20   2.0000      -0.359503        -9.7826
  21   2.0000      -0.342491        -9.3197
  22   2.0000      -0.316124        -8.6022
  23   2.0000      -0.313907        -8.5418
  24   2.0000      -0.310475        -8.4485
  25   2.0000      -0.287309        -7.8181
  26   2.0000      -0.251248        -6.8368
  27   2.0000      -0.217356        -5.9146
  28   0.0000      -0.017933        -0.4880
  29   0.0000       0.037224         1.0129
  30   0.0000       0.055865         1.5202
  31   0.0000       0.077622         2.1122
  32   0.0000       0.085109         2.3159

MULLIKEN ATOMIC CHARGES
-----------------------
   0 C :   -0.293611
   1 C :   -0.197542
   2 C :    0.002858
   3 O :   -0.250609
   4 C :    0.081426
   5 O :   -0.207411
   6 C :   -0.245802
   7 H :    0.110527
   8 H :    0.107212
   9 H :    0.114263
  10 H :    0.095875
  11 H :    0.096820
  12 H :    0.099153
  13 H :    0.109235
  14 H :    0.123336
  15 H :    0.128481
  16 H :    0.125788
Sum of atomic charges:   -0.0000000

LOEWDIN ATOMIC CHARGES
----------------------
   0 C :   -0.342953
   1 C :   -0.245983
   2 C :   -0.109194
   3 O :   -0.072674
   4 C :    0.027928
   5 O :   -0.171073
   6 C :   -0.358599
   7 H :    0.123352
   8 H :    0.121161
   9 H :    0.119993
  10 H :    0.124768
  11 H :    0.120968
  12 H :    0.115835
  13 H :    0.119699
  14 H :    0.138771
  15 H :    0.144958
  16 H :    0.143042

  Mayer bond orders larger than 0.100000
B(  0-C ,  1-C ) :   1.1528 B(  0-C ,  7-H ) :   0.9548 B(  0-C ,  8-H ) :   0.9522
B(  0-C ,  9-H ) :   0.9491 B(  1-C ,  2-C ) :   1.1290 B(  1-C , 10-H ) :   0.9206
B(  1-C , 11-H ) :   0.9231 B(  2-C ,  3-O ) :   0.9221 B(  2-C , 12-H ) :   0.9313
B(  2-C , 13-H ) :   0.9006 B(  3-O ,  4-C ) :   1.1767 B(  4-C ,  5-O ) :   2.0679
B(  4-C ,  6-C ) :   1.0796 B(  6-C , 14-H ) :   0.9433 B(  6-C , 15-H ) :   0.9282
B(  6-C , 16-H ) :   0.9300

Dispersion correction           -0.012248052
FINAL SINGLE POINT ENERGY      -346.244192963560

DIPOLE MOMENT
-------------

Method             : SCF
Type of density    : Electron Density
Multiplicity       :   1
Irrep              :   0
Energy             :  -346.3090462919048491 Eh
Relativity type    :
Basis              : AO
                                X                 Y                 Z
Electronic contribution:      4.651448860      -1.166874320       2.413088698
Nuclear contribution   :     -4.932498133       1.885124206      -2.473219940
                        -----------------------------------------
Total Dipole Moment    :     -0.281049273       0.718249886      -0.060131242
                        -----------------------------------------
Magnitude (a.u.)       :      0.773619647
Magnitude (Debye)      :      1.966384872

Rotational constants in cm-1:             0.157574             0.052277             0.050261
Rotational constants in MHz :          4723.944228          1567.222053          1506.799382

                             ****ORCA TERMINATED NORMALLY****
TOTAL RUN TIME: 0 days 0 hours 0 minutes 9 seconds 70 msec
