                         Program Version 6.0.0  -   RELEASE  -
|  1> ! pbe def2-sv(p) def2/J RI DEFGRID1 loosescf d4 GCP(DFT/SV(P)) printgap
|  2> %output
|  3>     printlevel normal
|  4> end
|  5> * xyz 0 1
|  6> C 1.4653316721 -2.4425140328 -0.963665833
|  7> O 1.0879366271 -1.7698589319 0.2394294582
|  8> C 0.7240352462 -0.4587267849 0.0869080693
|  9> C 1.6748928362 0.563103641 0.0430279619
| 10> C 1.2909639177 1.8919429723 -0.0389018429
| 11> C -0.050432113 2.2253772895 -0.07024628
| 12> C -1.0055225648 1.2234221294 -0.0098697886
| 13> C -0.631735999 -0.1149991802 0.0625415278
| 14> C -1.6433184744 -1.2193597443 0.1014329102
| 15> O -1.7089480206 -2.0925489572 -0.7332921601
| 16> O -2.447156455 -1.1328789172 1.1380865771
| 17> Cl -2.6793444182 1.6417748665 -0.0670889871
| 18> Cl 3.3532298677 0.1558537745 0.1226327975
| 19> H 2.2550721371 -1.9006039812 -1.4875315703
| 20> H 0.5953231798 -2.5595575765 -1.6145043718
| 21> H 1.8273882466 -3.4160055531 -0.6448490855
| 22> H 2.0445165305 2.6612606011 -0.0737677355
| 23> H -0.3569834825 3.255798198 -0.1355706189
| 24> H -3.1041367124 -1.8577809307 1.1757547146
| 25> *
| 26>
| 27>                          ****END OF INPUT****

CARTESIAN COORDINATES (ANGSTROEM)
---------------------------------
  C      1.465332   -2.442514   -0.963666
  O      1.087937   -1.769859    0.239429
  C      0.724035   -0.458727    0.086908
  C      1.674893    0.563104    0.043028
  C      1.290964    1.891943   -0.038902
  C     -0.050432    2.225377   -0.070246
  C     -1.005523    1.223422   -0.009870
  C     -0.631736   -0.114999    0.062542
  C     -1.643318   -1.219360    0.101433
  O     -1.708948   -2.092549   -0.733292
  O     -2.447156   -1.132879    1.138087
  Cl    -2.679344    1.641775   -0.067089
  Cl     3.353230    0.155854    0.122633
  H      2.255072   -1.900604   -1.487532
  H      0.595323   -2.559558   -1.614504
  H      1.827388   -3.416006   -0.644849
  H      2.044517    2.661261   -0.073768
  H     -0.356983    3.255798   -0.135571
  H     -3.104137   -1.857781    1.175755

 Total Charge           Charge          ....    0
 Multiplicity           Mult            ....    1
 Number of Electrons    NEL             ....  112
 Basis Dimension        Dim             ....  202

ORBITAL ENERGIES
----------------

  NO   OCC          E(Eh)            E(eV)
   0   2.0000    -100.650940     -2738.8513
   1   2.0000    -100.650111     -2738.8288
   2   2.0000     -18.811310      -511.8818
   3   2.0000     -18.786747      -511.2134
   4   2.0000     -18.750485      -510.2266
   5   2.0000     -10.030416      -272.9415
   6   2.0000      -9.977256      -271.4949
   7   2.0000      -9.968916      -271.2680
   8   2.0000      -9.962857      -271.1031
   9   2.0000      -9.932600      -270.2798
  10   2.0000      -9.931238      -270.2427
  11   2.0000      -9.922505      -270.0051
  12   2.0000      -9.918708      -269.9018
  13   2.0000      -9.186621      -249.9807
  14   2.0000      -9.186128      -249.9673
  15   2.0000      -7.018077      -190.9716
  16   2.0000      -7.017525      -190.9566
  17   2.0000      -7.006630      -190.6601
  18   2.0000      -7.006092      -190.6455
  19   2.0000      -7.005871      -190.6394
  20   2.0000      -7.005404      -190.6267
  21   2.0000      -1.022883       -27.8341
  22   2.0000      -0.969810       -26.3899
  23   2.0000      -0.925232       -25.1768
  24   2.0000      -0.835065       -22.7233
  25   2.0000      -0.810112       -22.0443
  26   2.0000      -0.758970       -20.6526
  27   2.0000      -0.712852       -19.3977
  28   2.0000      -0.667731       -18.1699
  29   2.0000      -0.631404       -17.1814
  30   2.0000      -0.616293       -16.7702
  31   2.0000      -0.561586       -15.2815
  32   2.0000      -0.546330       -14.8664
  33   2.0000      -0.489725       -13.3261
  34   2.0000      -0.473879       -12.8949
  35   2.0000      -0.466250       -12.6873
  36   2.0000      -0.434957       -11.8358
  37   2.0000      -0.426528       -11.6064
  38   2.0000      -0.421614       -11.4727
  39   2.0000      -0.413438       -11.2502
  40   2.0000      -0.403023       -10.9668
  41   2.0000      -0.393910       -10.7188
  42   2.0000      -0.371997       -10.1226
  43   2.0000      -0.368866       -10.0374
  44   2.0000      -0.358620        -9.7585
  45   2.0000      -0.342739        -9.3264
  46   2.0000      -0.333584        -9.0773
  47   2.0000      -0.314341        -8.5536
  48   2.0000      -0.289601        -7.8804
  49   2.0000      -0.281330        -7.6554
  50   2.0000      -0.276546        -7.5252
  51   2.0000      -0.271714        -7.3937
  52   2.0000      -0.256207        -6.9717
  53   2.0000      -0.238709        -6.4956
  54   2.0000      -0.227608        -6.1935
  55   2.0000      -0.217762        -5.9256
  56   0.0000      -0.073323        -1.9952
  57   0.0000      -0.055895        -1.5210
  58   0.0000      -0.023313        -0.6344
  59   0.0000      -0.006482        -0.1764
  60   0.0000       0.019964         0.5433

MULLIKEN ATOMIC CHARGES
-----------------------
   0 C :   -0.093412
   1 O :   -0.280819
   2 C :    0.097350
   3 C :    0.067802
   4 C :   -0.102320
   5 C :   -0.097362
   6 C :    0.089351
   7 C :   -0.007969
   8 C :    0.098343
   9 O :   -0.172222
  10 O :   -0.266047
  11 Cl:   -0.058951
  12 Cl:   -0.049927
  13 H :    0.099288
  14 H :    0.120084
  15 H :    0.121030
  16 H :    0.057631
  17 H :    0.055585
  18 H :    0.322565
Sum of atomic charges:   -0.0000000

LOEWDIN ATOMIC CHARGES
----------------------
   0 C :   -0.200193
   1 O :   -0.114846
   2 C :    0.028696
   3 C :   -0.154486
   4 C :   -0.125202
   5 C :   -0.139545
   6 C :   -0.123053
   7 C :   -0.091230
   8 C :    0.029137
   9 O :   -0.145628
  10 O :   -0.180560
  11 Cl:    0.151335
  12 Cl:    0.153561
  13 H :    0.100729
  14 H :    0.112675
  15 H :    0.121133
  16 H :    0.137289
  17 H :    0.136185
  18 H :    0.304002

  Mayer bond orders larger than 0.100000
B(  0-C ,  1-O ) :   0.9377 B(  0-C , 13-H ) :   0.9397 B(  0-C , 14-H ) :   0.9333
B(  0-C , 15-H ) :   0.9640 B(  1-O ,  2-C ) :   1.2087 B(  2-C ,  3-C ) :   1.3515
B(  2-C ,  7-C ) :   1.4035 B(  3-C ,  4-C ) :   1.3793 B(  3-C , 12-Cl) :   1.0122
B(  4-C ,  5-C ) :   1.3236 B(  4-C , 16-H ) :   0.9654 B(  5-C ,  6-C ) :   1.3642
B(  5-C , 17-H ) :   0.9694 B(  6-C ,  7-C ) :   1.4077 B(  6-C , 11-Cl) :   1.0307
B(  7-C ,  8-C ) :   0.8487 B(  8-C ,  9-O ) :   2.0859 B(  8-C , 10-O ) :   1.3206
B( 10-O , 18-H ) :   0.8164

Dispersion correction           -0.027247224
FINAL SINGLE POINT ENERGY     -1452.788422155586

DIPOLE MOMENT
-------------

Method             : SCF
Type of density    : Electron Density
Multiplicity       :   1
Irrep              :   0
Energy             : -1452.8425498519081884 Eh
Relativity type    :
Basis              : AO
                                X                 Y                 Z
Electronic contribution:     -2.182919074       6.299612837       2.732907866
Nuclear contribution   :      2.109670948      -6.067604663      -2.673586583
                        -----------------------------------------
Total Dipole Moment    :     -0.073248126       0.232008174       0.059321284
                        -----------------------------------------
Magnitude (a.u.)       :      0.250423832
Magnitude (Debye)      :      0.636526795

Rotational constants in cm-1:             0.031448             0.016367             0.011456
Rotational constants in MHz :           942.785880           490.659514           343.444858

                             ****ORCA TERMINATED NORMALLY****
TOTAL RUN TIME: 0 days 0 hours 0 minutes 15 seconds 751 msec
