                         Program Version 6.0.0  -   RELEASE  -
|  1> ! pbe def2-sv(p) def2/J RI DEFGRID1 loosescf d4 GCP(DFT/SV(P)) printgap
|  2> %output
|  3>     printlevel normal
|  4> end
|  5> * xyz 0 1
|  6> C -1.1631079708 0.1575787881 -0.4866264202
|  7> C -0.033261744 0.5375490475 0.4922247539
|  8> C 0.9951257401 -0.5920833699 0.6445643285
|  9> O 1.5310328718 -0.8823607268 -0.6310932304
| 10> O 0.5966359678 1.7276639403 0.0776870093
| 11> O -2.0437564056 -0.8110855339 0.0313515392
| 12> H -0.7227687118 -0.1736433202 -1.4342520054
| 13> H -1.7664006671 1.0501244116 -0.6692347583
| 14> H -0.472430156 0.7529060207 1.471906862
| 15> H 0.5090641539 -1.473716239 1.0788517001
| 16> H 1.7814764656 -0.2488300251 1.3273924459
| 17> H 2.2376979027 -1.5350257722 -0.5428169922
| 18> H 1.1073963746 1.5311390725 -0.7226353893
| 19> H -1.6079615673 -1.6739931459 0.0301375172
| 20> *
| 21>
| 22>                          ****END OF INPUT****

CARTESIAN COORDINATES (ANGSTROEM)
---------------------------------
  C     -1.163108    0.157579   -0.486626
  C     -0.033262    0.537549    0.492225
  C      0.995126   -0.592083    0.644564
  O      1.531033   -0.882361   -0.631093
  O      0.596636    1.727664    0.077687
  O     -2.043756   -0.811086    0.031352
  H     -0.722769   -0.173643   -1.434252
  H     -1.766401    1.050124   -0.669235
  H     -0.472430    0.752906    1.471907
  H      0.509064   -1.473716    1.078852
  H      1.781476   -0.248830    1.327392
  H      2.237698   -1.535026   -0.542817
  H      1.107396    1.531139   -0.722635
  H     -1.607962   -1.673993    0.030138

 Total Charge           Charge          ....    0
 Multiplicity           Mult            ....    1
 Number of Electrons    NEL             ....   50
 Basis Dimension        Dim             ....  100

ORBITAL ENERGIES
----------------

  NO   OCC          E(Eh)            E(eV)
   0   2.0000     -18.765229      -510.6278
   1   2.0000     -18.744334      -510.0593
   2   2.0000     -18.741862      -509.9920
   3   2.0000      -9.939295      -270.4620
   4   2.0000      -9.933824      -270.3131
   5   2.0000      -9.920670      -269.9552
   6   2.0000      -0.943988       -25.6872
   7   2.0000      -0.920635       -25.0518
   8   2.0000      -0.912381       -24.8272
   9   2.0000      -0.675597       -18.3839
  10   2.0000      -0.609226       -16.5779
  11   2.0000      -0.540864       -14.7177
  12   2.0000      -0.488178       -13.2840
  13   2.0000      -0.459431       -12.5018
  14   2.0000      -0.436637       -11.8815
  15   2.0000      -0.416357       -11.3296
  16   2.0000      -0.387931       -10.5562
  17   2.0000      -0.357932        -9.7398
  18   2.0000      -0.353877        -9.6295
  19   2.0000      -0.307316        -8.3625
  20   2.0000      -0.277027        -7.5383
  21   2.0000      -0.274745        -7.4762
  22   2.0000      -0.241404        -6.5689
  23   2.0000      -0.232183        -6.3180
  24   2.0000      -0.197467        -5.3734
  25   0.0000       0.005732         0.1560
  26   0.0000       0.032264         0.8779
  27   0.0000       0.066054         1.7974
  28   0.0000       0.071601         1.9484
  29   0.0000       0.087330         2.3764

MULLIKEN ATOMIC CHARGES
-----------------------
   0 C :    0.010060
   1 C :    0.019513
   2 C :   -0.019461
   3 O :   -0.447392
   4 O :   -0.433082
   5 O :   -0.436578
   6 H :    0.076965
   7 H :    0.095113
   8 H :    0.078974
   9 H :    0.061094
  10 H :    0.088642
  11 H :    0.308596
  12 H :    0.299417
  13 H :    0.298138
Sum of atomic charges:    0.0000000

LOEWDIN ATOMIC CHARGES
----------------------
   0 C :   -0.142142
   1 C :   -0.089647
   2 C :   -0.144184
   3 O :   -0.348428
   4 O :   -0.320978
   5 O :   -0.336859
   6 H :    0.098137
   7 H :    0.115558
   8 H :    0.118259
   9 H :    0.090531
  10 H :    0.104616
  11 H :    0.291706
  12 H :    0.282059
  13 H :    0.281372

  Mayer bond orders larger than 0.100000
B(  0-C ,  1-C ) :   1.0230 B(  0-C ,  5-O ) :   1.0653 B(  0-C ,  6-H ) :   0.9155
B(  0-C ,  7-H ) :   0.9274 B(  1-C ,  2-C ) :   1.0572 B(  1-C ,  4-O ) :   1.0267
B(  1-C ,  8-H ) :   0.8968 B(  2-C ,  3-O ) :   1.0571 B(  2-C ,  9-H ) :   0.9065
B(  2-C , 10-H ) :   0.9177 B(  3-O , 11-H ) :   0.8486 B(  4-O , 12-H ) :   0.8448
B(  5-O , 13-H ) :   0.8521

Dispersion correction           -0.009286146
FINAL SINGLE POINT ENERGY      -344.007939315155

DIPOLE MOMENT
-------------

Method             : SCF
Type of density    : Electron Density
Multiplicity       :   1
Irrep              :   0
Energy             :  -344.0814504371653015 Eh
Relativity type    :
Basis              : AO
                                X                 Y                 Z
Electronic contribution:     -0.026795669       0.641562507      -0.555947377
Nuclear contribution   :      1.001408263      -1.661033457       0.498250020
                        -----------------------------------------
Total Dipole Moment    :      0.974612594      -1.019470950      -0.057697357
                        -----------------------------------------
Magnitude (a.u.)       :      1.411566403
Magnitude (Debye)      :      3.587916661

Rotational constants in cm-1:             0.147187             0.093204             0.068705
Rotational constants in MHz :          4412.565198          2794.178365          2059.720889

                             ****ORCA TERMINATED NORMALLY****
TOTAL RUN TIME: 0 days 0 hours 0 minutes 6 seconds 630 msec
