                         Program Version 6.0.0  -   RELEASE  -
|  1> ! pbe def2-sv(p) def2/J RI DEFGRID1 loosescf d4 GCP(DFT/SV(P)) printgap
|  2> %output
|  3>     printlevel normal
|  4> end
|  5> * xyz 0 1
|  6> C -3.1447056765 -0.1910834434 0.4239824777
|  7> C -2.1602101735 0.4439004489 -0.5521121782
|  8> C -0.8509390589 -0.3386792901 -0.6777082453
|  9> C 0.0686062168 -0.2109484192 0.5411134385
| 10> C 1.227360546 -1.2107638994 0.4869443755
| 11> C 2.2438883818 -0.5724398324 -0.46315408
| 12> C 2.0370593496 0.9469120941 -0.325726716
| 13> C 0.8073455358 1.1308185577 0.5776043192
| 14> H -4.0741896555 0.3731384715 0.4428093442
| 15> H -3.3691264998 -1.2130086413 0.1260607761
| 16> H -2.7404834258 -0.2094827537 1.4328257085
| 17> H -2.6299363188 0.4940781008 -1.5372590581
| 18> H -1.9499277403 1.467826174 -0.2373135652
| 19> H -1.0929530397 -1.3932196118 -0.8314157819
| 20> H -0.3146443674 0.0091164277 -1.5616492777
| 21> H -0.5229856658 -0.3586277621 1.4474754352
| 22> H 1.6624465521 -1.3113937741 1.4827126213
| 23> H 0.9127902334 -2.1982526539 0.1519994723
| 24> H 3.2622883213 -0.8676264648 -0.2141815411
| 25> H 2.0488502618 -0.8917726273 -1.4869417675
| 26> H 2.9112711959 1.4292259115 0.1100144713
| 27> H 1.868406119 1.3998132672 -1.3025455609
| 28> H 1.1241324097 1.3392423597 1.6005366605
| 29> H 0.1821904939 1.9581591022 0.2464612344
| 30> *
| 31>
| 32>                          ****END OF INPUT****

CARTESIAN COORDINATES (ANGSTROEM)
---------------------------------
  C     -3.144706   -0.191083    0.423982
  C     -2.160210    0.443900   -0.552112
  C     -0.850939   -0.338679   -0.677708
  C      0.068606   -0.210948    0.541113
  C      1.227361   -1.210764    0.486944
  C      2.243888   -0.572440   -0.463154
  C      2.037059    0.946912   -0.325727
  C      0.807346    1.130819    0.577604
  H     -4.074190    0.373138    0.442809
  H     -3.369126   -1.213009    0.126061
  H     -2.740483   -0.209483    1.432826
  H     -2.629936    0.494078   -1.537259
  H     -1.949928    1.467826   -0.237314
  H     -1.092953   -1.393220   -0.831416
  H     -0.314644    0.009116   -1.561649
  H     -0.522986   -0.358628    1.447475
  H      1.662447   -1.311394    1.482713
  H      0.912790   -2.198253    0.151999
  H      3.262288   -0.867626   -0.214182
  H      2.048850   -0.891773   -1.486942
  H      2.911271    1.429226    0.110014
  H      1.868406    1.399813   -1.302546
  H      1.124132    1.339242    1.600537
  H      0.182190    1.958159    0.246461

 Total Charge           Charge          ....    0
 Multiplicity           Mult            ....    1
 Number of Electrons    NEL             ....   64
 Basis Dimension        Dim             ....  144

ORBITAL ENERGIES
----------------

  NO   OCC          E(Eh)            E(eV)
   0   2.0000      -9.882956      -268.9289
   1   2.0000      -9.880026      -268.8492
   2   2.0000      -9.876618      -268.7565
   3   2.0000      -9.874596      -268.7014
   4   2.0000      -9.874037      -268.6862
   5   2.0000      -9.873941      -268.6836
   6   2.0000      -9.873324      -268.6668
   7   2.0000      -9.870117      -268.5795
   8   2.0000      -0.759315       -20.6620
   9   2.0000      -0.702005       -19.1025
  10   2.0000      -0.639977       -17.4147
  11   2.0000      -0.629434       -17.1278
  12   2.0000      -0.590383       -16.0651
  13   2.0000      -0.523978       -14.2582
  14   2.0000      -0.494055       -13.4439
  15   2.0000      -0.474464       -12.9108
  16   2.0000      -0.437954       -11.9173
  17   2.0000      -0.425875       -11.5886
  18   2.0000      -0.397889       -10.8271
  19   2.0000      -0.381433       -10.3793
  20   2.0000      -0.374029       -10.1778
  21   2.0000      -0.354664        -9.6509
  22   2.0000      -0.339850        -9.2478
  23   2.0000      -0.309733        -8.4283
  24   2.0000      -0.303809        -8.2671
  25   2.0000      -0.300599        -8.1797
  26   2.0000      -0.290789        -7.9128
  27   2.0000      -0.287624        -7.8266
  28   2.0000      -0.274695        -7.4748
  29   2.0000      -0.270303        -7.3553
  30   2.0000      -0.264043        -7.1850
  31   2.0000      -0.258520        -7.0347
  32   0.0000       0.027743         0.7549
  33   0.0000       0.042666         1.1610
  34   0.0000       0.056505         1.5376
  35   0.0000       0.069311         1.8860
  36   0.0000       0.079702         2.1688

MULLIKEN ATOMIC CHARGES
-----------------------
   0 C :   -0.293358
   1 C :   -0.161300
   2 C :   -0.129827
   3 C :   -0.210846
   4 C :   -0.102996
   5 C :   -0.167962
   6 C :   -0.160359
   7 C :   -0.120860
   8 H :    0.101889
   9 H :    0.097010
  10 H :    0.109216
  11 H :    0.082548
  12 H :    0.084660
  13 H :    0.074931
  14 H :    0.078221
  15 H :    0.070761
  16 H :    0.075410
  17 H :    0.079845
  18 H :    0.082829
  19 H :    0.084041
  20 H :    0.081348
  21 H :    0.082434
  22 H :    0.076718
  23 H :    0.085648
Sum of atomic charges:    0.0000000

LOEWDIN ATOMIC CHARGES
----------------------
   0 C :   -0.342212
   1 C :   -0.233402
   2 C :   -0.217549
   3 C :   -0.149045
   4 C :   -0.217620
   5 C :   -0.231797
   6 C :   -0.232073
   7 C :   -0.220283
   8 H :    0.118984
   9 H :    0.116294
  10 H :    0.115797
  11 H :    0.115498
  12 H :    0.113619
  13 H :    0.112978
  14 H :    0.114852
  15 H :    0.111707
  16 H :    0.114212
  17 H :    0.113369
  18 H :    0.116944
  19 H :    0.115590
  20 H :    0.118014
  21 H :    0.116079
  22 H :    0.116004
  23 H :    0.114041

  Mayer bond orders larger than 0.100000
B(  0-C ,  1-C ) :   1.1562 B(  0-C ,  8-H ) :   0.9515 B(  0-C ,  9-H ) :   0.9538
B(  0-C , 10-H ) :   0.9494 B(  1-C ,  2-C ) :   1.1257 B(  1-C , 11-H ) :   0.9248
B(  1-C , 12-H ) :   0.9185 B(  2-C ,  3-C ) :   1.0726 B(  2-C , 13-H ) :   0.9190
B(  2-C , 14-H ) :   0.9149 B(  3-C ,  4-C ) :   1.0740 B(  3-C ,  7-C ) :   1.0853
B(  3-C , 15-H ) :   0.9017 B(  4-C ,  5-C ) :   1.1511 B(  4-C , 16-H ) :   0.9197
B(  4-C , 17-H ) :   0.9222 B(  5-C ,  6-C ) :   1.1545 B(  5-C , 18-H ) :   0.9262
B(  5-C , 19-H ) :   0.9220 B(  6-C ,  7-C ) :   1.1572 B(  6-C , 20-H ) :   0.9241
B(  6-C , 21-H ) :   0.9237 B(  7-C , 22-H ) :   0.9158 B(  7-C , 23-H ) :   0.9178

Dispersion correction           -0.021252895
FINAL SINGLE POINT ENERGY      -313.691397161259

DIPOLE MOMENT
-------------

Method             : SCF
Type of density    : Electron Density
Multiplicity       :   1
Irrep              :   0
Energy             :  -313.7722662013030117 Eh
Relativity type    :
Basis              : AO
                                X                 Y                 Z
Electronic contribution:      2.535062876      -0.009207178       0.124646741
Nuclear contribution   :     -2.553558889       0.025532600      -0.122346619
                        -----------------------------------------
Total Dipole Moment    :     -0.018496013       0.016325422       0.002300122
                        -----------------------------------------
Magnitude (a.u.)       :      0.024777257
Magnitude (Debye)      :      0.062978782

Rotational constants in cm-1:             0.139542             0.037961             0.035367
Rotational constants in MHz :          4183.372943          1138.040760          1060.282806

                             ****ORCA TERMINATED NORMALLY****
TOTAL RUN TIME: 0 days 0 hours 0 minutes 11 seconds 318 msec
