                         Program Version 6.0.0  -   RELEASE  -
|  1> ! r2scan-3c def2/J RI DEFGRID2 scfconv6 printgap
|  2> %output
|  3>     printlevel normal
|  4> end
|  5> * xyz 0 1
|  6> C 2.0395968017 -0.3403348592 0.5234467971
|  7> O 1.3075683342 0.1990371238 -0.5593863043
|  8> C 0.0058396022 0.642306262 -0.2312834381
|  9> C -0.9935628287 -0.4953973022 0.0615997434
| 10> N -2.3727787052 -0.0547198586 0.167035391
| 11> H 1.6258096528 -1.2972933563 0.8526504977
| 12> H 2.0559390005 0.358098409 1.3669113945
| 13> H 3.0505538824 -0.4906558285 0.1521701988
| 14> H 0.049765763 1.3315001642 0.6267207587
| 15> H -0.3249626446 1.1987286704 -1.113686139
| 16> H -0.9275478641 -1.2317127364 -0.7437472749
| 17> H -0.7318714616 -0.9885562389 1.0009842972
| 18> H -2.659538595 0.3854226295 -0.7007813124
| 19> H -2.4549161976 0.6403721566 0.9014526306
| 20> *
| 21>
| 22>                          ****END OF INPUT****

CARTESIAN COORDINATES (ANGSTROEM)
---------------------------------
  C      2.039597   -0.340335    0.523447
  O      1.307568    0.199037   -0.559386
  C      0.005840    0.642306   -0.231283
  C     -0.993563   -0.495397    0.061600
  N     -2.372779   -0.054720    0.167035
  H      1.625810   -1.297293    0.852650
  H      2.055939    0.358098    1.366911
  H      3.050554   -0.490656    0.152170
  H      0.049766    1.331500    0.626721
  H     -0.324963    1.198729   -1.113686
  H     -0.927548   -1.231713   -0.743747
  H     -0.731871   -0.988556    1.000984
  H     -2.659539    0.385423   -0.700781
  H     -2.454916    0.640372    0.901453

 Total Charge           Charge          ....    0
 Multiplicity           Mult            ....    1
 Number of Electrons    NEL             ....   42
 Basis Dimension        Dim             ....  150

ORBITAL ENERGIES
----------------

  NO   OCC          E(Eh)            E(eV)
   0   2.0000     -18.951101      -515.6857
   1   2.0000     -14.143294      -384.8586
   2   2.0000     -10.073871      -274.1240
   3   2.0000     -10.070788      -274.0401
   4   2.0000     -10.052518      -273.5429
   5   2.0000      -0.995608       -27.0919
   6   2.0000      -0.853730       -23.2312
   7   2.0000      -0.700938       -19.0735
   8   2.0000      -0.638092       -17.3634
   9   2.0000      -0.567605       -15.4453
  10   2.0000      -0.478810       -13.0291
  11   2.0000      -0.451143       -12.2762
  12   2.0000      -0.434572       -11.8253
  13   2.0000      -0.430662       -11.7189
  14   2.0000      -0.385552       -10.4914
  15   2.0000      -0.368448       -10.0260
  16   2.0000      -0.347383        -9.4528
  17   2.0000      -0.323902        -8.8138
  18   2.0000      -0.282661        -7.6916
  19   2.0000      -0.240426        -6.5423
  20   2.0000      -0.199708        -5.4343
  21   0.0000       0.057372         1.5612
  22   0.0000       0.077373         2.1054
  23   0.0000       0.107322         2.9204
  24   0.0000       0.127624         3.4728
  25   0.0000       0.130947         3.5632

MULLIKEN ATOMIC CHARGES
-----------------------
   0 C :   -0.289267
   1 O :   -0.237030
   2 C :   -0.160979
   3 C :   -0.241415
   4 N :   -0.541869
   5 H :    0.135602
   6 H :    0.130054
   7 H :    0.148477
   8 H :    0.124039
   9 H :    0.140093
  10 H :    0.157488
  11 H :    0.145043
  12 H :    0.245598
  13 H :    0.244165
Sum of atomic charges:   -0.0000000

LOEWDIN ATOMIC CHARGES
----------------------
   0 C :   -0.075281
   1 O :   -0.787029
   2 C :    0.007231
   3 C :   -0.067362
   4 N :   -0.722414
   5 H :    0.153908
   6 H :    0.155507
   7 H :    0.175350
   8 H :    0.158562
   9 H :    0.178632
  10 H :    0.178639
  11 H :    0.172327
  12 H :    0.236244
  13 H :    0.235684

  Mayer bond orders larger than 0.100000
B(  0-C ,  1-O ) :   0.8912 B(  0-C ,  5-H ) :   0.9622 B(  0-C ,  6-H ) :   0.9673
B(  0-C ,  7-H ) :   0.9744 B(  1-O ,  2-C ) :   0.9093 B(  2-C ,  3-C ) :   0.8559
B(  2-C ,  8-H ) :   0.9709 B(  2-C ,  9-H ) :   0.9679 B(  3-C ,  4-N ) :   0.9707
B(  3-C , 10-H ) :   0.9894 B(  3-C , 11-H ) :   0.9895 B(  4-N , 12-H ) :   0.9160
B(  4-N , 13-H ) :   0.9155

Dispersion correction           -0.002781306
FINAL SINGLE POINT ENERGY      -249.615556223218

DIPOLE MOMENT
-------------

Method             : SCF
Type of density    : Electron Density
Multiplicity       :   1
Irrep              :   0
Energy             :  -249.6254522573476606 Eh
Relativity type    :
Basis              : AO
                                X                 Y                 Z
Electronic contribution:      0.350425699       0.416627188      -1.831519745
Nuclear contribution   :     -0.290802927      -0.085619178       2.190432080
                        -----------------------------------------
Total Dipole Moment    :      0.059622772       0.331008010       0.358912335
                        -----------------------------------------
Magnitude (a.u.)       :      0.491873197
Magnitude (Debye)      :      1.250242309

Rotational constants in cm-1:             0.483126             0.080548             0.075347
Rotational constants in MHz :         14483.747229          2414.755067          2258.832291

                             ****ORCA TERMINATED NORMALLY****
TOTAL RUN TIME: 0 days 0 hours 0 minutes 15 seconds 868 msec
