                         Program Version 6.0.0  -   RELEASE  -
|  1> ! r2scan-3c def2/J RI DEFGRID2 scfconv6 printgap
|  2> %output
|  3>     printlevel normal
|  4> end
|  5> %cpcm
|  6>     smd true
|  7>     smdsolvent "water"
|  8> end
|  9> * xyz 0 1
| 10> C 2.0395968017 -0.3403348592 0.5234467971
| 11> O 1.3075683342 0.1990371238 -0.5593863043
| 12> C 0.0058396022 0.642306262 -0.2312834381
| 13> C -0.9935628287 -0.4953973022 0.0615997434
| 14> N -2.3727787052 -0.0547198586 0.167035391
| 15> H 1.6258096528 -1.2972933563 0.8526504977
| 16> H 2.0559390005 0.358098409 1.3669113945
| 17> H 3.0505538824 -0.4906558285 0.1521701988
| 18> H 0.049765763 1.3315001642 0.6267207587
| 19> H -0.3249626446 1.1987286704 -1.113686139
| 20> H -0.9275478641 -1.2317127364 -0.7437472749
| 21> H -0.7318714616 -0.9885562389 1.0009842972
| 22> H -2.659538595 0.3854226295 -0.7007813124
| 23> H -2.4549161976 0.6403721566 0.9014526306
| 24> *
| 25>
| 26>                          ****END OF INPUT****

CARTESIAN COORDINATES (ANGSTROEM)
---------------------------------
  C      2.039597   -0.340335    0.523447
  O      1.307568    0.199037   -0.559386
  C      0.005840    0.642306   -0.231283
  C     -0.993563   -0.495397    0.061600
  N     -2.372779   -0.054720    0.167035
  H      1.625810   -1.297293    0.852650
  H      2.055939    0.358098    1.366911
  H      3.050554   -0.490656    0.152170
  H      0.049766    1.331500    0.626721
  H     -0.324963    1.198729   -1.113686
  H     -0.927548   -1.231713   -0.743747
  H     -0.731871   -0.988556    1.000984
  H     -2.659539    0.385423   -0.700781
  H     -2.454916    0.640372    0.901453

 Total Charge           Charge          ....    0
 Multiplicity           Mult            ....    1
 Number of Electrons    NEL             ....   42
 Basis Dimension        Dim             ....  150

ORBITAL ENERGIES
----------------

  NO   OCC          E(Eh)            E(eV)
   0   2.0000     -18.955462      -515.8043
   1   2.0000     -14.135324      -384.6417
   2   2.0000     -10.065774      -273.9036
   3   2.0000     -10.061855      -273.7970
   4   2.0000     -10.043842      -273.3068
   5   2.0000      -0.998156       -27.1612
   6   2.0000      -0.844764       -22.9872
   7   2.0000      -0.694862       -18.9082
   8   2.0000      -0.630528       -17.1575
   9   2.0000      -0.559641       -15.2286
  10   2.0000      -0.468929       -12.7602
  11   2.0000      -0.446678       -12.1547
  12   2.0000      -0.429111       -11.6767
  13   2.0000      -0.425940       -11.5904
  14   2.0000      -0.377351       -10.2682
  15   2.0000      -0.359316        -9.7775
  16   2.0000      -0.339714        -9.2441
  17   2.0000      -0.316388        -8.6093
  18   2.0000      -0.282008        -7.6738
  19   2.0000      -0.241983        -6.5847
  20   2.0000      -0.199077        -5.4172
  21   0.0000       0.064626         1.7586
  22   0.0000       0.089768         2.4427
  23   0.0000       0.119777         3.2593
  24   0.0000       0.136872         3.7245
  25   0.0000       0.143654         3.9090

MULLIKEN ATOMIC CHARGES
-----------------------
   0 C :   -0.306749
   1 O :   -0.313001
   2 C :   -0.170050
   3 C :   -0.237078
   4 N :   -0.636747
   5 H :    0.153965
   6 H :    0.152077
   7 H :    0.161163
   8 H :    0.146709
   9 H :    0.156684
  10 H :    0.157326
  11 H :    0.159304
  12 H :    0.288103
  13 H :    0.288296
Sum of atomic charges:   -0.0000000

LOEWDIN ATOMIC CHARGES
----------------------
   0 C :   -0.076148
   1 O :   -0.829474
   2 C :    0.010104
   3 C :   -0.070383
   4 N :   -0.742914
   5 H :    0.162571
   6 H :    0.165563
   7 H :    0.179159
   8 H :    0.169345
   9 H :    0.184179
  10 H :    0.178002
  11 H :    0.177646
  12 H :    0.246136
  13 H :    0.246213

  Mayer bond orders larger than 0.100000
B(  0-C ,  1-O ) :   0.8834 B(  0-C ,  5-H ) :   0.9567 B(  0-C ,  6-H ) :   0.9625
B(  0-C ,  7-H ) :   0.9682 B(  1-O ,  2-C ) :   0.9041 B(  2-C ,  3-C ) :   0.8740
B(  2-C ,  8-H ) :   0.9626 B(  2-C ,  9-H ) :   0.9651 B(  3-C ,  4-N ) :   0.9838
B(  3-C , 10-H ) :   0.9813 B(  3-C , 11-H ) :   0.9776 B(  4-N , 12-H ) :   0.8992
B(  4-N , 13-H ) :   0.8985

Dispersion correction           -0.002781306
FINAL SINGLE POINT ENERGY      -249.626022339313

DIPOLE MOMENT
-------------

Method             : SCF
Type of density    : Electron Density
Multiplicity       :   1
Irrep              :   0
Energy             :  -249.6359183734425358 Eh
Relativity type    :
Basis              : AO
                                X                 Y                 Z
Electronic contribution:      0.336426160       0.567870135      -1.633345103
Nuclear contribution   :     -0.290802927      -0.085619178       2.190432080
                        -----------------------------------------
Total Dipole Moment    :      0.045623233       0.482250957       0.557086978
                        -----------------------------------------
Magnitude (a.u.)       :      0.738236660
Magnitude (Debye)      :      1.876448465

Rotational constants in cm-1:             0.483126             0.080548             0.075347
Rotational constants in MHz :         14483.747229          2414.755067          2258.832291

                             ****ORCA TERMINATED NORMALLY****
TOTAL RUN TIME: 0 days 0 hours 0 minutes 17 seconds 986 msec
