                         Program Version 6.0.0  -   RELEASE  -
|  1> ! pbe def2-sv(p) def2/J RI DEFGRID1 loosescf d4 GCP(DFT/SV(P)) printgap
|  2> %output
|  3>     printlevel normal
|  4> end
|  5> * xyz 0 1
|  6> C -1.1358911144 0.04923226 -0.4634027052
|  7> C 0.1200037807 0.5950909371 0.2572795444
|  8> C 1.3944984816 -0.1607907985 -0.1641308331
|  9> O 1.2745181587 -1.5577538028 -0.0772040875
| 10> O 0.2822716688 1.9829499019 0.0647962815
| 11> O -1.8717879483 -0.8562231376 0.3235469381
| 12> H -0.8431589377 -0.5123119548 -1.3536309399
| 13> H -1.7620653497 0.8987118587 -0.7639137926
| 14> H -0.0253472063 0.4792259616 1.3383127254
| 15> H 2.2389219627 0.2027488795 0.4376671484
| 16> H 1.6058927217 0.0463282033 -1.2175544809
| 17> H 1.0636096916 -1.8116365871 0.8316179189
| 18> H 0.4885859811 2.161383673 -0.8635404574
| 19> H -2.2779339808 -0.3844300211 1.0642073142
| 20> *
| 21>
| 22>                          ****END OF INPUT****

CARTESIAN COORDINATES (ANGSTROEM)
---------------------------------
  C     -1.135891    0.049232   -0.463403
  C      0.120004    0.595091    0.257280
  C      1.394498   -0.160791   -0.164131
  O      1.274518   -1.557754   -0.077204
  O      0.282272    1.982950    0.064796
  O     -1.871788   -0.856223    0.323547
  H     -0.843159   -0.512312   -1.353631
  H     -1.762065    0.898712   -0.763914
  H     -0.025347    0.479226    1.338313
  H      2.238922    0.202749    0.437667
  H      1.605893    0.046328   -1.217554
  H      1.063610   -1.811637    0.831618
  H      0.488586    2.161384   -0.863540
  H     -2.277934   -0.384430    1.064207

 Total Charge           Charge          ....    0
 Multiplicity           Mult            ....    1
 Number of Electrons    NEL             ....   50
 Basis Dimension        Dim             ....  100

ORBITAL ENERGIES
----------------

  NO   OCC          E(Eh)            E(eV)
   0   2.0000     -18.753919      -510.3201
   1   2.0000     -18.748406      -510.1701
   2   2.0000     -18.746600      -510.1209
   3   2.0000      -9.939245      -270.4606
   4   2.0000      -9.933688      -270.3094
   5   2.0000      -9.927555      -270.1425
   6   2.0000      -0.937699       -25.5161
   7   2.0000      -0.921415       -25.0730
   8   2.0000      -0.919248       -25.0140
   9   2.0000      -0.673966       -18.3396
  10   2.0000      -0.606706       -16.5093
  11   2.0000      -0.561173       -15.2703
  12   2.0000      -0.470788       -12.8108
  13   2.0000      -0.462657       -12.5895
  14   2.0000      -0.445226       -12.1152
  15   2.0000      -0.422698       -11.5022
  16   2.0000      -0.382830       -10.4173
  17   2.0000      -0.352777        -9.5995
  18   2.0000      -0.347755        -9.4629
  19   2.0000      -0.312170        -8.4946
  20   2.0000      -0.294286        -8.0079
  21   2.0000      -0.265492        -7.2244
  22   2.0000      -0.240339        -6.5400
  23   2.0000      -0.229671        -6.2497
  24   2.0000      -0.197625        -5.3776
  25   0.0000       0.014431         0.3927
  26   0.0000       0.030074         0.8183
  27   0.0000       0.038378         1.0443
  28   0.0000       0.061718         1.6794
  29   0.0000       0.094742         2.5781

MULLIKEN ATOMIC CHARGES
-----------------------
   0 C :    0.037561
   1 C :   -0.035216
   2 C :    0.012502
   3 O :   -0.425150
   4 O :   -0.423367
   5 O :   -0.438741
   6 H :    0.092081
   7 H :    0.071869
   8 H :    0.056986
   9 H :    0.086099
  10 H :    0.072899
  11 H :    0.299373
  12 H :    0.298174
  13 H :    0.294931
Sum of atomic charges:    0.0000000

LOEWDIN ATOMIC CHARGES
----------------------
   0 C :   -0.141868
   1 C :   -0.103299
   2 C :   -0.140045
   3 O :   -0.330137
   4 O :   -0.319141
   5 O :   -0.336051
   6 H :    0.116281
   7 H :    0.095507
   8 H :    0.104830
   9 H :    0.097831
  10 H :    0.106413
  11 H :    0.285354
  12 H :    0.283147
  13 H :    0.281179

  Mayer bond orders larger than 0.100000
B(  0-C ,  1-C ) :   0.9784 B(  0-C ,  5-O ) :   1.0630 B(  0-C ,  6-H ) :   0.9214
B(  0-C ,  7-H ) :   0.9244 B(  1-C ,  2-C ) :   1.0489 B(  1-C ,  4-O ) :   1.0344
B(  1-C ,  8-H ) :   0.9041 B(  2-C ,  3-O ) :   1.0729 B(  2-C ,  9-H ) :   0.9231
B(  2-C , 10-H ) :   0.9157 B(  3-O , 11-H ) :   0.8490 B(  4-O , 12-H ) :   0.8506
B(  5-O , 13-H ) :   0.8538

Dispersion correction           -0.009123132
FINAL SINGLE POINT ENERGY      -344.000517949079

DIPOLE MOMENT
-------------

Method             : SCF
Type of density    : Electron Density
Multiplicity       :   1
Irrep              :   0
Energy             :  -344.0735020481095603 Eh
Relativity type    :
Basis              : AO
                                X                 Y                 Z
Electronic contribution:     -0.467472168      -0.510018026       0.718776044
Nuclear contribution   :      0.453624133       1.006844696      -0.489641330
                        -----------------------------------------
Total Dipole Moment    :     -0.013848036       0.496826669       0.229134714
                        -----------------------------------------
Magnitude (a.u.)       :      0.547294459
Magnitude (Debye)      :      1.391111961

Rotational constants in cm-1:             0.119405             0.109121             0.062784
Rotational constants in MHz :          3579.678866          3271.351234          1882.225443

                             ****ORCA TERMINATED NORMALLY****
TOTAL RUN TIME: 0 days 0 hours 0 minutes 6 seconds 648 msec
