                         Program Version 6.0.0  -   RELEASE  -
|  1> ! r2scan-3c def2/J RI DEFGRID2 scfconv6 printgap
|  2> %output
|  3>     printlevel normal
|  4> end
|  5> * xyz 0 1
|  6> C -2.4551889796 0.1208900234 -0.2587019169
|  7> C -1.1930385974 -0.2392826523 0.5119358569
|  8> N -0.0095727031 0.1684503984 -0.2232509228
|  9> C 1.2298651354 -0.2045990421 0.433908906
| 10> C 2.4289847734 0.1896354354 -0.4165204994
| 11> H -2.461203859 1.1841517599 -0.4790481074
| 12> H -2.4985949444 -0.4284195795 -1.196475126
| 13> H -3.3345015426 -0.125032787 0.3297576153
| 14> H -1.1887286988 -1.3240288939 0.7343773352
| 15> H -1.1795339915 0.2902133717 1.4703180699
| 16> H -0.0335613364 -0.2478299211 -1.150677103
| 17> H 1.2632157306 0.3259013799 1.3912555379
| 18> H 1.2704430824 -1.2886605938 0.6560049994
| 19> H 2.3893120944 1.251764174 -0.6386817053
| 20> H 3.3509879525 -0.0281787663 0.1148859977
| 21> H 2.428614293 -0.3616388277 -1.3541097445
| 22> *
| 23>
| 24>                          ****END OF INPUT****

CARTESIAN COORDINATES (ANGSTROEM)
---------------------------------
  C     -2.455189    0.120890   -0.258702
  C     -1.193039   -0.239283    0.511936
  N     -0.009573    0.168450   -0.223251
  C      1.229865   -0.204599    0.433909
  C      2.428985    0.189635   -0.416520
  H     -2.461204    1.184152   -0.479048
  H     -2.498595   -0.428420   -1.196475
  H     -3.334502   -0.125033    0.329758
  H     -1.188729   -1.324029    0.734377
  H     -1.179534    0.290213    1.470318
  H     -0.033561   -0.247830   -1.150677
  H      1.263216    0.325901    1.391256
  H      1.270443   -1.288661    0.656005
  H      2.389312    1.251764   -0.638682
  H      3.350988   -0.028179    0.114886
  H      2.428614   -0.361639   -1.354110

 Total Charge           Charge          ....    0
 Multiplicity           Mult            ....    1
 Number of Electrons    NEL             ....   42
 Basis Dimension        Dim             ....  155

ORBITAL ENERGIES
----------------

  NO   OCC          E(Eh)            E(eV)
   0   2.0000     -14.136135      -384.6638
   1   2.0000     -10.047599      -273.4091
   2   2.0000     -10.047588      -273.4088
   3   2.0000     -10.015931      -272.5473
   4   2.0000     -10.015927      -272.5472
   5   2.0000      -0.868181       -23.6244
   6   2.0000      -0.727892       -19.8070
   7   2.0000      -0.675477       -18.3807
   8   2.0000      -0.572698       -15.5839
   9   2.0000      -0.567329       -15.4378
  10   2.0000      -0.449948       -12.2437
  11   2.0000      -0.432028       -11.7561
  12   2.0000      -0.403615       -10.9829
  13   2.0000      -0.397888       -10.8271
  14   2.0000      -0.368379       -10.0241
  15   2.0000      -0.337392        -9.1809
  16   2.0000      -0.330690        -8.9985
  17   2.0000      -0.315159        -8.5759
  18   2.0000      -0.309038        -8.4093
  19   2.0000      -0.302952        -8.2438
  20   2.0000      -0.188656        -5.1336
  21   0.0000       0.081149         2.2082
  22   0.0000       0.109680         2.9845
  23   0.0000       0.116621         3.1734
  24   0.0000       0.123047         3.3483
  25   0.0000       0.147508         4.0139

MULLIKEN ATOMIC CHARGES
-----------------------
   0 C :   -0.463807
   1 C :   -0.181256
   2 N :   -0.310785
   3 C :   -0.181232
   4 C :   -0.464047
   5 H :    0.158967
   6 H :    0.135100
   7 H :    0.143501
   8 H :    0.116917
   9 H :    0.135969
  10 H :    0.220066
  11 H :    0.135994
  12 H :    0.116885
  13 H :    0.159010
  14 H :    0.143514
  15 H :    0.135202
Sum of atomic charges:   -0.0000000

LOEWDIN ATOMIC CHARGES
----------------------
   0 C :   -0.397385
   1 C :   -0.068986
   2 N :   -0.869864
   3 C :   -0.068977
   4 C :   -0.397395
   5 H :    0.158144
   6 H :    0.148244
   7 H :    0.152874
   8 H :    0.148422
   9 H :    0.170633
  10 H :    0.245944
  11 H :    0.170622
  12 H :    0.148427
  13 H :    0.158171
  14 H :    0.152892
  15 H :    0.148235

  Mayer bond orders larger than 0.100000
B(  0-C ,  1-C ) :   0.9389 B(  0-C ,  5-H ) :   0.9757 B(  0-C ,  6-H ) :   0.9750
B(  0-C ,  7-H ) :   0.9737 B(  1-C ,  2-N ) :   0.9561 B(  1-C ,  8-H ) :   0.9465
B(  1-C ,  9-H ) :   0.9668 B(  2-N ,  3-C ) :   0.9562 B(  2-N , 10-H ) :   0.9105
B(  3-C ,  4-C ) :   0.9387 B(  3-C , 11-H ) :   0.9668 B(  3-C , 12-H ) :   0.9464
B(  4-C , 13-H ) :   0.9757 B(  4-C , 14-H ) :   0.9736 B(  4-C , 15-H ) :   0.9750

Dispersion correction           -0.003283153
FINAL SINGLE POINT ENERGY      -213.715291121666

DIPOLE MOMENT
-------------

Method             : SCF
Type of density    : Electron Density
Multiplicity       :   1
Irrep              :   0
Energy             :  -213.7240967590277592 Eh
Relativity type    :
Basis              : AO
                                X                 Y                 Z
Electronic contribution:     -0.001499795       0.360415405       0.102396211
Nuclear contribution   :      0.005997331      -0.704350467      -0.116054582
                        -----------------------------------------
Total Dipole Moment    :      0.004497537      -0.343935062      -0.013658371
                        -----------------------------------------
Magnitude (a.u.)       :      0.344235539
Magnitude (Debye)      :      0.874977204

Rotational constants in cm-1:             0.592533             0.070730             0.066612
Rotational constants in MHz :         17763.684485          2120.427510          1996.981362

                             ****ORCA TERMINATED NORMALLY****
TOTAL RUN TIME: 0 days 0 hours 0 minutes 14 seconds 683 msec
