                         Program Version 6.0.0  -   RELEASE  -
|  1> ! r2scan-3c def2/J RI DEFGRID2 scfconv6 printgap
|  2> %output
|  3>     printlevel normal
|  4> end
|  5> %cpcm
|  6>     smd true
|  7>     smdsolvent "water"
|  8> end
|  9> * xyz 0 1
| 10> C -2.4551889796 0.1208900234 -0.2587019169
| 11> C -1.1930385974 -0.2392826523 0.5119358569
| 12> N -0.0095727031 0.1684503984 -0.2232509228
| 13> C 1.2298651354 -0.2045990421 0.433908906
| 14> C 2.4289847734 0.1896354354 -0.4165204994
| 15> H -2.461203859 1.1841517599 -0.4790481074
| 16> H -2.4985949444 -0.4284195795 -1.196475126
| 17> H -3.3345015426 -0.125032787 0.3297576153
| 18> H -1.1887286988 -1.3240288939 0.7343773352
| 19> H -1.1795339915 0.2902133717 1.4703180699
| 20> H -0.0335613364 -0.2478299211 -1.150677103
| 21> H 1.2632157306 0.3259013799 1.3912555379
| 22> H 1.2704430824 -1.2886605938 0.6560049994
| 23> H 2.3893120944 1.251764174 -0.6386817053
| 24> H 3.3509879525 -0.0281787663 0.1148859977
| 25> H 2.428614293 -0.3616388277 -1.3541097445
| 26> *
| 27>
| 28>                          ****END OF INPUT****

CARTESIAN COORDINATES (ANGSTROEM)
---------------------------------
  C     -2.455189    0.120890   -0.258702
  C     -1.193039   -0.239283    0.511936
  N     -0.009573    0.168450   -0.223251
  C      1.229865   -0.204599    0.433909
  C      2.428985    0.189635   -0.416520
  H     -2.461204    1.184152   -0.479048
  H     -2.498595   -0.428420   -1.196475
  H     -3.334502   -0.125033    0.329758
  H     -1.188729   -1.324029    0.734377
  H     -1.179534    0.290213    1.470318
  H     -0.033561   -0.247830   -1.150677
  H      1.263216    0.325901    1.391256
  H      1.270443   -1.288661    0.656005
  H      2.389312    1.251764   -0.638682
  H      3.350988   -0.028179    0.114886
  H      2.428614   -0.361639   -1.354110

 Total Charge           Charge          ....    0
 Multiplicity           Mult            ....    1
 Number of Electrons    NEL             ....   42
 Basis Dimension        Dim             ....  155

ORBITAL ENERGIES
----------------

  NO   OCC          E(Eh)            E(eV)
   0   2.0000     -14.133812      -384.6006
   1   2.0000     -10.041722      -273.2492
   2   2.0000     -10.041713      -273.2489
   3   2.0000     -10.009435      -272.3706
   4   2.0000     -10.009431      -272.3705
   5   2.0000      -0.864261       -23.5177
   6   2.0000      -0.722400       -19.6575
   7   2.0000      -0.669773       -18.2255
   8   2.0000      -0.567190       -15.4340
   9   2.0000      -0.561675       -15.2840
  10   2.0000      -0.445078       -12.1112
  11   2.0000      -0.426953       -11.6180
  12   2.0000      -0.397571       -10.8185
  13   2.0000      -0.392513       -10.6808
  14   2.0000      -0.361527        -9.8376
  15   2.0000      -0.332593        -9.0503
  16   2.0000      -0.324642        -8.8339
  17   2.0000      -0.308476        -8.3941
  18   2.0000      -0.303470        -8.2579
  19   2.0000      -0.296776        -8.0757
  20   2.0000      -0.189547        -5.1578
  21   0.0000       0.091219         2.4822
  22   0.0000       0.116234         3.1629
  23   0.0000       0.123898         3.3714
  24   0.0000       0.130918         3.5625
  25   0.0000       0.153170         4.1680

MULLIKEN ATOMIC CHARGES
-----------------------
   0 C :   -0.500731
   1 C :   -0.194845
   2 N :   -0.372732
   3 C :   -0.194807
   4 C :   -0.500715
   5 H :    0.156760
   6 H :    0.156038
   7 H :    0.158322
   8 H :    0.126120
   9 H :    0.149706
  10 H :    0.269924
  11 H :    0.149713
  12 H :    0.126103
  13 H :    0.156698
  14 H :    0.158293
  15 H :    0.156154
Sum of atomic charges:    0.0000000

LOEWDIN ATOMIC CHARGES
----------------------
   0 C :   -0.405568
   1 C :   -0.071166
   2 N :   -0.890061
   3 C :   -0.071169
   4 C :   -0.405545
   5 H :    0.155687
   6 H :    0.154483
   7 H :    0.157428
   8 H :    0.152865
   9 H :    0.173049
  10 H :    0.256477
  11 H :    0.173032
  12 H :    0.152873
  13 H :    0.155686
  14 H :    0.157432
  15 H :    0.154496

  Mayer bond orders larger than 0.100000
B(  0-C ,  1-C ) :   0.9297 B(  0-C ,  5-H ) :   0.9748 B(  0-C ,  6-H ) :   0.9713
B(  0-C ,  7-H ) :   0.9700 B(  1-C ,  2-N ) :   0.9615 B(  1-C ,  8-H ) :   0.9477
B(  1-C ,  9-H ) :   0.9658 B(  2-N ,  3-C ) :   0.9616 B(  2-N , 10-H ) :   0.8952
B(  3-C ,  4-C ) :   0.9296 B(  3-C , 11-H ) :   0.9658 B(  3-C , 12-H ) :   0.9477
B(  4-C , 13-H ) :   0.9749 B(  4-C , 14-H ) :   0.9700 B(  4-C , 15-H ) :   0.9712

Dispersion correction           -0.003283153
FINAL SINGLE POINT ENERGY      -213.719684663713

DIPOLE MOMENT
-------------

Method             : SCF
Type of density    : Electron Density
Multiplicity       :   1
Irrep              :   0
Energy             :  -213.7284903010746859 Eh
Relativity type    :
Basis              : AO
                                X                 Y                 Z
Electronic contribution:      0.001130750       0.151561811       0.092410664
Nuclear contribution   :      0.005997331      -0.704350467      -0.116054582
                        -----------------------------------------
Total Dipole Moment    :      0.007128082      -0.552788657      -0.023643918
                        -----------------------------------------
Magnitude (a.u.)       :      0.553339989
Magnitude (Debye)      :      1.406478477

Rotational constants in cm-1:             0.592533             0.070730             0.066612
Rotational constants in MHz :         17763.684485          2120.427510          1996.981362

                             ****ORCA TERMINATED NORMALLY****
TOTAL RUN TIME: 0 days 0 hours 0 minutes 17 seconds 371 msec
