                         Program Version 6.0.0  -   RELEASE  -
|  1> ! r2scan-3c def2/J RI DEFGRID2 scfconv6 printgap
|  2> %output
|  3>     printlevel normal
|  4> end
|  5> * xyz 0 1
|  6> C -0.3004988228 -2.7618562355 -0.1789743352
|  7> C 0.4980434635 -1.5044810598 -0.0520402792
|  8> C 1.8643408887 -1.4335713959 -0.3684358233
|  9> N 2.5584484851 -0.3176278914 -0.2424987514
| 10> C 1.9295124218 0.7832161746 0.1994482181
| 11> N 0.6160892646 0.8252400442 0.4974851021
| 12> C -0.0536313795 -0.2992154409 0.3606062123
| 13> O -1.4003508405 -0.2150283649 0.7078547285
| 14> C -2.2745102509 -0.063201505 -0.3288881437
| 15> O -1.9112271188 -0.0784727257 -1.4962006552
| 16> N -3.535715702 0.0866574249 0.0775247733
| 17> C -4.595598634 0.2386840879 -0.8968145527
| 18> C -3.9466638773 0.1090535855 1.4647511004
| 19> N 2.6449972682 1.9016480197 0.3512743779
| 20> C 2.052166541 3.1370198735 0.8008647896
| 21> C 4.0521366896 1.9536199817 0.0358608315
| 22> C 2.6044305182 -2.6299786663 -0.8684683992
| 23> H 0.2530876088 -3.6084294496 0.2198937839
| 24> H -1.2402047716 -2.6668684555 0.3605963771
| 25> H -0.5265072905 -2.9575308733 -1.2277008916
| 26> H -5.3247032206 -0.5623821664 -0.7745394917
| 27> H -4.1611201488 0.1905699383 -1.8922967575
| 28> H -5.0880495914 1.2014089634 -0.759105301
| 29> H -4.5120524546 1.0213453915 1.6552098635
| 30> H -3.0734760599 0.0831998235 2.1086158739
| 31> H -4.5803974089 -0.7540779423 1.6736749989
| 32> H 2.5533785492 3.4764197068 1.7087965503
| 33> H 0.9994492804 2.9690518674 1.0039838332
| 34> H 2.1583478188 3.902017763 0.0294599629
| 35> H 4.6135829357 2.2668818035 0.917237034
| 36> H 4.2253859489 2.670660894 -0.7684959968
| 37> H 4.3778457569 0.9670458202 -0.2771753084
| 38> H 3.6216071616 -2.3464655156 -1.1170527499
| 39> H 2.6215707082 -3.402883041 -0.102775244
| 40> H 2.1075857532 -3.0333782029 -1.747590352
| 41> *
| 42>
| 43>                          ****END OF INPUT****

CARTESIAN COORDINATES (ANGSTROEM)
---------------------------------
  C     -0.300499   -2.761856   -0.178974
  C      0.498043   -1.504481   -0.052040
  C      1.864341   -1.433571   -0.368436
  N      2.558448   -0.317628   -0.242499
  C      1.929512    0.783216    0.199448
  N      0.616089    0.825240    0.497485
  C     -0.053631   -0.299215    0.360606
  O     -1.400351   -0.215028    0.707855
  C     -2.274510   -0.063202   -0.328888
  O     -1.911227   -0.078473   -1.496201
  N     -3.535716    0.086657    0.077525
  C     -4.595599    0.238684   -0.896815
  C     -3.946664    0.109054    1.464751
  N      2.644997    1.901648    0.351274
  C      2.052167    3.137020    0.800865
  C      4.052137    1.953620    0.035861
  C      2.604431   -2.629979   -0.868468
  H      0.253088   -3.608429    0.219894
  H     -1.240205   -2.666868    0.360596
  H     -0.526507   -2.957531   -1.227701
  H     -5.324703   -0.562382   -0.774539
  H     -4.161120    0.190570   -1.892297
  H     -5.088050    1.201409   -0.759105
  H     -4.512052    1.021345    1.655210
  H     -3.073476    0.083200    2.108616
  H     -4.580397   -0.754078    1.673675
  H      2.553379    3.476420    1.708797
  H      0.999449    2.969052    1.003984
  H      2.158348    3.902018    0.029460
  H      4.613583    2.266882    0.917237
  H      4.225386    2.670661   -0.768496
  H      4.377846    0.967046   -0.277175
  H      3.621607   -2.346466   -1.117053
  H      2.621571   -3.402883   -0.102775
  H      2.107586   -3.033378   -1.747590

 Total Charge           Charge          ....    0
 Multiplicity           Mult            ....    1
 Number of Electrons    NEL             ....  128
 Basis Dimension        Dim             ....  443

ORBITAL ENERGIES
----------------

  NO   OCC          E(Eh)            E(eV)
   0   2.0000     -18.994160      -516.8574
   1   2.0000     -18.906777      -514.4796
   2   2.0000     -14.197693      -386.3389
   3   2.0000     -14.184200      -385.9717
   4   2.0000     -14.139849      -384.7648
   5   2.0000     -14.134802      -384.6275
   6   2.0000     -10.167777      -276.6793
   7   2.0000     -10.122505      -275.4474
   8   2.0000     -10.119125      -275.3554
   9   2.0000     -10.074911      -274.1523
  10   2.0000     -10.066920      -273.9348
  11   2.0000     -10.062930      -273.8263
  12   2.0000     -10.051563      -273.5169
  13   2.0000     -10.051242      -273.5082
  14   2.0000     -10.030422      -272.9416
  15   2.0000     -10.023915      -272.7646
  16   2.0000     -10.023461      -272.7523
  17   2.0000      -1.075703       -29.2714
  18   2.0000      -0.978536       -26.6273
  19   2.0000      -0.961801       -26.1719
  20   2.0000      -0.915031       -24.8993
  21   2.0000      -0.893819       -24.3221
  22   2.0000      -0.844933       -22.9918
  23   2.0000      -0.768849       -20.9214
  24   2.0000      -0.706111       -19.2143
  25   2.0000      -0.699260       -19.0278
  26   2.0000      -0.692001       -18.8303
  27   2.0000      -0.682269       -18.5655
  28   2.0000      -0.673180       -18.3182
  29   2.0000      -0.624307       -16.9883
  30   2.0000      -0.600641       -16.3443
  31   2.0000      -0.553616       -15.0646
  32   2.0000      -0.529277       -14.4024
  33   2.0000      -0.504615       -13.7313
  34   2.0000      -0.502560       -13.6754
  35   2.0000      -0.474399       -12.9090
  36   2.0000      -0.456538       -12.4230
  37   2.0000      -0.452852       -12.3227
  38   2.0000      -0.443925       -12.0798
  39   2.0000      -0.420876       -11.4526
  40   2.0000      -0.415127       -11.2962
  41   2.0000      -0.410529       -11.1711
  42   2.0000      -0.393737       -10.7141
  43   2.0000      -0.387377       -10.5411
  44   2.0000      -0.383507       -10.4358
  45   2.0000      -0.378438       -10.2978
  46   2.0000      -0.373945       -10.1756
  47   2.0000      -0.372811       -10.1447
  48   2.0000      -0.370430       -10.0799
  49   2.0000      -0.366085        -9.9617
  50   2.0000      -0.361470        -9.8361
  51   2.0000      -0.357652        -9.7322
  52   2.0000      -0.352778        -9.5996
  53   2.0000      -0.350965        -9.5502
  54   2.0000      -0.344539        -9.3754
  55   2.0000      -0.338618        -9.2143
  56   2.0000      -0.275683        -7.5017
  57   2.0000      -0.269302        -7.3281
  58   2.0000      -0.267745        -7.2857
  59   2.0000      -0.259260        -7.0548
  60   2.0000      -0.233007        -6.3404
  61   2.0000      -0.218430        -5.9438
  62   2.0000      -0.205816        -5.6005
  63   2.0000      -0.177458        -4.8289
  64   0.0000      -0.040479        -1.1015
  65   0.0000      -0.007791        -0.2120
  66   0.0000       0.030722         0.8360
  67   0.0000       0.060834         1.6554
  68   0.0000       0.078929         2.1478

MULLIKEN ATOMIC CHARGES
-----------------------
   0 C :   -0.614568
   1 C :    0.018707
   2 C :    0.254049
   3 N :   -0.243553
   4 C :    0.067283
   5 N :   -0.257873
   6 C :    0.159667
   7 O :   -0.134672
   8 C :    0.257548
   9 O :   -0.485168
  10 N :    0.075348
  11 C :   -0.385433
  12 C :   -0.380563
  13 N :    0.159170
  14 C :   -0.383788
  15 C :   -0.381371
  16 C :   -0.648206
  17 H :    0.144906
  18 H :    0.165911
  19 H :    0.191495
  20 H :    0.140917
  21 H :    0.201610
  22 H :    0.143979
  23 H :    0.142633
  24 H :    0.186348
  25 H :    0.146881
  26 H :    0.139097
  27 H :    0.198324
  28 H :    0.140624
  29 H :    0.138638
  30 H :    0.141077
  31 H :    0.198229
  32 H :    0.176377
  33 H :    0.165386
  34 H :    0.160991
Sum of atomic charges:   -0.0000000

LOEWDIN ATOMIC CHARGES
----------------------
   0 C :   -0.373189
   1 C :   -0.065147
   2 C :    0.178728
   3 N :   -0.567597
   4 C :    0.435589
   5 N :   -0.477596
   6 C :    0.395624
   7 O :   -0.470589
   8 C :    0.476400
   9 O :   -0.420919
  10 N :   -0.786027
  11 C :   -0.097734
  12 C :   -0.097045
  13 N :   -0.793308
  14 C :   -0.103764
  15 C :   -0.104834
  16 C :   -0.354594
  17 H :    0.159642
  18 H :    0.172602
  19 H :    0.171053
  20 H :    0.172061
  21 H :    0.209624
  22 H :    0.172674
  23 H :    0.173544
  24 H :    0.205722
  25 H :    0.171269
  26 H :    0.170503
  27 H :    0.210680
  28 H :    0.171280
  29 H :    0.170509
  30 H :    0.170840
  31 H :    0.210469
  32 H :    0.175365
  33 H :    0.168517
  34 H :    0.169646

  Mayer bond orders larger than 0.100000
B(  0-C ,  1-C ) :   0.6786 B(  0-C , 17-H ) :   0.9686 B(  0-C , 18-H ) :   0.9985
B(  0-C , 19-H ) :   0.9869 B(  1-C ,  2-C ) :   1.3342 B(  1-C ,  6-C ) :   1.3927
B(  2-C ,  3-N ) :   1.3572 B(  2-C , 16-C ) :   0.7618 B(  3-N ,  4-C ) :   1.3441
B(  4-C ,  5-N ) :   1.3515 B(  4-C ,  6-C ) :   0.1015 B(  4-C , 13-N ) :   1.3280
B(  5-N ,  6-C ) :   1.5460 B(  6-C ,  7-O ) :   1.0591 B(  7-O ,  8-C ) :   1.0121
B(  8-C ,  9-O ) :   1.7933 B(  8-C , 10-N ) :   1.3284 B( 10-N , 11-C ) :   0.9191
B( 10-N , 12-C ) :   0.9034 B( 11-C , 20-H ) :   0.9543 B( 11-C , 21-H ) :   0.9549
B( 11-C , 22-H ) :   0.9566 B( 12-C , 23-H ) :   0.9569 B( 12-C , 24-H ) :   0.9578
B( 12-C , 25-H ) :   0.9575 B( 13-N , 14-C ) :   0.9116 B( 13-N , 15-C ) :   0.9127
B( 14-C , 26-H ) :   0.9583 B( 14-C , 27-H ) :   0.9551 B( 14-C , 28-H ) :   0.9550
B( 15-C , 29-H ) :   0.9578 B( 15-C , 30-H ) :   0.9561 B( 15-C , 31-H ) :   0.9540
B( 16-C , 32-H ) :   1.0125 B( 16-C , 33-H ) :   0.9794 B( 16-C , 34-H ) :   0.9630

Dispersion correction           -0.013577782
FINAL SINGLE POINT ENERGY      -799.295672623468

DIPOLE MOMENT
-------------

Method             : SCF
Type of density    : Electron Density
Multiplicity       :   1
Irrep              :   0
Energy             :  -799.3197379745836315 Eh
Relativity type    :
Basis              : AO
                                X                 Y                 Z
Electronic contribution:      0.470461394       0.548850582      -0.218512093
Nuclear contribution   :     -0.950947515      -0.537998897       0.940310956
                        -----------------------------------------
Total Dipole Moment    :     -0.480486120       0.010851685       0.721798864
                        -----------------------------------------
Magnitude (a.u.)       :      0.867166807
Magnitude (Debye)      :      2.204162855

Rotational constants in cm-1:             0.024674             0.009720             0.007663
Rotational constants in MHz :           739.712156           291.396164           229.734458

                             ****ORCA TERMINATED NORMALLY****
TOTAL RUN TIME: 0 days 0 hours 1 minutes 25 seconds 135 msec
