                         Program Version 6.0.0  -   RELEASE  -
|  1> ! r2scan-3c def2/J RI DEFGRID2 scfconv6 printgap
|  2> %output
|  3>     printlevel normal
|  4> end
|  5> %cpcm
|  6>     smd true
|  7>     smdsolvent "water"
|  8> end
|  9> * xyz 0 1
| 10> C -0.3004988228 -2.7618562355 -0.1789743352
| 11> C 0.4980434635 -1.5044810598 -0.0520402792
| 12> C 1.8643408887 -1.4335713959 -0.3684358233
| 13> N 2.5584484851 -0.3176278914 -0.2424987514
| 14> C 1.9295124218 0.7832161746 0.1994482181
| 15> N 0.6160892646 0.8252400442 0.4974851021
| 16> C -0.0536313795 -0.2992154409 0.3606062123
| 17> O -1.4003508405 -0.2150283649 0.7078547285
| 18> C -2.2745102509 -0.063201505 -0.3288881437
| 19> O -1.9112271188 -0.0784727257 -1.4962006552
| 20> N -3.535715702 0.0866574249 0.0775247733
| 21> C -4.595598634 0.2386840879 -0.8968145527
| 22> C -3.9466638773 0.1090535855 1.4647511004
| 23> N 2.6449972682 1.9016480197 0.3512743779
| 24> C 2.052166541 3.1370198735 0.8008647896
| 25> C 4.0521366896 1.9536199817 0.0358608315
| 26> C 2.6044305182 -2.6299786663 -0.8684683992
| 27> H 0.2530876088 -3.6084294496 0.2198937839
| 28> H -1.2402047716 -2.6668684555 0.3605963771
| 29> H -0.5265072905 -2.9575308733 -1.2277008916
| 30> H -5.3247032206 -0.5623821664 -0.7745394917
| 31> H -4.1611201488 0.1905699383 -1.8922967575
| 32> H -5.0880495914 1.2014089634 -0.759105301
| 33> H -4.5120524546 1.0213453915 1.6552098635
| 34> H -3.0734760599 0.0831998235 2.1086158739
| 35> H -4.5803974089 -0.7540779423 1.6736749989
| 36> H 2.5533785492 3.4764197068 1.7087965503
| 37> H 0.9994492804 2.9690518674 1.0039838332
| 38> H 2.1583478188 3.902017763 0.0294599629
| 39> H 4.6135829357 2.2668818035 0.917237034
| 40> H 4.2253859489 2.670660894 -0.7684959968
| 41> H 4.3778457569 0.9670458202 -0.2771753084
| 42> H 3.6216071616 -2.3464655156 -1.1170527499
| 43> H 2.6215707082 -3.402883041 -0.102775244
| 44> H 2.1075857532 -3.0333782029 -1.747590352
| 45> *
| 46>
| 47>                          ****END OF INPUT****

CARTESIAN COORDINATES (ANGSTROEM)
---------------------------------
  C     -0.300499   -2.761856   -0.178974
  C      0.498043   -1.504481   -0.052040
  C      1.864341   -1.433571   -0.368436
  N      2.558448   -0.317628   -0.242499
  C      1.929512    0.783216    0.199448
  N      0.616089    0.825240    0.497485
  C     -0.053631   -0.299215    0.360606
  O     -1.400351   -0.215028    0.707855
  C     -2.274510   -0.063202   -0.328888
  O     -1.911227   -0.078473   -1.496201
  N     -3.535716    0.086657    0.077525
  C     -4.595599    0.238684   -0.896815
  C     -3.946664    0.109054    1.464751
  N      2.644997    1.901648    0.351274
  C      2.052167    3.137020    0.800865
  C      4.052137    1.953620    0.035861
  C      2.604431   -2.629979   -0.868468
  H      0.253088   -3.608429    0.219894
  H     -1.240205   -2.666868    0.360596
  H     -0.526507   -2.957531   -1.227701
  H     -5.324703   -0.562382   -0.774539
  H     -4.161120    0.190570   -1.892297
  H     -5.088050    1.201409   -0.759105
  H     -4.512052    1.021345    1.655210
  H     -3.073476    0.083200    2.108616
  H     -4.580397   -0.754078    1.673675
  H      2.553379    3.476420    1.708797
  H      0.999449    2.969052    1.003984
  H      2.158348    3.902018    0.029460
  H      4.613583    2.266882    0.917237
  H      4.225386    2.670661   -0.768496
  H      4.377846    0.967046   -0.277175
  H      3.621607   -2.346466   -1.117053
  H      2.621571   -3.402883   -0.102775
  H      2.107586   -3.033378   -1.747590

 Total Charge           Charge          ....    0
 Multiplicity           Mult            ....    1
 Number of Electrons    NEL             ....  128
 Basis Dimension        Dim             ....  443

ORBITAL ENERGIES
----------------

  NO   OCC          E(Eh)            E(eV)
   0   2.0000     -19.008461      -517.2465
   1   2.0000     -18.931035      -515.1396
   2   2.0000     -14.201885      -386.4529
   3   2.0000     -14.188786      -386.0965
   4   2.0000     -14.152860      -385.1189
   5   2.0000     -14.145555      -384.9201
   6   2.0000     -10.184595      -277.1369
   7   2.0000     -10.134252      -275.7670
   8   2.0000     -10.128960      -275.6230
   9   2.0000     -10.083865      -274.3959
  10   2.0000     -10.054632      -273.6005
  11   2.0000     -10.053921      -273.5811
  12   2.0000     -10.047273      -273.4002
  13   2.0000     -10.046546      -273.3804
  14   2.0000     -10.038483      -273.1610
  15   2.0000     -10.022600      -272.7288
  16   2.0000     -10.020435      -272.6699
  17   2.0000      -1.091620       -29.7045
  18   2.0000      -0.997442       -27.1418
  19   2.0000      -0.972757       -26.4701
  20   2.0000      -0.920155       -25.0387
  21   2.0000      -0.899913       -24.4879
  22   2.0000      -0.857038       -23.3212
  23   2.0000      -0.775082       -21.0910
  24   2.0000      -0.708230       -19.2719
  25   2.0000      -0.700284       -19.0557
  26   2.0000      -0.687102       -18.6970
  27   2.0000      -0.680764       -18.5245
  28   2.0000      -0.673438       -18.3252
  29   2.0000      -0.626858       -17.0577
  30   2.0000      -0.606579       -16.5059
  31   2.0000      -0.558135       -15.1876
  32   2.0000      -0.535441       -14.5701
  33   2.0000      -0.510491       -13.8912
  34   2.0000      -0.503949       -13.7132
  35   2.0000      -0.481069       -13.0905
  36   2.0000      -0.462742       -12.5919
  37   2.0000      -0.455147       -12.3852
  38   2.0000      -0.446368       -12.1463
  39   2.0000      -0.420989       -11.4557
  40   2.0000      -0.416243       -11.3265
  41   2.0000      -0.415331       -11.3017
  42   2.0000      -0.400130       -10.8881
  43   2.0000      -0.392627       -10.6839
  44   2.0000      -0.390458       -10.6249
  45   2.0000      -0.372513       -10.1366
  46   2.0000      -0.371406       -10.1065
  47   2.0000      -0.370458       -10.0807
  48   2.0000      -0.365436        -9.9440
  49   2.0000      -0.363862        -9.9012
  50   2.0000      -0.359951        -9.7948
  51   2.0000      -0.358087        -9.7441
  52   2.0000      -0.352556        -9.5935
  53   2.0000      -0.350368        -9.5340
  54   2.0000      -0.344294        -9.3687
  55   2.0000      -0.340574        -9.2675
  56   2.0000      -0.293944        -7.9986
  57   2.0000      -0.282517        -7.6877
  58   2.0000      -0.280838        -7.6420
  59   2.0000      -0.265277        -7.2186
  60   2.0000      -0.259183        -7.0527
  61   2.0000      -0.224025        -6.0960
  62   2.0000      -0.218918        -5.9570
  63   2.0000      -0.184030        -5.0077
  64   0.0000      -0.052328        -1.4239
  65   0.0000      -0.017093        -0.4651
  66   0.0000       0.015633         0.4254
  67   0.0000       0.056082         1.5261
  68   0.0000       0.075278         2.0484

MULLIKEN ATOMIC CHARGES
-----------------------
   0 C :   -0.643459
   1 C :   -0.006697
   2 C :    0.256338
   3 N :   -0.276388
   4 C :    0.068652
   5 N :   -0.283239
   6 C :    0.134854
   7 O :   -0.137661
   8 C :    0.276352
   9 O :   -0.573947
  10 N :    0.083355
  11 C :   -0.407731
  12 C :   -0.405056
  13 N :    0.159731
  14 C :   -0.413645
  15 C :   -0.411102
  16 C :   -0.665332
  17 H :    0.173623
  18 H :    0.185440
  19 H :    0.201424
  20 H :    0.172539
  21 H :    0.190126
  22 H :    0.174130
  23 H :    0.171037
  24 H :    0.189631
  25 H :    0.174452
  26 H :    0.167090
  27 H :    0.192079
  28 H :    0.167023
  29 H :    0.166127
  30 H :    0.167001
  31 H :    0.193732
  32 H :    0.181854
  33 H :    0.194343
  34 H :    0.183321
Sum of atomic charges:   -0.0000000

LOEWDIN ATOMIC CHARGES
----------------------
   0 C :   -0.376014
   1 C :   -0.070888
   2 C :    0.182600
   3 N :   -0.588037
   4 C :    0.429059
   5 N :   -0.507873
   6 C :    0.382135
   7 O :   -0.473466
   8 C :    0.475048
   9 O :   -0.492680
  10 N :   -0.770784
  11 C :   -0.093915
  12 C :   -0.091291
  13 N :   -0.790461
  14 C :   -0.103403
  15 C :   -0.104231
  16 C :   -0.356087
  17 H :    0.171199
  18 H :    0.177640
  19 H :    0.174005
  20 H :    0.185710
  21 H :    0.203969
  22 H :    0.185436
  23 H :    0.186077
  24 H :    0.206144
  25 H :    0.184365
  26 H :    0.182010
  27 H :    0.206382
  28 H :    0.181587
  29 H :    0.181713
  30 H :    0.181097
  31 H :    0.206905
  32 H :    0.176160
  33 H :    0.180947
  34 H :    0.178943

  Mayer bond orders larger than 0.100000
B(  0-C ,  1-C ) :   0.6976 B(  0-C , 17-H ) :   0.9608 B(  0-C , 18-H ) :   0.9936
B(  0-C , 19-H ) :   0.9764 B(  1-C ,  2-C ) :   1.3127 B(  1-C ,  6-C ) :   1.4012
B(  2-C ,  3-N ) :   1.3610 B(  2-C , 16-C ) :   0.7861 B(  3-N ,  4-C ) :   1.3427
B(  4-C ,  5-N ) :   1.3420 B(  4-C , 13-N ) :   1.3528 B(  5-N ,  6-C ) :   1.5430
B(  6-C ,  7-O ) :   1.0420 B(  7-O ,  8-C ) :   1.0174 B(  8-C ,  9-O ) :   1.7199
B(  8-C , 10-N ) :   1.3849 B( 10-N , 11-C ) :   0.9083 B( 10-N , 12-C ) :   0.8943
B( 11-C , 20-H ) :   0.9458 B( 11-C , 21-H ) :   0.9560 B( 11-C , 22-H ) :   0.9473
B( 12-C , 23-H ) :   0.9484 B( 12-C , 24-H ) :   0.9538 B( 12-C , 25-H ) :   0.9476
B( 13-N , 14-C ) :   0.8988 B( 13-N , 15-C ) :   0.9002 B( 14-C , 26-H ) :   0.9503
B( 14-C , 27-H ) :   0.9570 B( 14-C , 28-H ) :   0.9482 B( 15-C , 29-H ) :   0.9501
B( 15-C , 30-H ) :   0.9490 B( 15-C , 31-H ) :   0.9554 B( 16-C , 32-H ) :   1.0081
B( 16-C , 33-H ) :   0.9625 B( 16-C , 34-H ) :   0.9514

Dispersion correction           -0.013577782
FINAL SINGLE POINT ENERGY      -799.310031007273

DIPOLE MOMENT
-------------

Method             : SCF
Type of density    : Electron Density
Multiplicity       :   1
Irrep              :   0
Energy             :  -799.3340963583883649 Eh
Relativity type    :
Basis              : AO
                                X                 Y                 Z
Electronic contribution:      0.258086204       0.467091488       0.223320016
Nuclear contribution   :     -0.950947515      -0.537998897       0.940310956
                        -----------------------------------------
Total Dipole Moment    :     -0.692861311      -0.070907409       1.163630973
                        -----------------------------------------
Magnitude (a.u.)       :      1.356142211
Magnitude (Debye)      :      3.447039560

Rotational constants in cm-1:             0.024674             0.009720             0.007663
Rotational constants in MHz :           739.712156           291.396164           229.734458

                             ****ORCA TERMINATED NORMALLY****
TOTAL RUN TIME: 0 days 0 hours 2 minutes 2 seconds 251 msec
