                         Program Version 6.0.0  -   RELEASE  -
|  1> ! pbe def2-sv(p) def2/J RI DEFGRID1 loosescf d4 GCP(DFT/SV(P)) printgap
|  2> %output
|  3>     printlevel normal
|  4> end
|  5> * xyz 0 1
|  6> C -2.5347901264 0.1377682152 -0.4898317474
|  7> C -2.0537943624 -1.1235602527 -0.1817662439
|  8> C -0.7741677967 -1.2734135858 0.3233467719
|  9> C 0.0389444688 -0.166437436 0.5328252163
| 10> C -0.4516052369 1.0944227258 0.219084538
| 11> C -1.7292967695 1.2463310762 -0.2901135658
| 12> C 1.4428801648 -0.3359434834 1.0399224765
| 13> C 2.4304453056 -0.4638603768 -0.1259028618
| 14> O 2.517743108 0.7785350199 -0.7933085176
| 15> H -3.532974755 0.2561810126 -0.8844021806
| 16> H -2.6766670276 -1.9924053983 -0.3359737575
| 17> H -0.4024179826 -2.2601676159 0.5607055425
| 18> H 0.1803333435 1.9576618197 0.3658531135
| 19> H -2.0980389244 2.2325539808 -0.5307953011
| 20> H 1.7338965008 0.5308606842 1.6344386863
| 21> H 1.5181433292 -1.2338666579 1.6536483483
| 22> H 3.4165483596 -0.7510074989 0.2655116037
| 23> H 2.0811379533 -1.2455312436 -0.8137856072
| 24> H 3.0880840292 0.6900207825 -1.5675646897
| 25> *
| 26>
| 27>                          ****END OF INPUT****

CARTESIAN COORDINATES (ANGSTROEM)
---------------------------------
  C     -2.534790    0.137768   -0.489832
  C     -2.053794   -1.123560   -0.181766
  C     -0.774168   -1.273414    0.323347
  C      0.038944   -0.166437    0.532825
  C     -0.451605    1.094423    0.219085
  C     -1.729297    1.246331   -0.290114
  C      1.442880   -0.335943    1.039922
  C      2.430445   -0.463860   -0.125903
  O      2.517743    0.778535   -0.793309
  H     -3.532975    0.256181   -0.884402
  H     -2.676667   -1.992405   -0.335974
  H     -0.402418   -2.260168    0.560706
  H      0.180333    1.957662    0.365853
  H     -2.098039    2.232554   -0.530795
  H      1.733897    0.530861    1.634439
  H      1.518143   -1.233867    1.653648
  H      3.416548   -0.751007    0.265512
  H      2.081138   -1.245531   -0.813786
  H      3.088084    0.690021   -1.567565

 Total Charge           Charge          ....    0
 Multiplicity           Mult            ....    1
 Number of Electrons    NEL             ....   66
 Basis Dimension        Dim             ....  146

ORBITAL ENERGIES
----------------

  NO   OCC          E(Eh)            E(eV)
   0   2.0000     -18.743858      -510.0463
   1   2.0000      -9.934880      -270.3418
   2   2.0000      -9.895129      -269.2601
   3   2.0000      -9.889710      -269.1127
   4   2.0000      -9.884129      -268.9608
   5   2.0000      -9.883871      -268.9538
   6   2.0000      -9.883306      -268.9384
   7   2.0000      -9.882461      -268.9154
   8   2.0000      -9.881115      -268.8788
   9   2.0000      -0.919950       -25.0331
  10   2.0000      -0.771482       -20.9931
  11   2.0000      -0.704043       -19.1580
  12   2.0000      -0.661677       -18.0052
  13   2.0000      -0.639721       -17.4077
  14   2.0000      -0.558388       -15.1945
  15   2.0000      -0.536451       -14.5976
  16   2.0000      -0.510368       -13.8878
  17   2.0000      -0.469212       -12.7679
  18   2.0000      -0.456076       -12.4105
  19   2.0000      -0.415470       -11.3055
  20   2.0000      -0.401929       -10.9371
  21   2.0000      -0.388582       -10.5739
  22   2.0000      -0.367303        -9.9948
  23   2.0000      -0.364617        -9.9217
  24   2.0000      -0.344740        -9.3809
  25   2.0000      -0.332770        -9.0551
  26   2.0000      -0.317030        -8.6268
  27   2.0000      -0.294616        -8.0169
  28   2.0000      -0.289310        -7.8725
  29   2.0000      -0.276243        -7.5170
  30   2.0000      -0.223466        -6.0808
  31   2.0000      -0.213914        -5.8209
  32   2.0000      -0.213087        -5.7984
  33   0.0000      -0.027431        -0.7464
  34   0.0000      -0.025955        -0.7063
  35   0.0000       0.028489         0.7752
  36   0.0000       0.050401         1.3715
  37   0.0000       0.065982         1.7955

MULLIKEN ATOMIC CHARGES
-----------------------
   0 C :   -0.049186
   1 C :   -0.049222
   2 C :   -0.119882
   3 C :    0.060269
   4 C :   -0.092132
   5 C :   -0.052586
   6 C :   -0.115457
   7 C :    0.008851
   8 O :   -0.435208
   9 H :    0.048971
  10 H :    0.046699
  11 H :    0.033121
  12 H :    0.042671
  13 H :    0.048443
  14 H :    0.094106
  15 H :    0.084787
  16 H :    0.074527
  17 H :    0.070755
  18 H :    0.300473
Sum of atomic charges:    0.0000000

LOEWDIN ATOMIC CHARGES
----------------------
   0 C :   -0.129749
   1 C :   -0.124806
   2 C :   -0.127326
   3 C :   -0.039537
   4 C :   -0.113995
   5 C :   -0.122941
   6 C :   -0.220574
   7 C :   -0.113449
   8 O :   -0.346253
   9 H :    0.121134
  10 H :    0.121177
  11 H :    0.117594
  12 H :    0.124100
  13 H :    0.121879
  14 H :    0.129376
  15 H :    0.126295
  16 H :    0.093436
  17 H :    0.096767
  18 H :    0.286873

  Mayer bond orders larger than 0.100000
B(  0-C ,  1-C ) :   1.3827 B(  0-C ,  5-C ) :   1.3776 B(  0-C ,  9-H ) :   0.9651
B(  1-C ,  2-C ) :   1.3749 B(  1-C , 10-H ) :   0.9634 B(  2-C ,  3-C ) :   1.3934
B(  2-C , 11-H ) :   0.9598 B(  3-C ,  4-C ) :   1.4076 B(  3-C ,  6-C ) :   1.0707
B(  4-C ,  5-C ) :   1.3699 B(  4-C , 12-H ) :   0.9587 B(  5-C , 13-H ) :   0.9641
B(  6-C ,  7-C ) :   1.1073 B(  6-C , 14-H ) :   0.8996 B(  6-C , 15-H ) :   0.9033
B(  7-C ,  8-O ) :   1.0913 B(  7-C , 16-H ) :   0.9208 B(  7-C , 17-H ) :   0.9200
B(  8-O , 18-H ) :   0.8514

Dispersion correction           -0.018862633
FINAL SINGLE POINT ENERGY      -385.219093800641

DIPOLE MOMENT
-------------

Method             : SCF
Type of density    : Electron Density
Multiplicity       :   1
Irrep              :   0
Energy             :  -385.2807427123562434 Eh
Relativity type    :
Basis              : AO
                                X                 Y                 Z
Electronic contribution:     -2.625685007       1.309231598      -0.584370965
Nuclear contribution   :      3.140817310      -1.691895141       0.314384113
                        -----------------------------------------
Total Dipole Moment    :      0.515132303      -0.382663543      -0.269986852
                        -----------------------------------------
Magnitude (a.u.)       :      0.696193635
Magnitude (Debye)      :      1.769583589

Rotational constants in cm-1:             0.114787             0.036439             0.031324
Rotational constants in MHz :          3441.232732          1092.410625           939.073880

                             ****ORCA TERMINATED NORMALLY****
TOTAL RUN TIME: 0 days 0 hours 0 minutes 8 seconds 119 msec
