                         Program Version 6.0.0  -   RELEASE  -
|  1> ! pbe def2-sv(p) def2/J RI DEFGRID1 loosescf d4 GCP(DFT/SV(P)) printgap
|  2> %output
|  3>     printlevel normal
|  4> end
|  5> * xyz 0 1
|  6> C -2.7787259586 0.0743320079 0.6306490055
|  7> C -1.6863445227 0.7706079349 -0.1827179095
|  8> C -0.4946921197 -0.1396474148 -0.3374056568
|  9> O -0.5124540007 -1.213530234 -0.9043157782
| 10> O 0.588740767 0.3676569143 0.2308306137
| 11> C 1.813646698 -0.3838378854 0.1674228343
| 12> C 2.9737230791 0.5727992207 0.3671633997
| 13> H -2.4376663965 -0.1119026498 1.6458247849
| 14> H -3.6663490131 0.6981924987 0.6681858446
| 15> H -3.0331902512 -0.8772811621 0.1702426015
| 16> H -1.3636331163 1.6905129724 0.3019286021
| 17> H -2.0658462242 0.9935422752 -1.1808796305
| 18> H 1.782920525 -1.145261767 0.9531092093
| 19> H 1.8599815545 -0.8892067955 -0.8027983299
| 20> H 3.9055452078 0.0179180265 0.3348677325
| 21> H 2.9778342275 1.3252502113 -0.4161833973
| 22> H 2.8838083089 1.0689303473 1.3288995614
| 23> *
| 24>
| 25>                          ****END OF INPUT****

CARTESIAN COORDINATES (ANGSTROEM)
---------------------------------
  C     -2.778726    0.074332    0.630649
  C     -1.686345    0.770608   -0.182718
  C     -0.494692   -0.139647   -0.337406
  O     -0.512454   -1.213530   -0.904316
  O      0.588741    0.367657    0.230831
  C      1.813647   -0.383838    0.167423
  C      2.973723    0.572799    0.367163
  H     -2.437666   -0.111903    1.645825
  H     -3.666349    0.698192    0.668186
  H     -3.033190   -0.877281    0.170243
  H     -1.363633    1.690513    0.301929
  H     -2.065846    0.993542   -1.180880
  H      1.782921   -1.145262    0.953109
  H      1.859982   -0.889207   -0.802798
  H      3.905545    0.017918    0.334868
  H      2.977834    1.325250   -0.416183
  H      2.883808    1.068930    1.328900

 Total Charge           Charge          ....    0
 Multiplicity           Mult            ....    1
 Number of Electrons    NEL             ....   56
 Basis Dimension        Dim             ....  118

ORBITAL ENERGIES
----------------

  NO   OCC          E(Eh)            E(eV)
   0   2.0000     -18.797732      -511.5123
   1   2.0000     -18.728842      -509.6377
   2   2.0000     -10.003139      -272.1993
   3   2.0000      -9.946261      -270.6515
   4   2.0000      -9.897902      -269.3356
   5   2.0000      -9.889611      -269.1100
   6   2.0000      -9.884426      -268.9689
   7   2.0000      -1.003870       -27.3167
   8   2.0000      -0.906314       -24.6621
   9   2.0000      -0.720460       -19.6047
  10   2.0000      -0.689813       -18.7708
  11   2.0000      -0.604065       -16.4374
  12   2.0000      -0.555873       -15.1261
  13   2.0000      -0.505677       -13.7602
  14   2.0000      -0.451653       -12.2901
  15   2.0000      -0.434739       -11.8298
  16   2.0000      -0.412772       -11.2321
  17   2.0000      -0.399652       -10.8751
  18   2.0000      -0.380839       -10.3632
  19   2.0000      -0.358281        -9.7493
  20   2.0000      -0.356449        -9.6995
  21   2.0000      -0.342034        -9.3072
  22   2.0000      -0.324681        -8.8350
  23   2.0000      -0.314280        -8.5520
  24   2.0000      -0.306298        -8.3348
  25   2.0000      -0.292420        -7.9571
  26   2.0000      -0.255072        -6.9408
  27   2.0000      -0.215040        -5.8515
  28   0.0000      -0.018900        -0.5143
  29   0.0000       0.042390         1.1535
  30   0.0000       0.056286         1.5316
  31   0.0000       0.082836         2.2541
  32   0.0000       0.086916         2.3651

MULLIKEN ATOMIC CHARGES
-----------------------
   0 C :   -0.299004
   1 C :   -0.145841
   2 C :    0.097797
   3 O :   -0.215841
   4 O :   -0.237370
   5 C :   -0.029951
   6 C :   -0.276434
   7 H :    0.108412
   8 H :    0.111541
   9 H :    0.123836
  10 H :    0.096607
  11 H :    0.112427
  12 H :    0.103164
  13 H :    0.111492
  14 H :    0.111178
  15 H :    0.114265
  16 H :    0.113722
Sum of atomic charges:    0.0000000

LOEWDIN ATOMIC CHARGES
----------------------
   0 C :   -0.331820
   1 C :   -0.252841
   2 C :    0.034834
   3 O :   -0.174581
   4 O :   -0.069048
   5 C :   -0.110342
   6 C :   -0.350657
   7 H :    0.121413
   8 H :    0.122404
   9 H :    0.127607
  10 H :    0.126892
  11 H :    0.140092
  12 H :    0.115612
  13 H :    0.118367
  14 H :    0.130011
  15 H :    0.126260
  16 H :    0.125797

  Mayer bond orders larger than 0.100000
B(  0-C ,  1-C ) :   1.1429 B(  0-C ,  7-H ) :   0.9568 B(  0-C ,  8-H ) :   0.9534
B(  0-C ,  9-H ) :   0.9494 B(  1-C ,  2-C ) :   1.0252 B(  1-C , 10-H ) :   0.9141
B(  1-C , 11-H ) :   0.9015 B(  2-C ,  3-O ) :   2.0478 B(  2-C ,  4-O ) :   1.2197
B(  4-O ,  5-C ) :   0.9109 B(  5-C ,  6-C ) :   1.1545 B(  5-C , 12-H ) :   0.9359
B(  5-C , 13-H ) :   0.9206 B(  6-C , 14-H ) :   0.9449 B(  6-C , 15-H ) :   0.9520
B(  6-C , 16-H ) :   0.9487

Dispersion correction           -0.011564878
FINAL SINGLE POINT ENERGY      -346.244204182161

DIPOLE MOMENT
-------------

Method             : SCF
Type of density    : Electron Density
Multiplicity       :   1
Irrep              :   0
Energy             :  -346.3088509402682575 Eh
Relativity type    :
Basis              : AO
                                X                 Y                 Z
Electronic contribution:     -0.446676918      -2.039373297      -2.419497357
Nuclear contribution   :      0.792385781       2.586833145       2.807515708
                        -----------------------------------------
Total Dipole Moment    :      0.345708864       0.547459848       0.388018351
                        -----------------------------------------
Magnitude (a.u.)       :      0.754841139
Magnitude (Debye)      :      1.918653696

Rotational constants in cm-1:             0.212561             0.044594             0.039974
Rotational constants in MHz :          6372.416181          1336.903144          1198.379182

                             ****ORCA TERMINATED NORMALLY****
TOTAL RUN TIME: 0 days 0 hours 0 minutes 8 seconds 692 msec
