                         Program Version 6.0.0  -   RELEASE  -
|  1> ! r2scan-3c def2/J RI DEFGRID2 scfconv6 printgap
|  2> %output
|  3>     printlevel normal
|  4> end
|  5> * xyz 0 1
|  6> C 1.8000772751 -0.0502960105 1.052351576
|  7> C 1.1373863657 -0.4230970132 -0.2705052574
|  8> C 2.1512050727 -0.3605470603 -1.411214372
|  9> C -0.0514947158 0.5066125355 -0.5814264004
| 10> C -1.2752340467 0.2007008261 0.2490649987
| 11> O -1.2438206033 0.0792507696 1.4586518599
| 12> C -2.5469554716 0.0507326718 -0.5332978017
| 13> H 2.5897428792 -0.7577931672 1.2939268895
| 14> H 2.2352478828 0.9450977717 0.9904576488
| 15> H 1.0696638302 -0.0602527545 1.8572754039
| 16> H 0.7590876246 -1.4490390126 -0.1920400478
| 17> H 1.7026221891 -0.6823711473 -2.34773115
| 18> H 2.996705259 -1.0088767112 -1.1959922786
| 19> H 2.5196325459 0.6552897847 -1.5332527272
| 20> H -0.3056056936 0.4370667345 -1.6382464432
| 21> H 0.2475981103 1.535029785 -0.3649684328
| 22> H -3.3908202459 -0.0969807519 0.1349741666
| 23> H -2.7052882791 0.9347506402 -1.1455408463
| 24> H -2.4529796146 -0.8055289917 -1.1974693716
| 25> *
| 26>
| 27>                          ****END OF INPUT****

CARTESIAN COORDINATES (ANGSTROEM)
---------------------------------
  C      1.800077   -0.050296    1.052352
  C      1.137386   -0.423097   -0.270505
  C      2.151205   -0.360547   -1.411214
  C     -0.051495    0.506613   -0.581426
  C     -1.275234    0.200701    0.249065
  O     -1.243821    0.079251    1.458652
  C     -2.546955    0.050733   -0.533298
  H      2.589743   -0.757793    1.293927
  H      2.235248    0.945098    0.990458
  H      1.069664   -0.060253    1.857275
  H      0.759088   -1.449039   -0.192040
  H      1.702622   -0.682371   -2.347731
  H      2.996705   -1.008877   -1.195992
  H      2.519633    0.655290   -1.533253
  H     -0.305606    0.437067   -1.638246
  H      0.247598    1.535030   -0.364968
  H     -3.390820   -0.096981    0.134974
  H     -2.705288    0.934751   -1.145541
  H     -2.452980   -0.805529   -1.197469

 Total Charge           Charge          ....    0
 Multiplicity           Mult            ....    1
 Number of Electrons    NEL             ....   56
 Basis Dimension        Dim             ....  198

ORBITAL ENERGIES
----------------

  NO   OCC          E(Eh)            E(eV)
   0   2.0000     -18.937099      -515.3047
   1   2.0000     -10.119575      -275.3676
   2   2.0000     -10.043808      -273.3059
   3   2.0000     -10.036958      -273.1195
   4   2.0000     -10.034490      -273.0524
   5   2.0000     -10.020560      -272.6733
   6   2.0000     -10.008001      -272.3316
   7   2.0000      -1.003677       -27.3114
   8   2.0000      -0.783719       -21.3261
   9   2.0000      -0.728599       -19.8262
  10   2.0000      -0.666219       -18.1287
  11   2.0000      -0.649410       -17.6713
  12   2.0000      -0.542905       -14.7732
  13   2.0000      -0.501359       -13.6427
  14   2.0000      -0.444411       -12.0930
  15   2.0000      -0.434826       -11.8322
  16   2.0000      -0.424232       -11.5440
  17   2.0000      -0.404537       -11.0080
  18   2.0000      -0.391888       -10.6638
  19   2.0000      -0.379425       -10.3247
  20   2.0000      -0.359957        -9.7949
  21   2.0000      -0.352449        -9.5906
  22   2.0000      -0.342550        -9.3213
  23   2.0000      -0.323185        -8.7943
  24   2.0000      -0.306449        -8.3389
  25   2.0000      -0.300117        -8.1666
  26   2.0000      -0.297986        -8.1086
  27   2.0000      -0.211145        -5.7456
  28   0.0000      -0.046660        -1.2697
  29   0.0000       0.076065         2.0698
  30   0.0000       0.099600         2.7102
  31   0.0000       0.115908         3.1540
  32   0.0000       0.128977         3.5096

MULLIKEN ATOMIC CHARGES
-----------------------
   0 C :   -0.534583
   1 C :   -0.004193
   2 C :   -0.471464
   3 C :   -0.290552
   4 C :    0.288004
   5 O :   -0.360258
   6 C :   -0.519151
   7 H :    0.141846
   8 H :    0.141534
   9 H :    0.194718
  10 H :    0.146448
  11 H :    0.143429
  12 H :    0.150823
  13 H :    0.147241
  14 H :    0.151609
  15 H :    0.172528
  16 H :    0.176818
  17 H :    0.161871
  18 H :    0.163333
Sum of atomic charges:    0.0000000

LOEWDIN ATOMIC CHARGES
----------------------
   0 C :   -0.412452
   1 C :   -0.224486
   2 C :   -0.415478
   3 C :   -0.280316
   4 C :    0.220900
   5 O :   -0.474752
   6 C :   -0.386351
   7 H :    0.151284
   8 H :    0.151218
   9 H :    0.178775
  10 H :    0.159251
  11 H :    0.150874
  12 H :    0.155875
  13 H :    0.154755
  14 H :    0.165024
  15 H :    0.187025
  16 H :    0.172831
  17 H :    0.171982
  18 H :    0.174042

  Mayer bond orders larger than 0.100000
B(  0-C ,  1-C ) :   0.9178 B(  0-C ,  7-H ) :   0.9731 B(  0-C ,  8-H ) :   0.9871
B(  0-C ,  9-H ) :   0.9599 B(  1-C ,  2-C ) :   0.8975 B(  1-C ,  3-C ) :   0.8717
B(  1-C , 10-H ) :   0.9666 B(  2-C , 11-H ) :   0.9777 B(  2-C , 12-H ) :   0.9763
B(  2-C , 13-H ) :   0.9837 B(  3-C ,  4-C ) :   0.8852 B(  3-C , 14-H ) :   0.9663
B(  3-C , 15-H ) :   0.9392 B(  4-C ,  5-O ) :   1.9317 B(  4-C ,  6-C ) :   0.9342
B(  6-C , 16-H ) :   0.9882 B(  6-C , 17-H ) :   0.9479 B(  6-C , 18-H ) :   0.9461

Dispersion correction           -0.004957165
FINAL SINGLE POINT ENERGY      -311.002532083720

DIPOLE MOMENT
-------------

Method             : SCF
Type of density    : Electron Density
Multiplicity       :   1
Irrep              :   0
Energy             :  -311.0065324464095511 Eh
Relativity type    :
Basis              : AO
                                X                 Y                 Z
Electronic contribution:     -4.916145940       0.395527683       3.907296077
Nuclear contribution   :      4.921557332      -0.330566907      -4.986857172
                        -----------------------------------------
Total Dipole Moment    :      0.005411392       0.064960776      -1.079561095
                        -----------------------------------------
Magnitude (a.u.)       :      1.081527320
Magnitude (Debye)      :      2.749023978

Rotational constants in cm-1:             0.152048             0.054103             0.042838
Rotational constants in MHz :          4558.287121          1621.952503          1284.244841

                             ****ORCA TERMINATED NORMALLY****
TOTAL RUN TIME: 0 days 0 hours 0 minutes 24 seconds 570 msec
