                         Program Version 6.0.0  -   RELEASE  -
|  1> ! pbe def2-sv(p) def2/J RI DEFGRID1 loosescf d4 GCP(DFT/SV(P)) printgap
|  2> %output
|  3>     printlevel normal
|  4> end
|  5> * xyz 0 1
|  6> C -2.3165955621 -0.0506064721 -1.0224235099
|  7> C -1.7658160048 0.6443679157 0.2179588136
|  8> C -0.58437684 -0.0616823572 0.884826661
|  9> C 0.7681156611 -0.1046585151 0.1432732446
| 10> C 1.070711613 1.2024782076 -0.596155171
| 11> C 0.8639243021 -1.2933245319 -0.8190096973
| 12> O 1.7236521527 -0.2831468362 1.1955587206
| 13> H -2.4919526973 -1.1050371466 -0.8228129999
| 14> H -1.6347837728 0.0359674291 -1.8639342039
| 15> H -3.261232057 0.4047062595 -1.3117091314
| 16> H -1.4964230501 1.6718198673 -0.0276741537
| 17> H -2.5626409405 0.6902080366 0.9643469606
| 18> H -0.3819968019 0.4437938206 1.8328344111
| 19> H -0.8674951199 -1.0885059279 1.1256187004
| 20> H 2.0803372233 1.1726738547 -1.001682926
| 21> H 1.0001243796 2.0426370876 0.0904320425
| 22> H 0.3772410022 1.3497860894 -1.4172832828
| 23> H 1.8352780956 -1.3010725486 -1.3105955025
| 24> H 0.0936943772 -1.241278352 -1.5793551814
| 25> H 0.7484406554 -2.2225998025 -0.265480374
| 26> H 2.6053080226 -0.369334197 0.8082903246
| 27> *
| 28>
| 29>                          ****END OF INPUT****

CARTESIAN COORDINATES (ANGSTROEM)
---------------------------------
  C     -2.316596   -0.050606   -1.022424
  C     -1.765816    0.644368    0.217959
  C     -0.584377   -0.061682    0.884827
  C      0.768116   -0.104659    0.143273
  C      1.070712    1.202478   -0.596155
  C      0.863924   -1.293325   -0.819010
  O      1.723652   -0.283147    1.195559
  H     -2.491953   -1.105037   -0.822813
  H     -1.634784    0.035967   -1.863934
  H     -3.261232    0.404706   -1.311709
  H     -1.496423    1.671820   -0.027674
  H     -2.562641    0.690208    0.964347
  H     -0.381997    0.443794    1.832834
  H     -0.867495   -1.088506    1.125619
  H      2.080337    1.172674   -1.001683
  H      1.000124    2.042637    0.090432
  H      0.377241    1.349786   -1.417283
  H      1.835278   -1.301073   -1.310596
  H      0.093694   -1.241278   -1.579355
  H      0.748441   -2.222600   -0.265480
  H      2.605308   -0.369334    0.808290

 Total Charge           Charge          ....    0
 Multiplicity           Mult            ....    1
 Number of Electrons    NEL             ....   58
 Basis Dimension        Dim             ....  126

ORBITAL ENERGIES
----------------

  NO   OCC          E(Eh)            E(eV)
   0   2.0000     -18.732823      -509.7460
   1   2.0000      -9.944252      -270.5969
   2   2.0000      -9.883521      -268.9443
   3   2.0000      -9.875384      -268.7229
   4   2.0000      -9.873879      -268.6819
   5   2.0000      -9.873133      -268.6616
   6   2.0000      -9.872124      -268.6342
   7   2.0000      -0.911450       -24.8018
   8   2.0000      -0.721848       -19.6425
   9   2.0000      -0.675380       -18.3780
  10   2.0000      -0.617352       -16.7990
  11   2.0000      -0.613640       -16.6980
  12   2.0000      -0.542107       -14.7515
  13   2.0000      -0.484401       -13.1812
  14   2.0000      -0.436773       -11.8852
  15   2.0000      -0.421323       -11.4648
  16   2.0000      -0.398211       -10.8359
  17   2.0000      -0.378920       -10.3109
  18   2.0000      -0.372344       -10.1320
  19   2.0000      -0.363998        -9.9049
  20   2.0000      -0.348242        -9.4761
  21   2.0000      -0.336560        -9.1583
  22   2.0000      -0.318801        -8.6750
  23   2.0000      -0.308571        -8.3966
  24   2.0000      -0.289356        -7.8738
  25   2.0000      -0.287577        -7.8254
  26   2.0000      -0.280462        -7.6317
  27   2.0000      -0.260072        -7.0769
  28   2.0000      -0.208511        -5.6739
  29   0.0000       0.023566         0.6413
  30   0.0000       0.049712         1.3527
  31   0.0000       0.065422         1.7802
  32   0.0000       0.073247         1.9932
  33   0.0000       0.083540         2.2732

MULLIKEN ATOMIC CHARGES
-----------------------
   0 C :   -0.292624
   1 C :   -0.177326
   2 C :   -0.114410
   3 C :   -0.048429
   4 C :   -0.225291
   5 C :   -0.231554
   6 O :   -0.426008
   7 H :    0.099136
   8 H :    0.118288
   9 H :    0.101139
  10 H :    0.087787
  11 H :    0.085784
  12 H :    0.089681
  13 H :    0.076582
  14 H :    0.081773
  15 H :    0.105457
  16 H :    0.101169
  17 H :    0.081713
  18 H :    0.097311
  19 H :    0.103103
  20 H :    0.286719
Sum of atomic charges:   -0.0000000

LOEWDIN ATOMIC CHARGES
----------------------
   0 C :   -0.345324
   1 C :   -0.234512
   2 C :   -0.218492
   3 C :   -0.011380
   4 C :   -0.338596
   5 C :   -0.340713
   6 O :   -0.325436
   7 H :    0.117669
   8 H :    0.113896
   9 H :    0.120055
  10 H :    0.115507
  11 H :    0.120098
  12 H :    0.124783
  13 H :    0.116527
  14 H :    0.113156
  15 H :    0.122444
  16 H :    0.120498
  17 H :    0.111248
  18 H :    0.121366
  19 H :    0.121291
  20 H :    0.275917

  Mayer bond orders larger than 0.100000
B(  0-C ,  1-C ) :   1.1610 B(  0-C ,  7-H ) :   0.9514 B(  0-C ,  8-H ) :   0.9377
B(  0-C ,  9-H ) :   0.9471 B(  1-C ,  2-C ) :   1.1361 B(  1-C , 10-H ) :   0.9112
B(  1-C , 11-H ) :   0.9202 B(  2-C ,  3-C ) :   1.0388 B(  2-C , 12-H ) :   0.9010
B(  2-C , 13-H ) :   0.9160 B(  3-C ,  4-C ) :   1.1002 B(  3-C ,  5-C ) :   1.0900
B(  3-C ,  6-O ) :   1.0124 B(  4-C , 14-H ) :   0.9374 B(  4-C , 15-H ) :   0.9410
B(  4-C , 16-H ) :   0.9242 B(  5-C , 17-H ) :   0.9401 B(  5-C , 18-H ) :   0.9271
B(  5-C , 19-H ) :   0.9395 B(  6-O , 20-H ) :   0.8543

Dispersion correction           -0.017278103
FINAL SINGLE POINT ENERGY      -311.518061063671

DIPOLE MOMENT
-------------

Method             : SCF
Type of density    : Electron Density
Multiplicity       :   1
Irrep              :   0
Energy             :  -311.5970638334302976 Eh
Relativity type    :
Basis              : AO
                                X                 Y                 Z
Electronic contribution:      3.793544143      -0.407394897       3.954707098
Nuclear contribution   :     -3.685889118       0.449648073      -4.465745563
                        -----------------------------------------
Total Dipole Moment    :      0.107655025       0.042253176      -0.511038465
                        -----------------------------------------
Magnitude (a.u.)       :      0.523961113
Magnitude (Debye)      :      1.331803310

Rotational constants in cm-1:             0.127566             0.056287             0.053802
Rotational constants in MHz :          3824.342528          1687.447037          1612.937838

                             ****ORCA TERMINATED NORMALLY****
TOTAL RUN TIME: 0 days 0 hours 0 minutes 9 seconds 539 msec
