                         Program Version 6.0.0  -   RELEASE  -
|  1> ! r2scan-3c def2/J RI DEFGRID2 scfconv6 printgap
|  2> %output
|  3>     printlevel normal
|  4> end
|  5> * xyz 0 1
|  6> C 2.2913644069 -0.0172726997 0.118733584
|  7> C 0.877564807 0.3858236006 -0.2503661305
|  8> O -0.0305458263 -0.5850175259 0.3164229776
|  9> C -1.3103332404 -0.3686707131 0.1874546201
| 10> O -1.8291901391 0.5696365374 -0.3646620858
| 11> H 2.403916662 -0.0373864327 1.1985618856
| 12> H 2.5112687283 -1.0051819879 -0.2744527404
| 13> H 2.9900196274 0.6989359324 -0.3008052263
| 14> H 0.7283484804 0.3995022035 -1.3341707818
| 15> H 0.6159442898 1.3717288031 0.1456726202
| 16> H -1.8764816921 -1.1820228777 0.6657287653
| 17> *
| 18>
| 19>                          ****END OF INPUT****

CARTESIAN COORDINATES (ANGSTROEM)
---------------------------------
  C      2.291364   -0.017273    0.118734
  C      0.877565    0.385824   -0.250366
  O     -0.030546   -0.585018    0.316423
  C     -1.310333   -0.368671    0.187455
  O     -1.829190    0.569637   -0.364662
  H      2.403917   -0.037386    1.198562
  H      2.511269   -1.005182   -0.274453
  H      2.990020    0.698936   -0.300805
  H      0.728348    0.399502   -1.334171
  H      0.615944    1.371729    0.145673
  H     -1.876482   -1.182023    0.665729

 Total Charge           Charge          ....    0
 Multiplicity           Mult            ....    1
 Number of Electrons    NEL             ....   40
 Basis Dimension        Dim             ....  135

ORBITAL ENERGIES
----------------

  NO   OCC          E(Eh)            E(eV)
   0   2.0000     -19.010675      -517.3068
   1   2.0000     -18.939669      -515.3746
   2   2.0000     -10.155651      -276.3493
   3   2.0000     -10.100980      -274.8616
   4   2.0000     -10.038412      -273.1591
   5   2.0000      -1.085441       -29.5363
   6   2.0000      -0.988056       -26.8864
   7   2.0000      -0.757292       -20.6070
   8   2.0000      -0.641805       -17.4644
   9   2.0000      -0.555204       -15.1079
  10   2.0000      -0.498975       -13.5778
  11   2.0000      -0.471405       -12.8276
  12   2.0000      -0.439294       -11.9538
  13   2.0000      -0.398821       -10.8525
  14   2.0000      -0.380499       -10.3539
  15   2.0000      -0.373906       -10.1745
  16   2.0000      -0.339757        -9.2453
  17   2.0000      -0.326204        -8.8765
  18   2.0000      -0.283144        -7.7048
  19   2.0000      -0.247583        -6.7371
  20   0.0000      -0.024154        -0.6573
  21   0.0000       0.078269         2.1298
  22   0.0000       0.088966         2.4209
  23   0.0000       0.119695         3.2571
  24   0.0000       0.124265         3.3814

MULLIKEN ATOMIC CHARGES
-----------------------
   0 C :   -0.435242
   1 C :   -0.133901
   2 O :   -0.153218
   3 C :    0.233598
   4 O :   -0.405485
   5 H :    0.153957
   6 H :    0.153721
   7 H :    0.148317
   8 H :    0.156152
   9 H :    0.160320
  10 H :    0.121780
Sum of atomic charges:    0.0000000

LOEWDIN ATOMIC CHARGES
----------------------
   0 C :   -0.385264
   1 C :    0.026796
   2 O :   -0.580684
   3 C :    0.328312
   4 O :   -0.418646
   5 H :    0.160494
   6 H :    0.160498
   7 H :    0.160719
   8 H :    0.179566
   9 H :    0.181572
  10 H :    0.186636

  Mayer bond orders larger than 0.100000
B(  0-C ,  1-C ) :   0.9438 B(  0-C ,  5-H ) :   0.9717 B(  0-C ,  6-H ) :   0.9698
B(  0-C ,  7-H ) :   0.9658 B(  1-C ,  2-O ) :   0.8057 B(  1-C ,  8-H ) :   0.9504
B(  1-C ,  9-H ) :   0.9536 B(  2-O ,  3-C ) :   1.1504 B(  3-C ,  4-O ) :   1.8475
B(  3-C , 10-H ) :   0.9844

Dispersion correction           -0.002001294
FINAL SINGLE POINT ENERGY      -268.326152202980

DIPOLE MOMENT
-------------

Method             : SCF
Type of density    : Electron Density
Multiplicity       :   1
Irrep              :   0
Energy             :  -268.3321663541655653 Eh
Relativity type    :
Basis              : AO
                                X                 Y                 Z
Electronic contribution:     -5.963458671      -0.528658877       0.093256773
Nuclear contribution   :      6.889557242       0.230164216       0.093602622
                        -----------------------------------------
Total Dipole Moment    :      0.926098571      -0.298494661       0.186859396
                        -----------------------------------------
Magnitude (a.u.)       :      0.990794661
Magnitude (Debye)      :      2.518399888

Rotational constants in cm-1:             0.611795             0.095874             0.085598
Rotational constants in MHz :         18341.139057          2874.244772          2566.175743

                             ****ORCA TERMINATED NORMALLY****
TOTAL RUN TIME: 0 days 0 hours 0 minutes 14 seconds 634 msec
