                         Program Version 6.0.0  -   RELEASE  -
|  1> ! r2scan-3c def2/J RI DEFGRID2 scfconv6 printgap
|  2> %output
|  3>     printlevel normal
|  4> end
|  5> %cpcm
|  6>     smd true
|  7>     smdsolvent "water"
|  8> end
|  9> * xyz 0 1
| 10> C 2.2913644069 -0.0172726997 0.118733584
| 11> C 0.877564807 0.3858236006 -0.2503661305
| 12> O -0.0305458263 -0.5850175259 0.3164229776
| 13> C -1.3103332404 -0.3686707131 0.1874546201
| 14> O -1.8291901391 0.5696365374 -0.3646620858
| 15> H 2.403916662 -0.0373864327 1.1985618856
| 16> H 2.5112687283 -1.0051819879 -0.2744527404
| 17> H 2.9900196274 0.6989359324 -0.3008052263
| 18> H 0.7283484804 0.3995022035 -1.3341707818
| 19> H 0.6159442898 1.3717288031 0.1456726202
| 20> H -1.8764816921 -1.1820228777 0.6657287653
| 21> *
| 22>
| 23>                          ****END OF INPUT****

CARTESIAN COORDINATES (ANGSTROEM)
---------------------------------
  C      2.291364   -0.017273    0.118734
  C      0.877565    0.385824   -0.250366
  O     -0.030546   -0.585018    0.316423
  C     -1.310333   -0.368671    0.187455
  O     -1.829190    0.569637   -0.364662
  H      2.403917   -0.037386    1.198562
  H      2.511269   -1.005182   -0.274453
  H      2.990020    0.698936   -0.300805
  H      0.728348    0.399502   -1.334171
  H      0.615944    1.371729    0.145673
  H     -1.876482   -1.182023    0.665729

 Total Charge           Charge          ....    0
 Multiplicity           Mult            ....    1
 Number of Electrons    NEL             ....   40
 Basis Dimension        Dim             ....  135

ORBITAL ENERGIES
----------------

  NO   OCC          E(Eh)            E(eV)
   0   2.0000     -19.012141      -517.3467
   1   2.0000     -18.951889      -515.7071
   2   2.0000     -10.161284      -276.5026
   3   2.0000     -10.087680      -274.4997
   4   2.0000     -10.020145      -272.6620
   5   2.0000      -1.088153       -29.6101
   6   2.0000      -0.998486       -27.1702
   7   2.0000      -0.745264       -20.2797
   8   2.0000      -0.631594       -17.1865
   9   2.0000      -0.546727       -14.8772
  10   2.0000      -0.498490       -13.5646
  11   2.0000      -0.464001       -12.6261
  12   2.0000      -0.452892       -12.3238
  13   2.0000      -0.394257       -10.7283
  14   2.0000      -0.370853       -10.0914
  15   2.0000      -0.361303        -9.8316
  16   2.0000      -0.331218        -9.0129
  17   2.0000      -0.321652        -8.7526
  18   2.0000      -0.284486        -7.7413
  19   2.0000      -0.261123        -7.1055
  20   0.0000      -0.028807        -0.7839
  21   0.0000       0.088829         2.4172
  22   0.0000       0.101898         2.7728
  23   0.0000       0.129738         3.5304
  24   0.0000       0.135416         3.6848

MULLIKEN ATOMIC CHARGES
-----------------------
   0 C :   -0.484526
   1 C :   -0.134469
   2 O :   -0.167286
   3 C :    0.263940
   4 O :   -0.491358
   5 H :    0.166197
   6 H :    0.165677
   7 H :    0.169721
   8 H :    0.175356
   9 H :    0.173760
  10 H :    0.162988
Sum of atomic charges:   -0.0000000

LOEWDIN ATOMIC CHARGES
----------------------
   0 C :   -0.388675
   1 C :    0.030109
   2 O :   -0.579011
   3 C :    0.344736
   4 O :   -0.481975
   5 H :    0.163300
   6 H :    0.163347
   7 H :    0.169254
   8 H :    0.186368
   9 H :    0.186744
  10 H :    0.205803

  Mayer bond orders larger than 0.100000
B(  0-C ,  1-C ) :   0.9443 B(  0-C ,  5-H ) :   0.9705 B(  0-C ,  6-H ) :   0.9682
B(  0-C ,  7-H ) :   0.9595 B(  1-C ,  2-O ) :   0.7914 B(  1-C ,  8-H ) :   0.9413
B(  1-C ,  9-H ) :   0.9455 B(  2-O ,  3-C ) :   1.1869 B(  3-C ,  4-O ) :   1.7872
B(  3-C , 10-H ) :   0.9692

Dispersion correction           -0.002001294
FINAL SINGLE POINT ENERGY      -268.330844784906

DIPOLE MOMENT
-------------

Method             : SCF
Type of density    : Electron Density
Multiplicity       :   1
Irrep              :   0
Energy             :  -268.3368589360918577 Eh
Relativity type    :
Basis              : AO
                                X                 Y                 Z
Electronic contribution:     -5.716030819      -0.668864445       0.174650431
Nuclear contribution   :      6.889557242       0.230164216       0.093602622
                        -----------------------------------------
Total Dipole Moment    :      1.173526423      -0.438700229       0.268253053
                        -----------------------------------------
Magnitude (a.u.)       :      1.281242310
Magnitude (Debye)      :      3.256659142

Rotational constants in cm-1:             0.611795             0.095874             0.085598
Rotational constants in MHz :         18341.139057          2874.244772          2566.175743

                             ****ORCA TERMINATED NORMALLY****
TOTAL RUN TIME: 0 days 0 hours 0 minutes 16 seconds 617 msec
