                         Program Version 6.0.0  -   RELEASE  -
|  1> ! pbe def2-sv(p) def2/J RI DEFGRID1 loosescf d4 GCP(DFT/SV(P)) printgap
|  2> %output
|  3>     printlevel normal
|  4> end
|  5> * xyz 0 1
|  6> C -1.0140400544 -0.4639549559 -0.315367406
|  7> C 0.1445320813 0.3490806092 0.2761318149
|  8> C 1.4781597875 -0.0737255723 -0.3420843799
|  9> O 1.7396659891 -1.4086525074 0.0239067779
| 10> O -0.0285090924 1.7291125779 0.0402783472
| 11> O -2.249274065 -0.1064639648 0.2632616503
| 12> H -0.801294217 -1.5306274967 -0.1948451274
| 13> H -1.1056206438 -0.2349004952 -1.3800468364
| 14> H 0.1960848432 0.1614556657 1.3618924046
| 15> H 2.2546579457 0.6042368541 0.0322295327
| 16> H 1.4120703364 0.0349056169 -1.4319643387
| 17> H 2.5934030089 -1.6769816534 -0.3434220248
| 18> H -0.9737323059 1.9286943529 0.1304939209
| 19> H -2.2866060265 -0.436241808 1.1718342697
| 20> *
| 21>
| 22>                          ****END OF INPUT****

CARTESIAN COORDINATES (ANGSTROEM)
---------------------------------
  C     -1.014040   -0.463955   -0.315367
  C      0.144532    0.349081    0.276132
  C      1.478160   -0.073726   -0.342084
  O      1.739666   -1.408653    0.023907
  O     -0.028509    1.729113    0.040278
  O     -2.249274   -0.106464    0.263262
  H     -0.801294   -1.530627   -0.194845
  H     -1.105621   -0.234900   -1.380047
  H      0.196085    0.161456    1.361892
  H      2.254658    0.604237    0.032230
  H      1.412070    0.034906   -1.431964
  H      2.593403   -1.676982   -0.343422
  H     -0.973732    1.928694    0.130494
  H     -2.286606   -0.436242    1.171834

 Total Charge           Charge          ....    0
 Multiplicity           Mult            ....    1
 Number of Electrons    NEL             ....   50
 Basis Dimension        Dim             ....  100

ORBITAL ENERGIES
----------------

  NO   OCC          E(Eh)            E(eV)
   0   2.0000     -18.754195      -510.3276
   1   2.0000     -18.752613      -510.2845
   2   2.0000     -18.740870      -509.9650
   3   2.0000      -9.933779      -270.3119
   4   2.0000      -9.930592      -270.2252
   5   2.0000      -9.927236      -270.1338
   6   2.0000      -0.937501       -25.5107
   7   2.0000      -0.926220       -25.2037
   8   2.0000      -0.909589       -24.7512
   9   2.0000      -0.679601       -18.4929
  10   2.0000      -0.605230       -16.4691
  11   2.0000      -0.531433       -14.4610
  12   2.0000      -0.489995       -13.3334
  13   2.0000      -0.457761       -12.4563
  14   2.0000      -0.430804       -11.7228
  15   2.0000      -0.422445       -11.4953
  16   2.0000      -0.381497       -10.3811
  17   2.0000      -0.370079       -10.0704
  18   2.0000      -0.346422        -9.4266
  19   2.0000      -0.299249        -8.1430
  20   2.0000      -0.286908        -7.8072
  21   2.0000      -0.276391        -7.5210
  22   2.0000      -0.234232        -6.3738
  23   2.0000      -0.219096        -5.9619
  24   2.0000      -0.206259        -5.6126
  25   0.0000       0.016869         0.4590
  26   0.0000       0.027308         0.7431
  27   0.0000       0.065140         1.7726
  28   0.0000       0.077067         2.0971
  29   0.0000       0.088620         2.4115

MULLIKEN ATOMIC CHARGES
-----------------------
   0 C :   -0.002787
   1 C :    0.004011
   2 C :    0.021474
   3 O :   -0.438024
   4 O :   -0.432469
   5 O :   -0.434916
   6 H :    0.091841
   7 H :    0.083205
   8 H :    0.050146
   9 H :    0.085351
  10 H :    0.068308
  11 H :    0.305022
  12 H :    0.299169
  13 H :    0.299670
Sum of atomic charges:   -0.0000000

LOEWDIN ATOMIC CHARGES
----------------------
   0 C :   -0.144565
   1 C :   -0.087101
   2 C :   -0.125211
   3 O :   -0.344742
   4 O :   -0.331920
   5 O :   -0.337131
   6 H :    0.106881
   7 H :    0.113829
   8 H :    0.093404
   9 H :    0.102628
  10 H :    0.097283
  11 H :    0.289700
  12 H :    0.280875
  13 H :    0.286071

  Mayer bond orders larger than 0.100000
B(  0-C ,  1-C ) :   1.0580 B(  0-C ,  5-O ) :   1.0534 B(  0-C ,  6-H ) :   0.9140
B(  0-C ,  7-H ) :   0.9121 B(  1-C ,  2-C ) :   1.0536 B(  1-C ,  4-O ) :   1.0739
B(  1-C ,  8-H ) :   0.8876 B(  2-C ,  3-O ) :   1.0770 B(  2-C ,  9-H ) :   0.9179
B(  2-C , 10-H ) :   0.9096 B(  3-O , 11-H ) :   0.8504 B(  4-O , 12-H ) :   0.8340
B(  5-O , 13-H ) :   0.8525

Dispersion correction           -0.009012199
FINAL SINGLE POINT ENERGY      -344.009121377775

DIPOLE MOMENT
-------------

Method             : SCF
Type of density    : Electron Density
Multiplicity       :   1
Irrep              :   0
Energy             :  -344.0825537331524515 Eh
Relativity type    :
Basis              : AO
                                X                 Y                 Z
Electronic contribution:     -0.870092476       0.625936655       0.743281715
Nuclear contribution   :      1.201278956      -1.075213669      -0.608541188
                        -----------------------------------------
Total Dipole Moment    :      0.331186481      -0.449277014       0.134740527
                        -----------------------------------------
Magnitude (a.u.)       :      0.574185797
Magnitude (Debye)      :      1.459464311

Rotational constants in cm-1:             0.179573             0.079205             0.059165
Rotational constants in MHz :          5383.470820          2374.505012          1773.708193

                             ****ORCA TERMINATED NORMALLY****
TOTAL RUN TIME: 0 days 0 hours 0 minutes 8 seconds 106 msec
