                         Program Version 6.0.0  -   RELEASE  -
|  1> ! pbe def2-sv(p) def2/J RI DEFGRID1 loosescf d4 GCP(DFT/SV(P)) printgap
|  2> %output
|  3>     printlevel normal
|  4> end
|  5> * xyz 0 1
|  6> C -2.5276478871 0.5953968663 0.1273378475
|  7> C -1.1628132714 0.7467140789 -0.5352837033
|  8> C -0.0458936574 0.0165611713 0.2166677063
|  9> H -0.0330697466 0.3751189548 1.2531258547
| 10> C -0.245952871 -1.4974837145 0.2245996232
| 11> C 1.3113757991 0.3536067542 -0.4183167103
| 12> O 2.409049137 -0.172924845 0.295560025
| 13> H -3.2665630459 1.1941886251 -0.399247204
| 14> H -2.8558448995 -0.4398879697 0.1110567543
| 15> H -2.4883141369 0.9302599954 1.161386079
| 16> H -0.9121639389 1.8090559858 -0.588962961
| 17> H -1.2100867346 0.3678586708 -1.5584279041
| 18> H 0.653242679 -1.9838726425 0.596443851
| 19> H -0.435192104 -1.8570620601 -0.7844871561
| 20> H -1.079637203 -1.7801785915 0.8604694073
| 21> H 1.4168498817 1.4427763672 -0.5206241376
| 22> H 1.3752786483 -0.0906594513 -1.414822341
| 23> H 2.423378508 0.2177271914 1.1803043846
| 24> *
| 25>
| 26>                          ****END OF INPUT****

CARTESIAN COORDINATES (ANGSTROEM)
---------------------------------
  C     -2.527648    0.595397    0.127338
  C     -1.162813    0.746714   -0.535284
  C     -0.045894    0.016561    0.216668
  H     -0.033070    0.375119    1.253126
  C     -0.245953   -1.497484    0.224600
  C      1.311376    0.353607   -0.418317
  O      2.409049   -0.172925    0.295560
  H     -3.266563    1.194189   -0.399247
  H     -2.855845   -0.439888    0.111057
  H     -2.488314    0.930260    1.161386
  H     -0.912164    1.809056   -0.588963
  H     -1.210087    0.367859   -1.558428
  H      0.653243   -1.983873    0.596444
  H     -0.435192   -1.857062   -0.784487
  H     -1.079637   -1.780179    0.860469
  H      1.416850    1.442776   -0.520624
  H      1.375279   -0.090659   -1.414822
  H      2.423379    0.217727    1.180304

 Total Charge           Charge          ....    0
 Multiplicity           Mult            ....    1
 Number of Electrons    NEL             ....   50
 Basis Dimension        Dim             ....  108

ORBITAL ENERGIES
----------------

  NO   OCC          E(Eh)            E(eV)
   0   2.0000     -18.739547      -509.9290
   1   2.0000      -9.923900      -270.0431
   2   2.0000      -9.892507      -269.1888
   3   2.0000      -9.885451      -268.9968
   4   2.0000      -9.874796      -268.7069
   5   2.0000      -9.868347      -268.5314
   6   2.0000      -0.916323       -24.9344
   7   2.0000      -0.729277       -19.8446
   8   2.0000      -0.653720       -17.7886
   9   2.0000      -0.604242       -16.4423
  10   2.0000      -0.557280       -15.1643
  11   2.0000      -0.505823       -13.7641
  12   2.0000      -0.442637       -12.0448
  13   2.0000      -0.422641       -11.5007
  14   2.0000      -0.409233       -11.1358
  15   2.0000      -0.384727       -10.4689
  16   2.0000      -0.355515        -9.6741
  17   2.0000      -0.339415        -9.2359
  18   2.0000      -0.333546        -9.0762
  19   2.0000      -0.317237        -8.6325
  20   2.0000      -0.309649        -8.4260
  21   2.0000      -0.286302        -7.7907
  22   2.0000      -0.283670        -7.7190
  23   2.0000      -0.261427        -7.1138
  24   2.0000      -0.211144        -5.7455
  25   0.0000       0.026504         0.7212
  26   0.0000       0.044704         1.2165
  27   0.0000       0.063224         1.7204
  28   0.0000       0.072890         1.9834
  29   0.0000       0.089544         2.4366

MULLIKEN ATOMIC CHARGES
-----------------------
   0 C :   -0.261177
   1 C :   -0.172843
   2 C :   -0.211721
   3 H :    0.054681
   4 C :   -0.246718
   5 C :    0.057149
   6 O :   -0.428577
   7 H :    0.102120
   8 H :    0.106039
   9 H :    0.095486
  10 H :    0.080202
  11 H :    0.083655
  12 H :    0.105319
  13 H :    0.091177
  14 H :    0.103628
  15 H :    0.069651
  16 H :    0.078654
  17 H :    0.293274
Sum of atomic charges:   -0.0000000

LOEWDIN ATOMIC CHARGES
----------------------
   0 C :   -0.339851
   1 C :   -0.225340
   2 C :   -0.175957
   3 H :    0.106571
   4 C :   -0.335111
   5 C :   -0.116686
   6 O :   -0.336246
   7 H :    0.119891
   8 H :    0.118455
   9 H :    0.116769
  10 H :    0.112245
  11 H :    0.115152
  12 H :    0.120769
  13 H :    0.117251
  14 H :    0.116865
  15 H :    0.092647
  16 H :    0.111692
  17 H :    0.280884

  Mayer bond orders larger than 0.100000
B(  0-C ,  1-C ) :   1.1579 B(  0-C ,  7-H ) :   0.9511 B(  0-C ,  8-H ) :   0.9489
B(  0-C ,  9-H ) :   0.9533 B(  1-C ,  2-C ) :   1.0751 B(  1-C , 10-H ) :   0.9225
B(  1-C , 11-H ) :   0.9200 B(  2-C ,  3-H ) :   0.8968 B(  2-C ,  4-C ) :   1.0966
B(  2-C ,  5-C ) :   1.0548 B(  4-C , 12-H ) :   0.9372 B(  4-C , 13-H ) :   0.9503
B(  4-C , 14-H ) :   0.9474 B(  5-C ,  6-O ) :   1.0682 B(  5-C , 15-H ) :   0.9268
B(  5-C , 16-H ) :   0.9208 B(  6-O , 17-H ) :   0.8538

Dispersion correction           -0.012867412
FINAL SINGLE POINT ENERGY      -272.301500865563

DIPOLE MOMENT
-------------

Method             : SCF
Type of density    : Electron Density
Multiplicity       :   1
Irrep              :   0
Energy             :  -272.3713743441022075 Eh
Relativity type    :
Basis              : AO
                                X                 Y                 Z
Electronic contribution:      5.614759071       0.229573993       0.394361932
Nuclear contribution   :     -5.979868350       0.171298962      -0.092981418
                        -----------------------------------------
Total Dipole Moment    :     -0.365109278       0.400872956       0.301380514
                        -----------------------------------------
Magnitude (a.u.)       :      0.620350003
Magnitude (Debye)      :      1.576804396

Rotational constants in cm-1:             0.228543             0.063162             0.054565
Rotational constants in MHz :          6851.553534          1893.535108          1635.816968

                             ****ORCA TERMINATED NORMALLY****
TOTAL RUN TIME: 0 days 0 hours 0 minutes 7 seconds 697 msec
