                         Program Version 6.0.0  -   RELEASE  -
|  1> ! pbe def2-sv(p) def2/J RI DEFGRID1 loosescf d4 GCP(DFT/SV(P)) printgap
|  2> %output
|  3>     printlevel normal
|  4> end
|  5> * xyz 0 1
|  6> C -3.1799648526 1.2351195527 -0.6741053736
|  7> C -1.9155450514 0.8109053396 -0.001464399
|  8> O -1.827108164 0.3217082592 1.1030810754
|  9> O -0.854062359 1.074201477 -0.7785450101
| 10> C 0.4279012598 0.7534943541 -0.3528676235
| 11> C 1.368577067 1.7732626052 -0.372336585
| 12> C 2.666512726 1.5280768208 0.0383563179
| 13> C 3.0261895521 0.2696137752 0.4964598334
| 14> C 2.0908164764 -0.7453694567 0.5185194767
| 15> C 0.785479217 -0.5263250205 0.0771116369
| 16> C -0.1384778234 -1.6836355249 0.0781844893
| 17> O -0.0267472096 -2.623205709 0.8395605366
| 18> O -1.0683418416 -1.6514719424 -0.8694048156
| 19> H -4.0330202032 0.8866774966 -0.101892954
| 20> H -3.1993148017 0.8396481145 -1.6854619142
| 21> H -3.1963079825 2.3207989837 -0.7357643739
| 22> H 1.0624400413 2.7499134586 -0.7108435701
| 23> H 3.3923735884 2.3247142144 0.0124811152
| 24> H 4.0319355314 0.07979642 0.8340557177
| 25> H 2.3434754305 -1.7353440854 0.8659858701
| 26> H -1.6084689885 -2.4664194362 -0.8667645533
| 27> *
| 28>
| 29>                          ****END OF INPUT****

CARTESIAN COORDINATES (ANGSTROEM)
---------------------------------
  C     -3.179965    1.235120   -0.674105
  C     -1.915545    0.810905   -0.001464
  O     -1.827108    0.321708    1.103081
  O     -0.854062    1.074201   -0.778545
  C      0.427901    0.753494   -0.352868
  C      1.368577    1.773263   -0.372337
  C      2.666513    1.528077    0.038356
  C      3.026190    0.269614    0.496460
  C      2.090816   -0.745369    0.518519
  C      0.785479   -0.526325    0.077112
  C     -0.138478   -1.683636    0.078184
  O     -0.026747   -2.623206    0.839561
  O     -1.068342   -1.651472   -0.869405
  H     -4.033020    0.886677   -0.101893
  H     -3.199315    0.839648   -1.685462
  H     -3.196308    2.320799   -0.735764
  H      1.062440    2.749913   -0.710844
  H      3.392374    2.324714    0.012481
  H      4.031936    0.079796    0.834056
  H      2.343475   -1.735344    0.865986
  H     -1.608469   -2.466419   -0.866765

 Total Charge           Charge          ....    0
 Multiplicity           Mult            ....    1
 Number of Electrons    NEL             ....   94
 Basis Dimension        Dim             ....  198

ORBITAL ENERGIES
----------------

  NO   OCC          E(Eh)            E(eV)
   0   2.0000     -18.817653      -512.0544
   1   2.0000     -18.803923      -511.6808
   2   2.0000     -18.746530      -510.1190
   3   2.0000     -18.737957      -509.8857
   4   2.0000     -10.021140      -272.6891
   5   2.0000     -10.018071      -272.6056
   6   2.0000      -9.972047      -271.3532
   7   2.0000      -9.919826      -269.9322
   8   2.0000      -9.911270      -269.6994
   9   2.0000      -9.908807      -269.6323
  10   2.0000      -9.908149      -269.6144
  11   2.0000      -9.904965      -269.5278
  12   2.0000      -9.900710      -269.4120
  13   2.0000      -1.026164       -27.9233
  14   2.0000      -1.009556       -27.4714
  15   2.0000      -0.926631       -25.2149
  16   2.0000      -0.912103       -24.8196
  17   2.0000      -0.794905       -21.6305
  18   2.0000      -0.714048       -19.4302
  19   2.0000      -0.702345       -19.1118
  20   2.0000      -0.670027       -18.2324
  21   2.0000      -0.616268       -16.7695
  22   2.0000      -0.588170       -16.0049
  23   2.0000      -0.551137       -14.9972
  24   2.0000      -0.531098       -14.4519
  25   2.0000      -0.471143       -12.8204
  26   2.0000      -0.457195       -12.4409
  27   2.0000      -0.444845       -12.1048
  28   2.0000      -0.436317       -11.8728
  29   2.0000      -0.419728       -11.4214
  30   2.0000      -0.411293       -11.1918
  31   2.0000      -0.409010       -11.1297
  32   2.0000      -0.400392       -10.8952
  33   2.0000      -0.395648       -10.7661
  34   2.0000      -0.371518       -10.1095
  35   2.0000      -0.364063        -9.9066
  36   2.0000      -0.349584        -9.5127
  37   2.0000      -0.345866        -9.4115
  38   2.0000      -0.337937        -9.1957
  39   2.0000      -0.323569        -8.8048
  40   2.0000      -0.318242        -8.6598
  41   2.0000      -0.282833        -7.6963
  42   2.0000      -0.275370        -7.4932
  43   2.0000      -0.248589        -6.7645
  44   2.0000      -0.234313        -6.3760
  45   2.0000      -0.229690        -6.2502
  46   2.0000      -0.221196        -6.0190
  47   0.0000      -0.076934        -2.0935
  48   0.0000      -0.050804        -1.3824
  49   0.0000      -0.024805        -0.6750
  50   0.0000       0.008874         0.2415
  51   0.0000       0.024326         0.6619

MULLIKEN ATOMIC CHARGES
-----------------------
   0 C :   -0.241306
   1 C :    0.105847
   2 O :   -0.189431
   3 O :   -0.210158
   4 C :    0.213496
   5 C :   -0.113208
   6 C :   -0.036889
   7 C :   -0.029832
   8 C :   -0.116475
   9 C :    0.024933
  10 C :    0.114297
  11 O :   -0.175762
  12 O :   -0.299683
  13 H :    0.127478
  14 H :    0.129802
  15 H :    0.134197
  16 H :    0.048550
  17 H :    0.064538
  18 H :    0.061950
  19 H :    0.067879
  20 H :    0.319778
Sum of atomic charges:    0.0000000

LOEWDIN ATOMIC CHARGES
----------------------
   0 C :   -0.355880
   1 C :    0.042983
   2 O :   -0.147085
   3 O :   -0.024974
   4 C :    0.056618
   5 C :   -0.128892
   6 C :   -0.104979
   7 C :   -0.124705
   8 C :   -0.082660
   9 C :   -0.078253
  10 C :    0.036851
  11 O :   -0.157679
  12 O :   -0.201785
  13 H :    0.141656
  14 H :    0.145401
  15 H :    0.150051
  16 H :    0.133961
  17 H :    0.129716
  18 H :    0.129531
  19 H :    0.138547
  20 H :    0.301576

  Mayer bond orders larger than 0.100000
B(  0-C ,  1-C ) :   1.0915 B(  0-C , 13-H ) :   0.9407 B(  0-C , 14-H ) :   0.9276
B(  0-C , 15-H ) :   0.9209 B(  1-C ,  2-O ) :   2.0888 B(  1-C ,  3-O ) :   1.1012
B(  3-O ,  4-C ) :   0.9967 B(  4-C ,  5-C ) :   1.4019 B(  4-C ,  9-C ) :   1.3439
B(  5-C ,  6-C ) :   1.3465 B(  5-C , 16-H ) :   0.9638 B(  6-C ,  7-C ) :   1.3496
B(  6-C , 17-H ) :   0.9646 B(  7-C ,  8-C ) :   1.3521 B(  7-C , 18-H ) :   0.9691
B(  8-C ,  9-C ) :   1.3929 B(  8-C , 19-H ) :   0.9588 B(  9-C , 10-C ) :   0.9271
B( 10-C , 11-O ) :   2.1134 B( 10-C , 12-O ) :   1.2646 B( 12-O , 20-H ) :   0.8196

Dispersion correction           -0.024981119
FINAL SINGLE POINT ENERGY      -647.388460703676

DIPOLE MOMENT
-------------

Method             : SCF
Type of density    : Electron Density
Multiplicity       :   1
Irrep              :   0
Energy             :  -647.4565900069191002 Eh
Relativity type    :
Basis              : AO
                                X                 Y                 Z
Electronic contribution:      1.108333477      -3.936908595       1.186994308
Nuclear contribution   :     -1.188179865       4.648036230      -2.236184030
                        -----------------------------------------
Total Dipole Moment    :     -0.079846387       0.711127635      -1.049189722
                        -----------------------------------------
Magnitude (a.u.)       :      1.269990957
Magnitude (Debye)      :      3.228060475

Rotational constants in cm-1:             0.040704             0.025228             0.017463
Rotational constants in MHz :          1220.265901           756.308798           523.537839

                             ****ORCA TERMINATED NORMALLY****
TOTAL RUN TIME: 0 days 0 hours 0 minutes 15 seconds 150 msec
