                         Program Version 6.0.0  -   RELEASE  -
|  1> ! r2scan-3c def2/J RI DEFGRID2 scfconv6 printgap
|  2> %output
|  3>     printlevel normal
|  4> end
|  5> * xyz 0 1
|  6> C 0.0417151433 -3.1286229995 -0.1265857029
|  7> C 0.6691000675 -1.7744119134 -0.0351717649
|  8> C 2.0551064584 -1.5753373963 -0.0807519034
|  9> N 2.6001031755 -0.3715513873 -0.0148467272
| 10> C 1.7875749122 0.6877966541 0.114185313
| 11> N 0.4474775819 0.5982828347 0.2062831533
| 12> C -0.0740030084 -0.6054536804 0.1094322931
| 13> O -1.4441041452 -0.7029988375 0.2351300154
| 14> C -2.2301932173 0.2422258096 -0.3739590748
| 15> O -1.8457021362 0.9059074159 -1.3217774473
| 16> N -3.4543036768 0.2973332259 0.1531077935
| 17> C -4.4586321019 1.1494494147 -0.4481852826
| 18> C -3.8983000506 -0.5033266639 1.2734611466
| 19> N 2.3346751321 1.906950148 0.1670221134
| 20> C 3.7639325321 2.1018256797 0.1403319841
| 21> C 1.5272126353 3.0987907272 0.2535532386
| 22> C 2.99324337 -2.7291874137 -0.2174536233
| 23> H 0.3302471447 -3.7395253704 0.7275957084
| 24> H -1.040537775 -3.0358802264 -0.1422128006
| 25> H 0.3677624204 -3.636965195 -1.0324413826
| 26> H -4.8045454415 1.8813826809 0.2814772135
| 27> H -5.3015536453 0.5452023224 -0.7840136041
| 28> H -4.0142435943 1.6631610584 -1.2970633183
| 29> H -3.0445309456 -0.9560902567 1.7678720664
| 30> H -4.5739677137 -1.2879290091 0.9286964348
| 31> H -4.426860105 0.1399659853 1.9760498006
| 32> H 4.247465276 1.1305100079 0.1165330034
| 33> H 4.0752296284 2.6504157306 1.0306123376
| 34> H 4.0453528888 2.6735321227 -0.7458209877
| 35> H 1.6148972694 3.5477682679 1.2452637249
| 36> H 0.4898246334 2.8358891325 0.0646111176
| 37> H 1.8639652449 3.8173240584 -0.4942938571
| 38> H 4.0155535588 -2.3665283279 -0.2100374069
| 39> H 2.8447452691 -3.4288688461 0.601772443
| 40> H 2.8008805277 -3.2553610141 -1.1500148582
| 41> *
| 42>
| 43>                          ****END OF INPUT****

CARTESIAN COORDINATES (ANGSTROEM)
---------------------------------
  C      0.041715   -3.128623   -0.126586
  C      0.669100   -1.774412   -0.035172
  C      2.055106   -1.575337   -0.080752
  N      2.600103   -0.371551   -0.014847
  C      1.787575    0.687797    0.114185
  N      0.447478    0.598283    0.206283
  C     -0.074003   -0.605454    0.109432
  O     -1.444104   -0.702999    0.235130
  C     -2.230193    0.242226   -0.373959
  O     -1.845702    0.905907   -1.321777
  N     -3.454304    0.297333    0.153108
  C     -4.458632    1.149449   -0.448185
  C     -3.898300   -0.503327    1.273461
  N      2.334675    1.906950    0.167022
  C      3.763933    2.101826    0.140332
  C      1.527213    3.098791    0.253553
  C      2.993243   -2.729187   -0.217454
  H      0.330247   -3.739525    0.727596
  H     -1.040538   -3.035880   -0.142213
  H      0.367762   -3.636965   -1.032441
  H     -4.804545    1.881383    0.281477
  H     -5.301554    0.545202   -0.784014
  H     -4.014244    1.663161   -1.297063
  H     -3.044531   -0.956090    1.767872
  H     -4.573968   -1.287929    0.928696
  H     -4.426860    0.139966    1.976050
  H      4.247465    1.130510    0.116533
  H      4.075230    2.650416    1.030612
  H      4.045353    2.673532   -0.745821
  H      1.614897    3.547768    1.245264
  H      0.489825    2.835889    0.064611
  H      1.863965    3.817324   -0.494294
  H      4.015554   -2.366528   -0.210037
  H      2.844745   -3.428869    0.601772
  H      2.800881   -3.255361   -1.150015

 Total Charge           Charge          ....    0
 Multiplicity           Mult            ....    1
 Number of Electrons    NEL             ....  128
 Basis Dimension        Dim             ....  443

ORBITAL ENERGIES
----------------

  NO   OCC          E(Eh)            E(eV)
   0   2.0000     -18.999062      -516.9908
   1   2.0000     -18.904977      -514.4306
   2   2.0000     -14.198859      -386.3706
   3   2.0000     -14.180993      -385.8844
   4   2.0000     -14.135393      -384.6436
   5   2.0000     -14.132204      -384.5568
   6   2.0000     -10.167385      -276.6686
   7   2.0000     -10.124215      -275.4939
   8   2.0000     -10.116376      -275.2806
   9   2.0000     -10.073500      -274.1139
  10   2.0000     -10.068528      -273.9786
  11   2.0000     -10.063305      -273.8365
  12   2.0000     -10.049206      -273.4528
  13   2.0000     -10.047279      -273.4004
  14   2.0000     -10.029657      -272.9209
  15   2.0000     -10.025417      -272.8055
  16   2.0000     -10.023544      -272.7545
  17   2.0000      -1.077460       -29.3192
  18   2.0000      -0.979384       -26.6504
  19   2.0000      -0.960477       -26.1359
  20   2.0000      -0.915250       -24.9052
  21   2.0000      -0.891099       -24.2480
  22   2.0000      -0.842193       -22.9172
  23   2.0000      -0.770206       -20.9584
  24   2.0000      -0.707878       -19.2623
  25   2.0000      -0.698283       -19.0012
  26   2.0000      -0.691820       -18.8254
  27   2.0000      -0.681338       -18.5401
  28   2.0000      -0.671385       -18.2693
  29   2.0000      -0.626481       -17.0474
  30   2.0000      -0.600894       -16.3512
  31   2.0000      -0.550879       -14.9902
  32   2.0000      -0.535354       -14.5677
  33   2.0000      -0.510190       -13.8830
  34   2.0000      -0.492532       -13.4025
  35   2.0000      -0.470114       -12.7925
  36   2.0000      -0.457731       -12.4555
  37   2.0000      -0.450986       -12.2720
  38   2.0000      -0.441313       -12.0087
  39   2.0000      -0.420815       -11.4509
  40   2.0000      -0.415633       -11.3100
  41   2.0000      -0.409159       -11.1338
  42   2.0000      -0.394080       -10.7235
  43   2.0000      -0.391310       -10.6481
  44   2.0000      -0.380111       -10.3433
  45   2.0000      -0.379069       -10.3150
  46   2.0000      -0.374008       -10.1773
  47   2.0000      -0.371656       -10.1133
  48   2.0000      -0.370358       -10.0779
  49   2.0000      -0.363813        -9.8999
  50   2.0000      -0.362214        -9.8563
  51   2.0000      -0.358344        -9.7510
  52   2.0000      -0.350927        -9.5492
  53   2.0000      -0.347192        -9.4476
  54   2.0000      -0.341484        -9.2922
  55   2.0000      -0.338502        -9.2111
  56   2.0000      -0.301416        -8.2019
  57   2.0000      -0.268677        -7.3111
  58   2.0000      -0.260905        -7.0996
  59   2.0000      -0.246118        -6.6972
  60   2.0000      -0.232107        -6.3160
  61   2.0000      -0.219201        -5.9648
  62   2.0000      -0.200453        -5.4546
  63   2.0000      -0.175267        -4.7692
  64   0.0000      -0.038364        -1.0439
  65   0.0000      -0.005878        -0.1600
  66   0.0000       0.031188         0.8487
  67   0.0000       0.061103         1.6627
  68   0.0000       0.080419         2.1883

MULLIKEN ATOMIC CHARGES
-----------------------
   0 C :   -0.608798
   1 C :   -0.065491
   2 C :    0.251721
   3 N :   -0.240155
   4 C :    0.043138
   5 N :   -0.249756
   6 C :    0.248157
   7 O :   -0.127220
   8 C :    0.229371
   9 O :   -0.449664
  10 N :    0.066832
  11 C :   -0.387538
  12 C :   -0.381702
  13 N :    0.164189
  14 C :   -0.385555
  15 C :   -0.382808
  16 C :   -0.628641
  17 H :    0.161541
  18 H :    0.173031
  19 H :    0.153808
  20 H :    0.145826
  21 H :    0.140667
  22 H :    0.201932
  23 H :    0.181198
  24 H :    0.151486
  25 H :    0.141384
  26 H :    0.196620
  27 H :    0.136605
  28 H :    0.143685
  29 H :    0.144165
  30 H :    0.204649
  31 H :    0.133641
  32 H :    0.177077
  33 H :    0.154942
  34 H :    0.161664
Sum of atomic charges:    0.0000000

LOEWDIN ATOMIC CHARGES
----------------------
   0 C :   -0.374096
   1 C :   -0.072952
   2 C :    0.175070
   3 N :   -0.571881
   4 C :    0.437632
   5 N :   -0.482479
   6 C :    0.403086
   7 O :   -0.469784
   8 C :    0.475813
   9 O :   -0.403611
  10 N :   -0.783910
  11 C :   -0.098025
  12 C :   -0.097727
  13 N :   -0.792807
  14 C :   -0.105533
  15 C :   -0.102629
  16 C :   -0.354328
  17 H :    0.161155
  18 H :    0.174772
  19 H :    0.162045
  20 H :    0.173078
  21 H :    0.172343
  22 H :    0.209981
  23 H :    0.202323
  24 H :    0.171077
  25 H :    0.174878
  26 H :    0.209800
  27 H :    0.170163
  28 H :    0.170576
  29 H :    0.168613
  30 H :    0.213620
  31 H :    0.172222
  32 H :    0.175494
  33 H :    0.167250
  34 H :    0.168773

  Mayer bond orders larger than 0.100000
B(  0-C ,  1-C ) :   0.6955 B(  0-C , 17-H ) :   0.9901 B(  0-C , 18-H ) :   0.9963
B(  0-C , 19-H ) :   0.9762 B(  1-C ,  2-C ) :   1.3387 B(  1-C ,  6-C ) :   1.4158
B(  2-C ,  3-N ) :   1.3644 B(  2-C , 16-C ) :   0.7707 B(  3-N ,  4-C ) :   1.3389
B(  4-C ,  5-N ) :   1.3554 B(  4-C , 13-N ) :   1.3322 B(  5-N ,  6-C ) :   1.4150
B(  6-C ,  7-O ) :   1.0124 B(  7-O ,  8-C ) :   0.9796 B(  8-C ,  9-O ) :   1.8517
B(  8-C , 10-N ) :   1.3084 B( 10-N , 11-C ) :   0.9217 B( 10-N , 12-C ) :   0.9048
B( 11-C , 20-H ) :   0.9589 B( 11-C , 21-H ) :   0.9517 B( 11-C , 22-H ) :   0.9546
B( 12-C , 23-H ) :   0.9581 B( 12-C , 24-H ) :   0.9578 B( 12-C , 25-H ) :   0.9567
B( 13-N , 14-C ) :   0.9109 B( 13-N , 15-C ) :   0.9101 B( 14-C , 26-H ) :   0.9545
B( 14-C , 27-H ) :   0.9552 B( 14-C , 28-H ) :   0.9593 B( 15-C , 29-H ) :   0.9580
B( 15-C , 30-H ) :   0.9515 B( 15-C , 31-H ) :   0.9551 B( 16-C , 32-H ) :   1.0124
B( 16-C , 33-H ) :   0.9694 B( 16-C , 34-H ) :   0.9742

Dispersion correction           -0.013511825
FINAL SINGLE POINT ENERGY      -799.294376043706

DIPOLE MOMENT
-------------

Method             : SCF
Type of density    : Electron Density
Multiplicity       :   1
Irrep              :   0
Energy             :  -799.3186849342268943 Eh
Relativity type    :
Basis              : AO
                                X                 Y                 Z
Electronic contribution:     -0.082053738       0.499960480      -1.902806350
Nuclear contribution   :     -0.516934223      -0.754830684       2.692934168
                        -----------------------------------------
Total Dipole Moment    :     -0.598987961      -0.254870204       0.790127818
                        -----------------------------------------
Magnitude (a.u.)       :      1.023741846
Magnitude (Debye)      :      2.602144976

Rotational constants in cm-1:             0.022441             0.010584             0.007670
Rotational constants in MHz :           672.759292           317.290449           229.941160

                             ****ORCA TERMINATED NORMALLY****
TOTAL RUN TIME: 0 days 0 hours 1 minutes 25 seconds 155 msec
