                         Program Version 6.0.0  -   RELEASE  -
|  1> ! r2scan-3c def2/J RI DEFGRID2 scfconv6 printgap
|  2> %output
|  3>     printlevel normal
|  4> end
|  5> %cpcm
|  6>     smd true
|  7>     smdsolvent "water"
|  8> end
|  9> * xyz 0 1
| 10> C 0.0417151433 -3.1286229995 -0.1265857029
| 11> C 0.6691000675 -1.7744119134 -0.0351717649
| 12> C 2.0551064584 -1.5753373963 -0.0807519034
| 13> N 2.6001031755 -0.3715513873 -0.0148467272
| 14> C 1.7875749122 0.6877966541 0.114185313
| 15> N 0.4474775819 0.5982828347 0.2062831533
| 16> C -0.0740030084 -0.6054536804 0.1094322931
| 17> O -1.4441041452 -0.7029988375 0.2351300154
| 18> C -2.2301932173 0.2422258096 -0.3739590748
| 19> O -1.8457021362 0.9059074159 -1.3217774473
| 20> N -3.4543036768 0.2973332259 0.1531077935
| 21> C -4.4586321019 1.1494494147 -0.4481852826
| 22> C -3.8983000506 -0.5033266639 1.2734611466
| 23> N 2.3346751321 1.906950148 0.1670221134
| 24> C 3.7639325321 2.1018256797 0.1403319841
| 25> C 1.5272126353 3.0987907272 0.2535532386
| 26> C 2.99324337 -2.7291874137 -0.2174536233
| 27> H 0.3302471447 -3.7395253704 0.7275957084
| 28> H -1.040537775 -3.0358802264 -0.1422128006
| 29> H 0.3677624204 -3.636965195 -1.0324413826
| 30> H -4.8045454415 1.8813826809 0.2814772135
| 31> H -5.3015536453 0.5452023224 -0.7840136041
| 32> H -4.0142435943 1.6631610584 -1.2970633183
| 33> H -3.0445309456 -0.9560902567 1.7678720664
| 34> H -4.5739677137 -1.2879290091 0.9286964348
| 35> H -4.426860105 0.1399659853 1.9760498006
| 36> H 4.247465276 1.1305100079 0.1165330034
| 37> H 4.0752296284 2.6504157306 1.0306123376
| 38> H 4.0453528888 2.6735321227 -0.7458209877
| 39> H 1.6148972694 3.5477682679 1.2452637249
| 40> H 0.4898246334 2.8358891325 0.0646111176
| 41> H 1.8639652449 3.8173240584 -0.4942938571
| 42> H 4.0155535588 -2.3665283279 -0.2100374069
| 43> H 2.8447452691 -3.4288688461 0.601772443
| 44> H 2.8008805277 -3.2553610141 -1.1500148582
| 45> *
| 46>
| 47>                          ****END OF INPUT****

CARTESIAN COORDINATES (ANGSTROEM)
---------------------------------
  C      0.041715   -3.128623   -0.126586
  C      0.669100   -1.774412   -0.035172
  C      2.055106   -1.575337   -0.080752
  N      2.600103   -0.371551   -0.014847
  C      1.787575    0.687797    0.114185
  N      0.447478    0.598283    0.206283
  C     -0.074003   -0.605454    0.109432
  O     -1.444104   -0.702999    0.235130
  C     -2.230193    0.242226   -0.373959
  O     -1.845702    0.905907   -1.321777
  N     -3.454304    0.297333    0.153108
  C     -4.458632    1.149449   -0.448185
  C     -3.898300   -0.503327    1.273461
  N      2.334675    1.906950    0.167022
  C      3.763933    2.101826    0.140332
  C      1.527213    3.098791    0.253553
  C      2.993243   -2.729187   -0.217454
  H      0.330247   -3.739525    0.727596
  H     -1.040538   -3.035880   -0.142213
  H      0.367762   -3.636965   -1.032441
  H     -4.804545    1.881383    0.281477
  H     -5.301554    0.545202   -0.784014
  H     -4.014244    1.663161   -1.297063
  H     -3.044531   -0.956090    1.767872
  H     -4.573968   -1.287929    0.928696
  H     -4.426860    0.139966    1.976050
  H      4.247465    1.130510    0.116533
  H      4.075230    2.650416    1.030612
  H      4.045353    2.673532   -0.745821
  H      1.614897    3.547768    1.245264
  H      0.489825    2.835889    0.064611
  H      1.863965    3.817324   -0.494294
  H      4.015554   -2.366528   -0.210037
  H      2.844745   -3.428869    0.601772
  H      2.800881   -3.255361   -1.150015

 Total Charge           Charge          ....    0
 Multiplicity           Mult            ....    1
 Number of Electrons    NEL             ....  128
 Basis Dimension        Dim             ....  443

ORBITAL ENERGIES
----------------

  NO   OCC          E(Eh)            E(eV)
   0   2.0000     -19.011009      -517.3159
   1   2.0000     -18.928782      -515.0783
   2   2.0000     -14.202876      -386.4799
   3   2.0000     -14.186647      -386.0383
   4   2.0000     -14.148050      -384.9880
   5   2.0000     -14.142685      -384.8420
   6   2.0000     -10.183768      -277.1144
   7   2.0000     -10.134734      -275.7801
   8   2.0000     -10.126271      -275.5498
   9   2.0000     -10.081271      -274.3253
  10   2.0000     -10.054843      -273.6062
  11   2.0000     -10.053949      -273.5818
  12   2.0000     -10.046801      -273.3874
  13   2.0000     -10.046086      -273.3679
  14   2.0000     -10.036341      -273.1027
  15   2.0000     -10.021073      -272.6873
  16   2.0000     -10.019696      -272.6498
  17   2.0000      -1.091504       -29.7013
  18   2.0000      -0.998359       -27.1667
  19   2.0000      -0.971050       -26.4236
  20   2.0000      -0.920067       -25.0363
  21   2.0000      -0.897757       -24.4292
  22   2.0000      -0.853791       -23.2328
  23   2.0000      -0.775119       -21.0920
  24   2.0000      -0.709988       -19.3198
  25   2.0000      -0.696831       -18.9617
  26   2.0000      -0.687008       -18.6944
  27   2.0000      -0.681280       -18.5386
  28   2.0000      -0.672267       -18.2933
  29   2.0000      -0.627943       -17.0872
  30   2.0000      -0.605138       -16.4666
  31   2.0000      -0.555782       -15.1236
  32   2.0000      -0.543110       -14.7788
  33   2.0000      -0.508601       -13.8397
  34   2.0000      -0.496689       -13.5156
  35   2.0000      -0.476936       -12.9781
  36   2.0000      -0.461289       -12.5523
  37   2.0000      -0.454805       -12.3759
  38   2.0000      -0.445458       -12.1215
  39   2.0000      -0.421004       -11.4561
  40   2.0000      -0.417241       -11.3537
  41   2.0000      -0.413450       -11.2506
  42   2.0000      -0.398880       -10.8541
  43   2.0000      -0.394971       -10.7477
  44   2.0000      -0.384730       -10.4690
  45   2.0000      -0.371293       -10.1034
  46   2.0000      -0.370074       -10.0702
  47   2.0000      -0.369195       -10.0463
  48   2.0000      -0.366135        -9.9630
  49   2.0000      -0.364581        -9.9208
  50   2.0000      -0.360081        -9.7983
  51   2.0000      -0.356335        -9.6964
  52   2.0000      -0.349993        -9.5238
  53   2.0000      -0.348973        -9.4960
  54   2.0000      -0.343761        -9.3542
  55   2.0000      -0.339696        -9.2436
  56   2.0000      -0.316079        -8.6010
  57   2.0000      -0.281621        -7.6633
  58   2.0000      -0.270236        -7.3535
  59   2.0000      -0.259202        -7.0532
  60   2.0000      -0.253735        -6.9045
  61   2.0000      -0.225601        -6.1389
  62   2.0000      -0.213920        -5.8211
  63   2.0000      -0.181717        -4.9448
  64   0.0000      -0.049368        -1.3434
  65   0.0000      -0.014629        -0.3981
  66   0.0000       0.016575         0.4510
  67   0.0000       0.056729         1.5437
  68   0.0000       0.077071         2.0972

MULLIKEN ATOMIC CHARGES
-----------------------
   0 C :   -0.635884
   1 C :   -0.067126
   2 C :    0.249876
   3 N :   -0.275967
   4 C :    0.038647
   5 N :   -0.283749
   6 C :    0.236397
   7 O :   -0.122206
   8 C :    0.237189
   9 O :   -0.542573
  10 N :    0.076188
  11 C :   -0.408174
  12 C :   -0.406324
  13 N :    0.164396
  14 C :   -0.413469
  15 C :   -0.409774
  16 C :   -0.654846
  17 H :    0.184890
  18 H :    0.182000
  19 H :    0.176671
  20 H :    0.176183
  21 H :    0.172249
  22 H :    0.189917
  23 H :    0.188079
  24 H :    0.177282
  25 H :    0.170246
  26 H :    0.192781
  27 H :    0.163226
  28 H :    0.168363
  29 H :    0.171095
  30 H :    0.188149
  31 H :    0.162444
  32 H :    0.181434
  33 H :    0.183353
  34 H :    0.189040
Sum of atomic charges:    0.0000000

LOEWDIN ATOMIC CHARGES
----------------------
   0 C :   -0.376097
   1 C :   -0.070116
   2 C :    0.178801
   3 N :   -0.594375
   4 C :    0.429690
   5 N :   -0.514959
   6 C :    0.393552
   7 O :   -0.466781
   8 C :    0.472909
   9 O :   -0.481102
  10 N :   -0.768056
  11 C :   -0.094232
  12 C :   -0.091555
  13 N :   -0.793023
  14 C :   -0.105024
  15 C :   -0.103558
  16 C :   -0.356646
  17 H :    0.171034
  18 H :    0.176995
  19 H :    0.170630
  20 H :    0.186251
  21 H :    0.185916
  22 H :    0.204078
  23 H :    0.204398
  24 H :    0.183496
  25 H :    0.187773
  26 H :    0.206574
  27 H :    0.181001
  28 H :    0.180335
  29 H :    0.179326
  30 H :    0.205716
  31 H :    0.183031
  32 H :    0.175701
  33 H :    0.178629
  34 H :    0.179687

  Mayer bond orders larger than 0.100000
B(  0-C ,  1-C ) :   0.7129 B(  0-C , 17-H ) :   0.9777 B(  0-C , 18-H ) :   0.9930
B(  0-C , 19-H ) :   0.9683 B(  1-C ,  2-C ) :   1.3306 B(  1-C ,  6-C ) :   1.4162
B(  2-C ,  3-N ) :   1.3647 B(  2-C , 16-C ) :   0.7893 B(  3-N ,  4-C ) :   1.3418
B(  4-C ,  5-N ) :   1.3567 B(  4-C , 13-N ) :   1.3493 B(  5-N ,  6-C ) :   1.4021
B(  6-C ,  7-O ) :   0.9943 B(  7-O ,  8-C ) :   0.9899 B(  8-C ,  9-O ) :   1.7754
B(  8-C , 10-N ) :   1.3660 B( 10-N , 11-C ) :   0.9113 B( 10-N , 12-C ) :   0.8964
B( 11-C , 20-H ) :   0.9482 B( 11-C , 21-H ) :   0.9440 B( 11-C , 22-H ) :   0.9558
B( 12-C , 23-H ) :   0.9534 B( 12-C , 24-H ) :   0.9477 B( 12-C , 25-H ) :   0.9480
B( 13-N , 14-C ) :   0.8991 B( 13-N , 15-C ) :   0.8964 B( 14-C , 26-H ) :   0.9555
B( 14-C , 27-H ) :   0.9485 B( 14-C , 28-H ) :   0.9515 B( 15-C , 29-H ) :   0.9502
B( 15-C , 30-H ) :   0.9560 B( 15-C , 31-H ) :   0.9496 B( 16-C , 32-H ) :   1.0075
B( 16-C , 33-H ) :   0.9568 B( 16-C , 34-H ) :   0.9605

Dispersion correction           -0.013511825
FINAL SINGLE POINT ENERGY      -799.307250877770

DIPOLE MOMENT
-------------

Method             : SCF
Type of density    : Electron Density
Multiplicity       :   1
Irrep              :   0
Energy             :  -799.3315597682908447 Eh
Relativity type    :
Basis              : AO
                                X                 Y                 Z
Electronic contribution:     -0.352919240       0.190848099      -1.449137401
Nuclear contribution   :     -0.516934223      -0.754830684       2.692934168
                        -----------------------------------------
Total Dipole Moment    :     -0.869853463      -0.563982585       1.243796766
                        -----------------------------------------
Magnitude (a.u.)       :      1.619182448
Magnitude (Debye)      :      4.115634708

Rotational constants in cm-1:             0.022441             0.010584             0.007670
Rotational constants in MHz :           672.759292           317.290449           229.941160

                             ****ORCA TERMINATED NORMALLY****
TOTAL RUN TIME: 0 days 0 hours 2 minutes 2 seconds 300 msec
