                         Program Version 6.0.0  -   RELEASE  -
|  1> ! pbe def2-sv(p) def2/J RI DEFGRID1 loosescf d4 GCP(DFT/SV(P)) printgap
|  2> %output
|  3>     printlevel normal
|  4> end
|  5> * xyz 0 1
|  6> C -2.8570822959 0.8503462687 -0.4958621083
|  7> C -2.4033830555 -0.2243722598 0.4861607342
|  8> C -1.1343939817 -0.9678858233 0.0521530611
|  9> C 0.1772622244 -0.3108875755 0.484918961
| 10> C 1.3940323983 -1.2197133888 0.1961220472
| 11> C 2.5006396449 -0.313083794 -0.3670276152
| 12> C 2.0296832271 1.1105041452 -0.074114952
| 13> C 0.5148028856 1.0084987924 -0.2171677502
| 14> H -3.0313891322 0.4155329948 -1.4776884966
| 15> H -3.7858737198 1.3013995019 -0.153278385
| 16> H -2.114093384 1.6351657342 -0.5955268588
| 17> H -2.2412624837 0.2234296058 1.4688965725
| 18> H -3.2127524593 -0.9510815535 0.5894666254
| 19> H -1.1555779984 -1.9680959172 0.4928089905
| 20> H -1.1386974436 -1.0876338365 -1.0336464134
| 21> H 0.1256242687 -0.1229351067 1.56268972
| 22> H 1.7206351221 -1.7198442601 1.1074096651
| 23> H 1.1291040915 -1.992927962 -0.5250159243
| 24> H 3.4717730075 -0.524667829 0.0779502391
| 25> H 2.5874060769 -0.4531716853 -1.4451306141
| 26> H 2.2854051573 1.3882192658 0.9498858832
| 27> H 2.4690714227 1.8431843863 -0.7496663466
| 28> H 0.00253778 1.8600572542 0.2275330096
| 29> H 0.2477784153 0.9469562223 -1.2734567304
| 30> *
| 31>
| 32>                          ****END OF INPUT****

CARTESIAN COORDINATES (ANGSTROEM)
---------------------------------
  C     -2.857082    0.850346   -0.495862
  C     -2.403383   -0.224372    0.486161
  C     -1.134394   -0.967886    0.052153
  C      0.177262   -0.310888    0.484919
  C      1.394032   -1.219713    0.196122
  C      2.500640   -0.313084   -0.367028
  C      2.029683    1.110504   -0.074115
  C      0.514803    1.008499   -0.217168
  H     -3.031389    0.415533   -1.477688
  H     -3.785874    1.301400   -0.153278
  H     -2.114093    1.635166   -0.595527
  H     -2.241262    0.223430    1.468897
  H     -3.212752   -0.951082    0.589467
  H     -1.155578   -1.968096    0.492809
  H     -1.138697   -1.087634   -1.033646
  H      0.125624   -0.122935    1.562690
  H      1.720635   -1.719844    1.107410
  H      1.129104   -1.992928   -0.525016
  H      3.471773   -0.524668    0.077950
  H      2.587406   -0.453172   -1.445131
  H      2.285405    1.388219    0.949886
  H      2.469071    1.843184   -0.749666
  H      0.002538    1.860057    0.227533
  H      0.247778    0.946956   -1.273457

 Total Charge           Charge          ....    0
 Multiplicity           Mult            ....    1
 Number of Electrons    NEL             ....   64
 Basis Dimension        Dim             ....  144

ORBITAL ENERGIES
----------------

  NO   OCC          E(Eh)            E(eV)
   0   2.0000      -9.884134      -268.9610
   1   2.0000      -9.878132      -268.7976
   2   2.0000      -9.876424      -268.7512
   3   2.0000      -9.875459      -268.7249
   4   2.0000      -9.874701      -268.7043
   5   2.0000      -9.874343      -268.6945
   6   2.0000      -9.872861      -268.6542
   7   2.0000      -9.867715      -268.5142
   8   2.0000      -0.758328       -20.6351
   9   2.0000      -0.702784       -19.1237
  10   2.0000      -0.644481       -17.5372
  11   2.0000      -0.629337       -17.1251
  12   2.0000      -0.583652       -15.8820
  13   2.0000      -0.514641       -14.0041
  14   2.0000      -0.502573       -13.6757
  15   2.0000      -0.486885       -13.2488
  16   2.0000      -0.432978       -11.7819
  17   2.0000      -0.418830       -11.3969
  18   2.0000      -0.395277       -10.7560
  19   2.0000      -0.378813       -10.3080
  20   2.0000      -0.370584       -10.0841
  21   2.0000      -0.366943        -9.9850
  22   2.0000      -0.333807        -9.0833
  23   2.0000      -0.320429        -8.7193
  24   2.0000      -0.304937        -8.2978
  25   2.0000      -0.290560        -7.9065
  26   2.0000      -0.289561        -7.8794
  27   2.0000      -0.288203        -7.8424
  28   2.0000      -0.279222        -7.5980
  29   2.0000      -0.268174        -7.2974
  30   2.0000      -0.261572        -7.1177
  31   2.0000      -0.260098        -7.0776
  32   0.0000       0.032172         0.8754
  33   0.0000       0.044085         1.1996
  34   0.0000       0.050304         1.3688
  35   0.0000       0.069450         1.8898
  36   0.0000       0.084809         2.3078

MULLIKEN ATOMIC CHARGES
-----------------------
   0 C :   -0.293569
   1 C :   -0.155805
   2 C :   -0.117245
   3 C :   -0.217127
   4 C :   -0.092240
   5 C :   -0.165529
   6 C :   -0.137229
   7 C :   -0.144011
   8 H :    0.095857
   9 H :    0.099692
  10 H :    0.111855
  11 H :    0.080367
  12 H :    0.080004
  13 H :    0.079364
  14 H :    0.072258
  15 H :    0.060521
  16 H :    0.076599
  17 H :    0.073597
  18 H :    0.082276
  19 H :    0.076493
  20 H :    0.076291
  21 H :    0.085298
  22 H :    0.097670
  23 H :    0.074616
Sum of atomic charges:    0.0000000

LOEWDIN ATOMIC CHARGES
----------------------
   0 C :   -0.343784
   1 C :   -0.233259
   2 C :   -0.218280
   3 C :   -0.144241
   4 C :   -0.222610
   5 C :   -0.229907
   6 C :   -0.227187
   7 C :   -0.225012
   8 H :    0.115579
   9 H :    0.117618
  10 H :    0.117106
  11 H :    0.113642
  12 H :    0.114940
  13 H :    0.115252
  14 H :    0.111604
  15 H :    0.113028
  16 H :    0.117964
  17 H :    0.116377
  18 H :    0.116001
  19 H :    0.115909
  20 H :    0.114582
  21 H :    0.114754
  22 H :    0.115953
  23 H :    0.113970

  Mayer bond orders larger than 0.100000
B(  0-C ,  1-C ) :   1.1660 B(  0-C ,  8-H ) :   0.9533 B(  0-C ,  9-H ) :   0.9511
B(  0-C , 10-H ) :   0.9444 B(  1-C ,  2-C ) :   1.1041 B(  1-C , 11-H ) :   0.9247
B(  1-C , 12-H ) :   0.9273 B(  2-C ,  3-C ) :   1.1089 B(  2-C , 13-H ) :   0.9191
B(  2-C , 14-H ) :   0.9110 B(  3-C ,  4-C ) :   1.1124 B(  3-C ,  7-C ) :   1.1242
B(  3-C , 15-H ) :   0.8884 B(  4-C ,  5-C ) :   1.1640 B(  4-C , 16-H ) :   0.9141
B(  4-C , 17-H ) :   0.9155 B(  5-C ,  6-C ) :   1.1543 B(  5-C , 18-H ) :   0.9233
B(  5-C , 19-H ) :   0.9182 B(  6-C ,  7-C ) :   1.1067 B(  6-C , 20-H ) :   0.9186
B(  6-C , 21-H ) :   0.9281 B(  7-C , 22-H ) :   0.9137 B(  7-C , 23-H ) :   0.9100

Dispersion correction           -0.020925951
FINAL SINGLE POINT ENERGY      -313.691146266672

DIPOLE MOMENT
-------------

Method             : SCF
Type of density    : Electron Density
Multiplicity       :   1
Irrep              :   0
Energy             :  -313.7721484222959134 Eh
Relativity type    :
Basis              : AO
                                X                 Y                 Z
Electronic contribution:      2.484060318      -0.748864592       0.770232427
Nuclear contribution   :     -2.477042455       0.744513819      -0.728736026
                        -----------------------------------------
Total Dipole Moment    :      0.007017863      -0.004350774       0.041496401
                        -----------------------------------------
Magnitude (a.u.)       :      0.042309939
Magnitude (Debye)      :      0.107543317

Rotational constants in cm-1:             0.137937             0.038434             0.032715
Rotational constants in MHz :          4135.253812          1152.220815           980.772804

                             ****ORCA TERMINATED NORMALLY****
TOTAL RUN TIME: 0 days 0 hours 0 minutes 10 seconds 760 msec
