                         Program Version 6.0.0  -   RELEASE  -
|  1> ! pbe def2-sv(p) def2/J RI DEFGRID1 loosescf d4 GCP(DFT/SV(P)) printgap
|  2> %output
|  3>     printlevel normal
|  4> end
|  5> * xyz 0 1
|  6> C 0.0417151433 -3.1286229995 -0.1265857029
|  7> C 0.6691000675 -1.7744119134 -0.0351717649
|  8> C 2.0551064584 -1.5753373963 -0.0807519034
|  9> N 2.6001031755 -0.3715513873 -0.0148467272
| 10> C 1.7875749122 0.6877966541 0.114185313
| 11> N 0.4474775819 0.5982828347 0.2062831533
| 12> C -0.0740030084 -0.6054536804 0.1094322931
| 13> O -1.4441041452 -0.7029988375 0.2351300154
| 14> C -2.2301932173 0.2422258096 -0.3739590748
| 15> O -1.8457021362 0.9059074159 -1.3217774473
| 16> N -3.4543036768 0.2973332259 0.1531077935
| 17> C -4.4586321019 1.1494494147 -0.4481852826
| 18> C -3.8983000506 -0.5033266639 1.2734611466
| 19> N 2.3346751321 1.906950148 0.1670221134
| 20> C 3.7639325321 2.1018256797 0.1403319841
| 21> C 1.5272126353 3.0987907272 0.2535532386
| 22> C 2.99324337 -2.7291874137 -0.2174536233
| 23> H 0.3302471447 -3.7395253704 0.7275957084
| 24> H -1.040537775 -3.0358802264 -0.1422128006
| 25> H 0.3677624204 -3.636965195 -1.0324413826
| 26> H -4.8045454415 1.8813826809 0.2814772135
| 27> H -5.3015536453 0.5452023224 -0.7840136041
| 28> H -4.0142435943 1.6631610584 -1.2970633183
| 29> H -3.0445309456 -0.9560902567 1.7678720664
| 30> H -4.5739677137 -1.2879290091 0.9286964348
| 31> H -4.426860105 0.1399659853 1.9760498006
| 32> H 4.247465276 1.1305100079 0.1165330034
| 33> H 4.0752296284 2.6504157306 1.0306123376
| 34> H 4.0453528888 2.6735321227 -0.7458209877
| 35> H 1.6148972694 3.5477682679 1.2452637249
| 36> H 0.4898246334 2.8358891325 0.0646111176
| 37> H 1.8639652449 3.8173240584 -0.4942938571
| 38> H 4.0155535588 -2.3665283279 -0.2100374069
| 39> H 2.8447452691 -3.4288688461 0.601772443
| 40> H 2.8008805277 -3.2553610141 -1.1500148582
| 41> *
| 42>
| 43>                          ****END OF INPUT****

CARTESIAN COORDINATES (ANGSTROEM)
---------------------------------
  C      0.041715   -3.128623   -0.126586
  C      0.669100   -1.774412   -0.035172
  C      2.055106   -1.575337   -0.080752
  N      2.600103   -0.371551   -0.014847
  C      1.787575    0.687797    0.114185
  N      0.447478    0.598283    0.206283
  C     -0.074003   -0.605454    0.109432
  O     -1.444104   -0.702999    0.235130
  C     -2.230193    0.242226   -0.373959
  O     -1.845702    0.905907   -1.321777
  N     -3.454304    0.297333    0.153108
  C     -4.458632    1.149449   -0.448185
  C     -3.898300   -0.503327    1.273461
  N      2.334675    1.906950    0.167022
  C      3.763933    2.101826    0.140332
  C      1.527213    3.098791    0.253553
  C      2.993243   -2.729187   -0.217454
  H      0.330247   -3.739525    0.727596
  H     -1.040538   -3.035880   -0.142213
  H      0.367762   -3.636965   -1.032441
  H     -4.804545    1.881383    0.281477
  H     -5.301554    0.545202   -0.784014
  H     -4.014244    1.663161   -1.297063
  H     -3.044531   -0.956090    1.767872
  H     -4.573968   -1.287929    0.928696
  H     -4.426860    0.139966    1.976050
  H      4.247465    1.130510    0.116533
  H      4.075230    2.650416    1.030612
  H      4.045353    2.673532   -0.745821
  H      1.614897    3.547768    1.245264
  H      0.489825    2.835889    0.064611
  H      1.863965    3.817324   -0.494294
  H      4.015554   -2.366528   -0.210037
  H      2.844745   -3.428869    0.601772
  H      2.800881   -3.255361   -1.150015

 Total Charge           Charge          ....    0
 Multiplicity           Mult            ....    1
 Number of Electrons    NEL             ....  128
 Basis Dimension        Dim             ....  274

ORBITAL ENERGIES
----------------

  NO   OCC          E(Eh)            E(eV)
   0   2.0000     -18.799019      -511.5473
   1   2.0000     -18.709453      -509.1101
   2   2.0000     -14.029254      -381.7554
   3   2.0000     -14.015007      -381.3677
   4   2.0000     -13.966306      -380.0425
   5   2.0000     -13.962653      -379.9431
   6   2.0000     -10.016994      -272.5763
   7   2.0000      -9.976809      -271.4828
   8   2.0000      -9.970360      -271.3073
   9   2.0000      -9.929234      -270.1882
  10   2.0000      -9.922254      -269.9982
  11   2.0000      -9.917375      -269.8655
  12   2.0000      -9.904274      -269.5090
  13   2.0000      -9.902773      -269.4681
  14   2.0000      -9.888274      -269.0736
  15   2.0000      -9.881407      -268.8868
  16   2.0000      -9.877810      -268.7889
  17   2.0000      -1.008646       -27.4467
  18   2.0000      -0.914798       -24.8929
  19   2.0000      -0.900588       -24.5062
  20   2.0000      -0.857025       -23.3208
  21   2.0000      -0.837606       -22.7924
  22   2.0000      -0.787333       -21.4244
  23   2.0000      -0.722800       -19.6684
  24   2.0000      -0.668310       -18.1856
  25   2.0000      -0.656907       -17.8754
  26   2.0000      -0.651950       -17.7405
  27   2.0000      -0.642651       -17.4874
  28   2.0000      -0.632914       -17.2225
  29   2.0000      -0.589534       -16.0420
  30   2.0000      -0.567657       -15.4467
  31   2.0000      -0.519724       -14.1424
  32   2.0000      -0.509066       -13.8524
  33   2.0000      -0.487356       -13.2616
  34   2.0000      -0.470897       -12.8138
  35   2.0000      -0.449802       -12.2397
  36   2.0000      -0.438412       -11.9298
  37   2.0000      -0.429513       -11.6876
  38   2.0000      -0.423603       -11.5268
  39   2.0000      -0.403661       -10.9842
  40   2.0000      -0.399223       -10.8634
  41   2.0000      -0.389470       -10.5980
  42   2.0000      -0.375256       -10.2112
  43   2.0000      -0.374019       -10.1776
  44   2.0000      -0.365260        -9.9392
  45   2.0000      -0.363499        -9.8913
  46   2.0000      -0.357815        -9.7366
  47   2.0000      -0.355459        -9.6725
  48   2.0000      -0.353459        -9.6181
  49   2.0000      -0.350369        -9.5340
  50   2.0000      -0.347892        -9.4666
  51   2.0000      -0.343696        -9.3525
  52   2.0000      -0.335996        -9.1429
  53   2.0000      -0.332807        -9.0561
  54   2.0000      -0.325600        -8.8600
  55   2.0000      -0.323246        -8.7960
  56   2.0000      -0.284553        -7.7431
  57   2.0000      -0.252286        -6.8650
  58   2.0000      -0.248046        -6.7497
  59   2.0000      -0.232804        -6.3349
  60   2.0000      -0.213101        -5.7988
  61   2.0000      -0.205370        -5.5884
  62   2.0000      -0.184687        -5.0256
  63   2.0000      -0.167985        -4.5711
  64   0.0000      -0.039803        -1.0831
  65   0.0000      -0.011764        -0.3201
  66   0.0000       0.026355         0.7172
  67   0.0000       0.032999         0.8980
  68   0.0000       0.044709         1.2166

MULLIKEN ATOMIC CHARGES
-----------------------
   0 C :   -0.184710
   1 C :   -0.137265
   2 C :   -0.124823
   3 N :   -0.106034
   4 C :    0.051870
   5 N :   -0.092486
   6 C :    0.111764
   7 O :   -0.253712
   8 C :    0.222761
   9 O :   -0.231387
  10 N :   -0.242884
  11 C :   -0.172333
  12 C :   -0.172680
  13 N :   -0.206372
  14 C :   -0.167673
  15 C :   -0.171711
  16 C :   -0.185129
  17 H :    0.104679
  18 H :    0.106097
  19 H :    0.104335
  20 H :    0.110779
  21 H :    0.107572
  22 H :    0.145724
  23 H :    0.143515
  24 H :    0.109292
  25 H :    0.107807
  26 H :    0.138087
  27 H :    0.099277
  28 H :    0.103236
  29 H :    0.099888
  30 H :    0.154541
  31 H :    0.100648
  32 H :    0.105790
  33 H :    0.108549
  34 H :    0.112989
Sum of atomic charges:    0.0000000

LOEWDIN ATOMIC CHARGES
----------------------
   0 C :   -0.323554
   1 C :   -0.134759
   2 C :    0.006117
   3 N :   -0.124452
   4 C :    0.030842
   5 N :   -0.119504
   6 C :    0.068779
   7 O :   -0.053426
   8 C :    0.044038
   9 O :   -0.202160
  10 N :   -0.058145
  11 C :   -0.246997
  12 C :   -0.250854
  13 N :   -0.037876
  14 C :   -0.254337
  15 C :   -0.253090
  16 C :   -0.330601
  17 H :    0.126746
  18 H :    0.127853
  19 H :    0.127647
  20 H :    0.116801
  21 H :    0.115485
  22 H :    0.138986
  23 H :    0.132823
  24 H :    0.114842
  25 H :    0.117255
  26 H :    0.132805
  27 H :    0.111962
  28 H :    0.113181
  29 H :    0.111353
  30 H :    0.139467
  31 H :    0.113919
  32 H :    0.130877
  33 H :    0.132967
  34 H :    0.135010

  Mayer bond orders larger than 0.100000
B(  0-C ,  1-C ) :   1.1646 B(  0-C , 17-H ) :   0.9262 B(  0-C , 18-H ) :   0.9261
B(  0-C , 19-H ) :   0.9228 B(  1-C ,  2-C ) :   1.3171 B(  1-C ,  6-C ) :   1.3539
B(  2-C ,  3-N ) :   1.5988 B(  2-C , 16-C ) :   1.1616 B(  3-N ,  4-C ) :   1.4162
B(  4-C ,  5-N ) :   1.4097 B(  4-C , 13-N ) :   1.2106 B(  5-N ,  6-C ) :   1.5516
B(  6-C ,  7-O ) :   1.0544 B(  7-O ,  8-C ) :   1.0224 B(  8-C ,  9-O ) :   2.0209
B(  8-C , 10-N ) :   1.1969 B( 10-N , 11-C ) :   1.0117 B( 10-N , 12-C ) :   1.0076
B( 11-C , 20-H ) :   0.9532 B( 11-C , 21-H ) :   0.9516 B( 11-C , 22-H ) :   0.9324
B( 12-C , 23-H ) :   0.9414 B( 12-C , 24-H ) :   0.9505 B( 12-C , 25-H ) :   0.9485
B( 13-N , 14-C ) :   1.0189 B( 13-N , 15-C ) :   1.0165 B( 14-C , 26-H ) :   0.9235
B( 14-C , 27-H ) :   0.9495 B( 14-C , 28-H ) :   0.9500 B( 15-C , 29-H ) :   0.9504
B( 15-C , 30-H ) :   0.9251 B( 15-C , 31-H ) :   0.9491 B( 16-C , 32-H ) :   0.9275
B( 16-C , 33-H ) :   0.9231 B( 16-C , 34-H ) :   0.9229

Dispersion correction           -0.039323712
FINAL SINGLE POINT ENERGY      -797.788897953914

DIPOLE MOMENT
-------------

Method             : SCF
Type of density    : Electron Density
Multiplicity       :   1
Irrep              :   0
Energy             :  -797.9084399630764892 Eh
Relativity type    :
Basis              : AO
                                X                 Y                 Z
Electronic contribution:     -0.083374037       0.566948458      -1.948943389
Nuclear contribution   :     -0.516934223      -0.754830684       2.692934168
                        -----------------------------------------
Total Dipole Moment    :     -0.600308260      -0.187882226       0.743990778
                        -----------------------------------------
Magnitude (a.u.)       :      0.974264859
Magnitude (Debye)      :      2.476384471

Rotational constants in cm-1:             0.022441             0.010584             0.007670
Rotational constants in MHz :           672.759292           317.290449           229.941160

                             ****ORCA TERMINATED NORMALLY****
TOTAL RUN TIME: 0 days 0 hours 0 minutes 25 seconds 77 msec
