                         Program Version 6.0.0  -   RELEASE  -
|  1> ! r2scan-3c def2/J RI DEFGRID2 scfconv6 printgap
|  2> %output
|  3>     printlevel normal
|  4> end
|  5> * xyz 0 1
|  6> C -2.4205488317 -0.7371048009 -0.0972865605
|  7> C -1.7479530265 0.5750571167 0.2941626944
|  8> C -0.4428438438 0.886358365 -0.4459986759
|  9> C 0.8006339571 0.0464380119 -0.05219456
| 10> C 2.0593339573 0.8918916721 -0.2783557123
| 11> C 0.9034672552 -1.2326934924 -0.8913183193
| 12> O 0.7977695748 -0.2717525961 1.3361390059
| 13> H -2.5259720609 -0.8022040602 -1.178052217
| 14> H -3.4127670106 -0.7884556437 0.3458988384
| 15> H -1.8603928243 -1.6019810689 0.2480184444
| 16> H -2.4425251251 1.3896799794 0.0751246747
| 17> H -1.5613259007 0.5932285048 1.3699329501
| 18> H -0.5995408689 0.7821205777 -1.52048499
| 19> H -0.2076247437 1.9336851871 -0.2450998243
| 20> H 2.0604051061 1.7335537725 0.4094133648
| 21> H 2.0883469081 1.2603084558 -1.299045865
| 22> H 2.9459944682 0.2936496434 -0.0857027446
| 23> H 1.7589399543 -1.8172393146 -0.5587415833
| 24> H 1.0428610953 -0.9792570014 -1.9382066022
| 25> H 0.0091769401 -1.8414494461 -0.7991979943
| 26> H 0.1450618928 -0.9654554398 1.4958698029
| 27> *
| 28>
| 29>                          ****END OF INPUT****

CARTESIAN COORDINATES (ANGSTROEM)
---------------------------------
  C     -2.420549   -0.737105   -0.097287
  C     -1.747953    0.575057    0.294163
  C     -0.442844    0.886358   -0.445999
  C      0.800634    0.046438   -0.052195
  C      2.059334    0.891892   -0.278356
  C      0.903467   -1.232693   -0.891318
  O      0.797770   -0.271753    1.336139
  H     -2.525972   -0.802204   -1.178052
  H     -3.412767   -0.788456    0.345899
  H     -1.860393   -1.601981    0.248018
  H     -2.442525    1.389680    0.075125
  H     -1.561326    0.593229    1.369933
  H     -0.599541    0.782121   -1.520485
  H     -0.207625    1.933685   -0.245100
  H      2.060405    1.733554    0.409413
  H      2.088347    1.260308   -1.299046
  H      2.945994    0.293650   -0.085703
  H      1.758940   -1.817239   -0.558742
  H      1.042861   -0.979257   -1.938207
  H      0.009177   -1.841449   -0.799198
  H      0.145062   -0.965455    1.495870

 Total Charge           Charge          ....    0
 Multiplicity           Mult            ....    1
 Number of Electrons    NEL             ....   58
 Basis Dimension        Dim             ....  208

ORBITAL ENERGIES
----------------

  NO   OCC          E(Eh)            E(eV)
   0   2.0000     -18.942892      -515.4623
   1   2.0000     -10.086926      -274.4792
   2   2.0000     -10.026486      -272.8346
   3   2.0000     -10.021543      -272.7000
   4   2.0000     -10.021155      -272.6895
   5   2.0000     -10.017310      -272.5849
   6   2.0000     -10.012673      -272.4587
   7   2.0000      -0.982547       -26.7365
   8   2.0000      -0.766583       -20.8598
   9   2.0000      -0.729357       -19.8468
  10   2.0000      -0.659121       -17.9356
  11   2.0000      -0.647976       -17.6323
  12   2.0000      -0.564485       -15.3604
  13   2.0000      -0.530661       -14.4400
  14   2.0000      -0.456683       -12.4270
  15   2.0000      -0.436698       -11.8831
  16   2.0000      -0.423834       -11.5331
  17   2.0000      -0.398336       -10.8393
  18   2.0000      -0.389134       -10.5889
  19   2.0000      -0.368522       -10.0280
  20   2.0000      -0.355300        -9.6682
  21   2.0000      -0.350104        -9.5268
  22   2.0000      -0.349430        -9.5085
  23   2.0000      -0.324543        -8.8313
  24   2.0000      -0.308177        -8.3859
  25   2.0000      -0.299378        -8.1465
  26   2.0000      -0.296246        -8.0613
  27   2.0000      -0.274014        -7.4563
  28   2.0000      -0.232409        -6.3242
  29   0.0000       0.050116         1.3637
  30   0.0000       0.094070         2.5598
  31   0.0000       0.109696         2.9850
  32   0.0000       0.112785         3.0690
  33   0.0000       0.130182         3.5424

MULLIKEN ATOMIC CHARGES
-----------------------
   0 C :   -0.494894
   1 C :   -0.287962
   2 C :   -0.227286
   3 C :    0.153494
   4 C :   -0.486181
   5 C :   -0.505193
   6 O :   -0.409448
   7 H :    0.152163
   8 H :    0.149780
   9 H :    0.130663
  10 H :    0.143713
  11 H :    0.170590
  12 H :    0.147070
  13 H :    0.150684
  14 H :    0.159330
  15 H :    0.148022
  16 H :    0.150495
  17 H :    0.163546
  18 H :    0.154894
  19 H :    0.146111
  20 H :    0.290407
Sum of atomic charges:    0.0000000

LOEWDIN ATOMIC CHARGES
----------------------
   0 C :   -0.427890
   1 C :   -0.311487
   2 C :   -0.278008
   3 C :    0.061837
   4 C :   -0.373860
   5 C :   -0.391508
   6 O :   -0.602919
   7 H :    0.151609
   8 H :    0.151960
   9 H :    0.139853
  10 H :    0.154488
  11 H :    0.161526
  12 H :    0.161512
  13 H :    0.165655
  14 H :    0.165589
  15 H :    0.159090
  16 H :    0.161583
  17 H :    0.163401
  18 H :    0.161021
  19 H :    0.156602
  20 H :    0.269946

  Mayer bond orders larger than 0.100000
B(  0-C ,  1-C ) :   0.8858 B(  0-C ,  7-H ) :   0.9822 B(  0-C ,  8-H ) :   0.9701
B(  0-C ,  9-H ) :   0.9798 B(  1-C ,  2-C ) :   0.8637 B(  1-C , 10-H ) :   0.9650
B(  1-C , 11-H ) :   0.9974 B(  2-C ,  3-C ) :   0.8670 B(  2-C , 12-H ) :   0.9713
B(  2-C , 13-H ) :   0.9680 B(  3-C ,  4-C ) :   0.9294 B(  3-C ,  5-C ) :   0.9573
B(  3-C ,  6-O ) :   0.8769 B(  4-C , 14-H ) :   0.9758 B(  4-C , 15-H ) :   0.9778
B(  4-C , 16-H ) :   0.9722 B(  5-C , 17-H ) :   0.9813 B(  5-C , 18-H ) :   0.9748
B(  5-C , 19-H ) :   0.9520 B(  6-O , 20-H ) :   0.8954

Dispersion correction           -0.005790395
FINAL SINGLE POINT ENERGY      -312.202942483733

DIPOLE MOMENT
-------------

Method             : SCF
Type of density    : Electron Density
Multiplicity       :   1
Irrep              :   0
Energy             :  -312.2082927593442037 Eh
Relativity type    :
Basis              : AO
                                X                 Y                 Z
Electronic contribution:      2.017863826       0.581030480       3.017054726
Nuclear contribution   :     -2.389260773      -0.763772733      -3.432869334
                        -----------------------------------------
Total Dipole Moment    :     -0.371396947      -0.182742253      -0.415814608
                        -----------------------------------------
Magnitude (a.u.)       :      0.586713057
Magnitude (Debye)      :      1.491306075

Rotational constants in cm-1:             0.131061             0.056628             0.053580
Rotational constants in MHz :          3929.099257          1697.663751          1606.292576

                             ****ORCA TERMINATED NORMALLY****
TOTAL RUN TIME: 0 days 0 hours 0 minutes 25 seconds 274 msec
