                         Program Version 6.0.0  -   RELEASE  -
|  1> ! r2scan-3c def2/J RI DEFGRID2 scfconv6 printgap
|  2> %output
|  3>     printlevel normal
|  4> end
|  5> %cpcm
|  6>     smd true
|  7>     smdsolvent "water"
|  8> end
|  9> * xyz 0 1
| 10> C -2.4205488317 -0.7371048009 -0.0972865605
| 11> C -1.7479530265 0.5750571167 0.2941626944
| 12> C -0.4428438438 0.886358365 -0.4459986759
| 13> C 0.8006339571 0.0464380119 -0.05219456
| 14> C 2.0593339573 0.8918916721 -0.2783557123
| 15> C 0.9034672552 -1.2326934924 -0.8913183193
| 16> O 0.7977695748 -0.2717525961 1.3361390059
| 17> H -2.5259720609 -0.8022040602 -1.178052217
| 18> H -3.4127670106 -0.7884556437 0.3458988384
| 19> H -1.8603928243 -1.6019810689 0.2480184444
| 20> H -2.4425251251 1.3896799794 0.0751246747
| 21> H -1.5613259007 0.5932285048 1.3699329501
| 22> H -0.5995408689 0.7821205777 -1.52048499
| 23> H -0.2076247437 1.9336851871 -0.2450998243
| 24> H 2.0604051061 1.7335537725 0.4094133648
| 25> H 2.0883469081 1.2603084558 -1.299045865
| 26> H 2.9459944682 0.2936496434 -0.0857027446
| 27> H 1.7589399543 -1.8172393146 -0.5587415833
| 28> H 1.0428610953 -0.9792570014 -1.9382066022
| 29> H 0.0091769401 -1.8414494461 -0.7991979943
| 30> H 0.1450618928 -0.9654554398 1.4958698029
| 31> *
| 32>
| 33>                          ****END OF INPUT****

CARTESIAN COORDINATES (ANGSTROEM)
---------------------------------
  C     -2.420549   -0.737105   -0.097287
  C     -1.747953    0.575057    0.294163
  C     -0.442844    0.886358   -0.445999
  C      0.800634    0.046438   -0.052195
  C      2.059334    0.891892   -0.278356
  C      0.903467   -1.232693   -0.891318
  O      0.797770   -0.271753    1.336139
  H     -2.525972   -0.802204   -1.178052
  H     -3.412767   -0.788456    0.345899
  H     -1.860393   -1.601981    0.248018
  H     -2.442525    1.389680    0.075125
  H     -1.561326    0.593229    1.369933
  H     -0.599541    0.782121   -1.520485
  H     -0.207625    1.933685   -0.245100
  H      2.060405    1.733554    0.409413
  H      2.088347    1.260308   -1.299046
  H      2.945994    0.293650   -0.085703
  H      1.758940   -1.817239   -0.558742
  H      1.042861   -0.979257   -1.938207
  H      0.009177   -1.841449   -0.799198
  H      0.145062   -0.965455    1.495870

 Total Charge           Charge          ....    0
 Multiplicity           Mult            ....    1
 Number of Electrons    NEL             ....   58
 Basis Dimension        Dim             ....  208

ORBITAL ENERGIES
----------------

  NO   OCC          E(Eh)            E(eV)
   0   2.0000     -18.947006      -515.5742
   1   2.0000     -10.083058      -274.3739
   2   2.0000     -10.016978      -272.5758
   3   2.0000     -10.012923      -272.4655
   4   2.0000     -10.008170      -272.3361
   5   2.0000     -10.007383      -272.3147
   6   2.0000     -10.007176      -272.3091
   7   2.0000      -0.985484       -26.8164
   8   2.0000      -0.759303       -20.6617
   9   2.0000      -0.720924       -19.6173
  10   2.0000      -0.650933       -17.7128
  11   2.0000      -0.639711       -17.4074
  12   2.0000      -0.556464       -15.1422
  13   2.0000      -0.526651       -14.3309
  14   2.0000      -0.451586       -12.2883
  15   2.0000      -0.428931       -11.6718
  16   2.0000      -0.416175       -11.3247
  17   2.0000      -0.391001       -10.6397
  18   2.0000      -0.381773       -10.3886
  19   2.0000      -0.358574        -9.7573
  20   2.0000      -0.349240        -9.5033
  21   2.0000      -0.344219        -9.3667
  22   2.0000      -0.340042        -9.2530
  23   2.0000      -0.319696        -8.6994
  24   2.0000      -0.302406        -8.2289
  25   2.0000      -0.291459        -7.9310
  26   2.0000      -0.289023        -7.8647
  27   2.0000      -0.269402        -7.3308
  28   2.0000      -0.235726        -6.4144
  29   0.0000       0.066500         1.8096
  30   0.0000       0.107380         2.9220
  31   0.0000       0.118863         3.2344
  32   0.0000       0.123044         3.3482
  33   0.0000       0.139859         3.8058

MULLIKEN ATOMIC CHARGES
-----------------------
   0 C :   -0.544220
   1 C :   -0.259132
   2 C :   -0.279667
   3 C :    0.199523
   4 C :   -0.534458
   5 C :   -0.539826
   6 O :   -0.501107
   7 H :    0.160138
   8 H :    0.155597
   9 H :    0.161156
  10 H :    0.151977
  11 H :    0.158568
  12 H :    0.164059
  13 H :    0.159404
  14 H :    0.165207
  15 H :    0.170201
  16 H :    0.161597
  17 H :    0.165260
  18 H :    0.172800
  19 H :    0.165182
  20 H :    0.347741
Sum of atomic charges:    0.0000000

LOEWDIN ATOMIC CHARGES
----------------------
   0 C :   -0.434836
   1 C :   -0.311645
   2 C :   -0.280007
   3 C :    0.062913
   4 C :   -0.384109
   5 C :   -0.393979
   6 O :   -0.639956
   7 H :    0.153320
   8 H :    0.152668
   9 H :    0.150151
  10 H :    0.156087
  11 H :    0.159271
  12 H :    0.168012
  13 H :    0.166369
  14 H :    0.164880
  15 H :    0.167333
  16 H :    0.162135
  17 H :    0.163222
  18 H :    0.166740
  19 H :    0.163565
  20 H :    0.287864

  Mayer bond orders larger than 0.100000
B(  0-C ,  1-C ) :   0.8738 B(  0-C ,  7-H ) :   0.9793 B(  0-C ,  8-H ) :   0.9678
B(  0-C ,  9-H ) :   0.9773 B(  1-C ,  2-C ) :   0.8778 B(  1-C , 10-H ) :   0.9673
B(  1-C , 11-H ) :   0.9933 B(  2-C ,  3-C ) :   0.8717 B(  2-C , 12-H ) :   0.9683
B(  2-C , 13-H ) :   0.9689 B(  3-C ,  4-C ) :   0.9233 B(  3-C ,  5-C ) :   0.9515
B(  3-C ,  6-O ) :   0.8524 B(  4-C , 14-H ) :   0.9721 B(  4-C , 15-H ) :   0.9720
B(  4-C , 16-H ) :   0.9723 B(  5-C , 17-H ) :   0.9767 B(  5-C , 18-H ) :   0.9709
B(  5-C , 19-H ) :   0.9504 B(  6-O , 20-H ) :   0.8693

Dispersion correction           -0.005790395
FINAL SINGLE POINT ENERGY      -312.208855615380

DIPOLE MOMENT
-------------

Method             : SCF
Type of density    : Electron Density
Multiplicity       :   1
Irrep              :   0
Energy             :  -312.2142058909913089 Eh
Relativity type    :
Basis              : AO
                                X                 Y                 Z
Electronic contribution:      1.849262084       0.436455586       2.798410223
Nuclear contribution   :     -2.389260773      -0.763772733      -3.432869334
                        -----------------------------------------
Total Dipole Moment    :     -0.539998689      -0.327317147      -0.634459111
                        -----------------------------------------
Magnitude (a.u.)       :      0.895138795
Magnitude (Debye)      :      2.275262000

Rotational constants in cm-1:             0.131061             0.056628             0.053580
Rotational constants in MHz :          3929.099257          1697.663751          1606.292576

                             ****ORCA TERMINATED NORMALLY****
TOTAL RUN TIME: 0 days 0 hours 0 minutes 30 seconds 191 msec
