                         Program Version 6.0.0  -   RELEASE  -
|  1> ! pbe def2-sv(p) def2/J RI DEFGRID1 loosescf d4 GCP(DFT/SV(P)) printgap
|  2> %output
|  3>     printlevel normal
|  4> end
|  5> * xyz 0 1
|  6> C -1.3698568513 -1.2059332806 0.8455030268
|  7> C -1.7730606283 -0.246530989 -0.273217272
|  8> C -2.4325563443 1.0001583774 0.3135851021
|  9> C -0.5668858922 0.157427182 -1.1591021467
| 10> O 0.6599286509 -0.4751008165 -0.7805950745
| 11> C 1.4603850011 0.1468467172 0.0778567318
| 12> O 1.2147880985 1.2319151454 0.5640232429
| 13> C 2.7054517799 -0.6468680819 0.3396831478
| 14> H -0.8855045144 -2.0907886094 0.4398717836
| 15> H -2.2533324801 -1.5140678371 1.3978796123
| 16> H -0.6861108106 -0.7195983263 1.5396138451
| 17> H -2.4997011283 -0.7593147096 -0.9099311804
| 18> H -2.7732600639 1.6625176639 -0.4781779885
| 19> H -1.7223437275 1.5403258483 0.9369300022
| 20> H -3.2879492249 0.7222475893 0.923651172
| 21> H -0.7212761581 -0.1490806288 -2.1939998114
| 22> H -0.4171627269 1.2405464828 -1.1149697119
| 23> H 3.4880436676 -0.2834511003 -0.3229717522
| 24> H 2.5262731423 -1.696754989 0.135156438
| 25> H 3.0270197408 -0.4935381985 1.365103052
| 26> *
| 27>
| 28>                          ****END OF INPUT****

CARTESIAN COORDINATES (ANGSTROEM)
---------------------------------
  C     -1.369857   -1.205933    0.845503
  C     -1.773061   -0.246531   -0.273217
  C     -2.432556    1.000158    0.313585
  C     -0.566886    0.157427   -1.159102
  O      0.659929   -0.475101   -0.780595
  C      1.460385    0.146847    0.077857
  O      1.214788    1.231915    0.564023
  C      2.705452   -0.646868    0.339683
  H     -0.885505   -2.090789    0.439872
  H     -2.253332   -1.514068    1.397880
  H     -0.686111   -0.719598    1.539614
  H     -2.499701   -0.759315   -0.909931
  H     -2.773260    1.662518   -0.478178
  H     -1.722344    1.540326    0.936930
  H     -3.287949    0.722248    0.923651
  H     -0.721276   -0.149081   -2.194000
  H     -0.417163    1.240546   -1.114970
  H      3.488044   -0.283451   -0.322972
  H      2.526273   -1.696755    0.135156
  H      3.027020   -0.493538    1.365103

 Total Charge           Charge          ....    0
 Multiplicity           Mult            ....    1
 Number of Electrons    NEL             ....   64
 Basis Dimension        Dim             ....  136

ORBITAL ENERGIES
----------------

  NO   OCC          E(Eh)            E(eV)
   0   2.0000     -18.797575      -511.5080
   1   2.0000     -18.731869      -509.7201
   2   2.0000     -10.009036      -272.3597
   3   2.0000      -9.940440      -270.4931
   4   2.0000      -9.901956      -269.4459
   5   2.0000      -9.894343      -269.2387
   6   2.0000      -9.876758      -268.7603
   7   2.0000      -9.874177      -268.6900
   8   2.0000      -1.005223       -27.3535
   9   2.0000      -0.909459       -24.7476
  10   2.0000      -0.732756       -19.9393
  11   2.0000      -0.685209       -18.6455
  12   2.0000      -0.625970       -17.0335
  13   2.0000      -0.612676       -16.6718
  14   2.0000      -0.530980       -14.4487
  15   2.0000      -0.483801       -13.1649
  16   2.0000      -0.450705       -12.2643
  17   2.0000      -0.437566       -11.9068
  18   2.0000      -0.417935       -11.3726
  19   2.0000      -0.401539       -10.9264
  20   2.0000      -0.390872       -10.6362
  21   2.0000      -0.367871       -10.0103
  22   2.0000      -0.356945        -9.7130
  23   2.0000      -0.353123        -9.6090
  24   2.0000      -0.343611        -9.3501
  25   2.0000      -0.332960        -9.0603
  26   2.0000      -0.309959        -8.4344
  27   2.0000      -0.304329        -8.2812
  28   2.0000      -0.293176        -7.9777
  29   2.0000      -0.276072        -7.5123
  30   2.0000      -0.252162        -6.8617
  31   2.0000      -0.219088        -5.9617
  32   0.0000      -0.020971        -0.5707
  33   0.0000       0.033991         0.9249
  34   0.0000       0.051097         1.3904
  35   0.0000       0.072591         1.9753
  36   0.0000       0.082587         2.2473

MULLIKEN ATOMIC CHARGES
-----------------------
   0 C :   -0.249565
   1 C :   -0.224464
   2 C :   -0.266543
   3 C :    0.058470
   4 O :   -0.237714
   5 C :    0.077582
   6 O :   -0.210079
   7 C :   -0.247058
   8 H :    0.105292
   9 H :    0.101698
  10 H :    0.115113
  11 H :    0.078174
  12 H :    0.101153
  13 H :    0.120978
  14 H :    0.098185
  15 H :    0.092326
  16 H :    0.103456
  17 H :    0.136256
  18 H :    0.118901
  19 H :    0.127838
Sum of atomic charges:    0.0000000

LOEWDIN ATOMIC CHARGES
----------------------
   0 C :   -0.334894
   1 C :   -0.171146
   2 C :   -0.332110
   3 C :   -0.100533
   4 O :   -0.061725
   5 C :    0.029076
   6 O :   -0.173441
   7 C :   -0.358511
   8 H :    0.118681
   9 H :    0.120392
  10 H :    0.121407
  11 H :    0.117776
  12 H :    0.116432
  13 H :    0.125916
  14 H :    0.117246
  15 H :    0.117431
  16 H :    0.118905
  17 H :    0.150524
  18 H :    0.135943
  19 H :    0.142632

  Mayer bond orders larger than 0.100000
B(  0-C ,  1-C ) :   1.1488 B(  0-C ,  8-H ) :   0.9452 B(  0-C ,  9-H ) :   0.9486
B(  0-C , 10-H ) :   0.9354 B(  1-C ,  2-C ) :   1.1109 B(  1-C ,  3-C ) :   1.0488
B(  1-C , 11-H ) :   0.9096 B(  2-C , 12-H ) :   0.9496 B(  2-C , 13-H ) :   0.9445
B(  2-C , 14-H ) :   0.9501 B(  3-C ,  4-O ) :   0.9612 B(  3-C , 15-H ) :   0.9306
B(  3-C , 16-H ) :   0.9168 B(  4-O ,  5-C ) :   1.1890 B(  5-C ,  6-O ) :   2.0429
B(  5-C ,  7-C ) :   1.0828 B(  7-C , 17-H ) :   0.9243 B(  7-C , 18-H ) :   0.9360
B(  7-C , 19-H ) :   0.9375

Dispersion correction           -0.016280752
FINAL SINGLE POINT ENERGY      -385.451553479260

DIPOLE MOMENT
-------------

Method             : SCF
Type of density    : Electron Density
Multiplicity       :   1
Irrep              :   0
Energy             :  -385.5265815703959333 Eh
Relativity type    :
Basis              : AO
                                X                 Y                 Z
Electronic contribution:      5.686515866       1.781552903      -1.983490903
Nuclear contribution   :     -5.793811222      -2.372618898       1.608704874
                        -----------------------------------------
Total Dipole Moment    :     -0.107295356      -0.591065994      -0.374786030
                        -----------------------------------------
Magnitude (a.u.)       :      0.708050755
Magnitude (Debye)      :      1.799721992

Rotational constants in cm-1:             0.120644             0.041979             0.039717
Rotational constants in MHz :          3616.819890          1258.509738          1190.671483

                             ****ORCA TERMINATED NORMALLY****
TOTAL RUN TIME: 0 days 0 hours 0 minutes 13 seconds 107 msec
