                         Program Version 6.0.0  -   RELEASE  -
|  1> ! pbe def2-sv(p) def2/J RI DEFGRID1 loosescf d4 GCP(DFT/SV(P)) printgap
|  2> %output
|  3>     printlevel normal
|  4> end
|  5> * xyz 0 1
|  6> C -1.7725259666 1.4505827616 0.3192923548
|  7> C -1.1519391175 0.3165382982 -0.4888686649
|  8> C -0.2472153299 -0.6018013086 0.3410701431
|  9> H -0.7635966085 -0.8632344149 1.2714811987
| 10> C 0.0664288841 -1.8825379783 -0.4308676097
| 11> C 1.0593768112 0.0998737784 0.7315946918
| 12> O 1.7588420189 0.4956121996 -0.4320893503
| 13> H -1.0108060038 2.1289030781 0.6942956767
| 14> H -2.4551792079 2.0223245646 -0.3044630716
| 15> H -2.3295821612 1.0545805365 1.1658734599
| 16> H -0.5633335976 0.7272048685 -1.3109552074
| 17> H -1.9534292877 -0.2872990537 -0.91916867
| 18> H -0.8506326018 -2.3983486552 -0.7030399644
| 19> H 0.6756672469 -2.5519697103 0.1719909222
| 20> H 0.6140897644 -1.6376324456 -1.3374817128
| 21> H 1.6714962281 -0.5956339326 1.3227508125
| 22> H 0.8366238018 0.975172587 1.3557543691
| 23> H 2.5892283644 0.915392194 -0.1754424747
| 24> *
| 25>
| 26>                          ****END OF INPUT****

CARTESIAN COORDINATES (ANGSTROEM)
---------------------------------
  C     -1.772526    1.450583    0.319292
  C     -1.151939    0.316538   -0.488869
  C     -0.247215   -0.601801    0.341070
  H     -0.763597   -0.863234    1.271481
  C      0.066429   -1.882538   -0.430868
  C      1.059377    0.099874    0.731595
  O      1.758842    0.495612   -0.432089
  H     -1.010806    2.128903    0.694296
  H     -2.455179    2.022325   -0.304463
  H     -2.329582    1.054581    1.165873
  H     -0.563334    0.727205   -1.310955
  H     -1.953429   -0.287299   -0.919169
  H     -0.850633   -2.398349   -0.703040
  H      0.675667   -2.551970    0.171991
  H      0.614090   -1.637632   -1.337482
  H      1.671496   -0.595634    1.322751
  H      0.836624    0.975173    1.355754
  H      2.589228    0.915392   -0.175442

 Total Charge           Charge          ....    0
 Multiplicity           Mult            ....    1
 Number of Electrons    NEL             ....   50
 Basis Dimension        Dim             ....  108

ORBITAL ENERGIES
----------------

  NO   OCC          E(Eh)            E(eV)
   0   2.0000     -18.740865      -509.9649
   1   2.0000      -9.925705      -270.0922
   2   2.0000      -9.888634      -269.0834
   3   2.0000      -9.872603      -268.6472
   4   2.0000      -9.867445      -268.5068
   5   2.0000      -9.862978      -268.3853
   6   2.0000      -0.917100       -24.9556
   7   2.0000      -0.722188       -19.6517
   8   2.0000      -0.650562       -17.7027
   9   2.0000      -0.598938       -16.2979
  10   2.0000      -0.548396       -14.9226
  11   2.0000      -0.493579       -13.4310
  12   2.0000      -0.457469       -12.4484
  13   2.0000      -0.411692       -11.2027
  14   2.0000      -0.402554       -10.9540
  15   2.0000      -0.367863       -10.0101
  16   2.0000      -0.360142        -9.8000
  17   2.0000      -0.351109        -9.5542
  18   2.0000      -0.320379        -8.7179
  19   2.0000      -0.310353        -8.4451
  20   2.0000      -0.297673        -8.1001
  21   2.0000      -0.279615        -7.6087
  22   2.0000      -0.273796        -7.4504
  23   2.0000      -0.259690        -7.0665
  24   2.0000      -0.211341        -5.7509
  25   0.0000       0.022174         0.6034
  26   0.0000       0.057000         1.5511
  27   0.0000       0.068784         1.8717
  28   0.0000       0.078401         2.1334
  29   0.0000       0.094733         2.5778

MULLIKEN ATOMIC CHARGES
-----------------------
   0 C :   -0.272362
   1 C :   -0.163015
   2 C :   -0.185256
   3 H :    0.066868
   4 C :   -0.233687
   5 C :    0.021383
   6 O :   -0.436336
   7 H :    0.102600
   8 H :    0.100404
   9 H :    0.092227
  10 H :    0.099583
  11 H :    0.078281
  12 H :    0.095209
  13 H :    0.087879
  14 H :    0.109730
  15 H :    0.065840
  16 H :    0.070644
  17 H :    0.300007
Sum of atomic charges:    0.0000000

LOEWDIN ATOMIC CHARGES
----------------------
   0 C :   -0.341642
   1 C :   -0.228897
   2 C :   -0.163429
   3 H :    0.114772
   4 C :   -0.330563
   5 C :   -0.113585
   6 O :   -0.343896
   7 H :    0.115360
   8 H :    0.119491
   9 H :    0.114341
  10 H :    0.121733
  11 H :    0.112705
  12 H :    0.115021
  13 H :    0.113861
  14 H :    0.123627
  15 H :    0.092962
  16 H :    0.091496
  17 H :    0.286642

  Mayer bond orders larger than 0.100000
B(  0-C ,  1-C ) :   1.1579 B(  0-C ,  7-H ) :   0.9499 B(  0-C ,  8-H ) :   0.9512
B(  0-C ,  9-H ) :   0.9530 B(  1-C ,  2-C ) :   1.0813 B(  1-C , 10-H ) :   0.9145
B(  1-C , 11-H ) :   0.9285 B(  2-C ,  3-H ) :   0.9007 B(  2-C ,  4-C ) :   1.1088
B(  2-C ,  5-C ) :   1.0710 B(  4-C , 12-H ) :   0.9504 B(  4-C , 13-H ) :   0.9505
B(  4-C , 14-H ) :   0.9462 B(  5-C ,  6-O ) :   1.0695 B(  5-C , 15-H ) :   0.9197
B(  5-C , 16-H ) :   0.9181 B(  6-O , 17-H ) :   0.8519

Dispersion correction           -0.013102236
FINAL SINGLE POINT ENERGY      -272.300380407976

DIPOLE MOMENT
-------------

Method             : SCF
Type of density    : Electron Density
Multiplicity       :   1
Irrep              :   0
Energy             :  -272.3702484985836350 Eh
Relativity type    :
Basis              : AO
                                X                 Y                 Z
Electronic contribution:      3.614618843       0.628505859      -0.692996885
Nuclear contribution   :     -3.294485056      -0.471615310       1.149025550
                        -----------------------------------------
Total Dipole Moment    :      0.320133787       0.156890549       0.456028665
                        -----------------------------------------
Magnitude (a.u.)       :      0.578845773
Magnitude (Debye)      :      1.471309028

Rotational constants in cm-1:             0.139162             0.089743             0.066237
Rotational constants in MHz :          4171.982883          2690.427617          1985.723403

                             ****ORCA TERMINATED NORMALLY****
TOTAL RUN TIME: 0 days 0 hours 0 minutes 7 seconds 616 msec
