                         Program Version 6.0.0  -   RELEASE  -
|  1> ! pbe def2-sv(p) def2/J RI DEFGRID1 loosescf d4 GCP(DFT/SV(P)) printgap
|  2> %output
|  3>     printlevel normal
|  4> end
|  5> * xyz 0 1
|  6> C 2.0576477177 1.2679714388 0.6744784305
|  7> C 1.6365711349 -0.1752611458 0.4208288715
|  8> C 0.3822648922 -0.2986057607 -0.4574120541
|  9> H 0.5386285033 0.332036951 -1.339862608
| 10> C 0.2652916229 -1.7390390241 -0.9581202373
| 11> C -0.87468675 0.2328052289 0.2858063687
| 12> C -1.4283293248 1.4695361594 -0.4243485949
| 13> C -2.0016520286 -0.7849710812 0.4641873036
| 14> H 2.2556485256 1.7747522385 -0.2677043172
| 15> H 1.2837595848 1.8189247665 1.2029496338
| 16> H 2.9639253348 1.2956510433 1.2751074036
| 17> H 1.4589593713 -0.6795136202 1.3737641389
| 18> H 2.461908106 -0.6925047277 -0.0741840739
| 19> H 0.1901787896 -2.4388969911 -0.13006394
| 20> H -0.5992099761 -1.8639960948 -1.6030966207
| 21> H 1.1522952138 -1.9946693838 -1.5344340434
| 22> H -0.5656816677 0.5358050232 1.2919758436
| 23> H -1.7683910328 1.2097045949 -1.4248580977
| 24> H -0.666596568 2.2409681173 -0.508581669
| 25> H -2.2716914467 1.8808018646 0.1265807686
| 26> H -2.7991838292 -0.3360739145 1.0531168214
| 27> H -1.6565667879 -1.6715180451 0.9881210315
| 28> H -2.4201840773 -1.0829933792 -0.493420684
| 29> *
| 30>
| 31>                          ****END OF INPUT****

CARTESIAN COORDINATES (ANGSTROEM)
---------------------------------
  C      2.057648    1.267971    0.674478
  C      1.636571   -0.175261    0.420829
  C      0.382265   -0.298606   -0.457412
  H      0.538629    0.332037   -1.339863
  C      0.265292   -1.739039   -0.958120
  C     -0.874687    0.232805    0.285806
  C     -1.428329    1.469536   -0.424349
  C     -2.001652   -0.784971    0.464187
  H      2.255649    1.774752   -0.267704
  H      1.283760    1.818925    1.202950
  H      2.963925    1.295651    1.275107
  H      1.458959   -0.679514    1.373764
  H      2.461908   -0.692505   -0.074184
  H      0.190179   -2.438897   -0.130064
  H     -0.599210   -1.863996   -1.603097
  H      1.152295   -1.994669   -1.534434
  H     -0.565682    0.535805    1.291976
  H     -1.768391    1.209705   -1.424858
  H     -0.666597    2.240968   -0.508582
  H     -2.271691    1.880802    0.126581
  H     -2.799184   -0.336074    1.053117
  H     -1.656567   -1.671518    0.988121
  H     -2.420184   -1.082993   -0.493421

 Total Charge           Charge          ....    0
 Multiplicity           Mult            ....    1
 Number of Electrons    NEL             ....   58
 Basis Dimension        Dim             ....  130

ORBITAL ENERGIES
----------------

  NO   OCC          E(Eh)            E(eV)
   0   2.0000      -9.888642      -269.0836
   1   2.0000      -9.886487      -269.0250
   2   2.0000      -9.877989      -268.7937
   3   2.0000      -9.869452      -268.5615
   4   2.0000      -9.868044      -268.5231
   5   2.0000      -9.867882      -268.5187
   6   2.0000      -9.867250      -268.5015
   7   2.0000      -0.740239       -20.1429
   8   2.0000      -0.682919       -18.5832
   9   2.0000      -0.643565       -17.5123
  10   2.0000      -0.606023       -16.4907
  11   2.0000      -0.562454       -15.3051
  12   2.0000      -0.525826       -14.3084
  13   2.0000      -0.481672       -13.1070
  14   2.0000      -0.414431       -11.2772
  15   2.0000      -0.411202       -11.1894
  16   2.0000      -0.383509       -10.4358
  17   2.0000      -0.375425       -10.2158
  18   2.0000      -0.365498        -9.9457
  19   2.0000      -0.350572        -9.5396
  20   2.0000      -0.340796        -9.2735
  21   2.0000      -0.329235        -8.9589
  22   2.0000      -0.318650        -8.6709
  23   2.0000      -0.309486        -8.4216
  24   2.0000      -0.295803        -8.0492
  25   2.0000      -0.291476        -7.9315
  26   2.0000      -0.268276        -7.3002
  27   2.0000      -0.263773        -7.1776
  28   2.0000      -0.258790        -7.0420
  29   0.0000       0.033585         0.9139
  30   0.0000       0.054847         1.4925
  31   0.0000       0.061853         1.6831
  32   0.0000       0.063662         1.7323
  33   0.0000       0.090085         2.4514

MULLIKEN ATOMIC CHARGES
-----------------------
   0 C :   -0.265841
   1 C :   -0.184266
   2 C :   -0.140392
   3 H :    0.062243
   4 C :   -0.212887
   5 C :   -0.163675
   6 C :   -0.260795
   7 C :   -0.223987
   8 H :    0.096429
   9 H :    0.106563
  10 H :    0.100711
  11 H :    0.083367
  12 H :    0.076754
  13 H :    0.089721
  14 H :    0.093857
  15 H :    0.095746
  16 H :    0.073684
  17 H :    0.096216
  18 H :    0.101987
  19 H :    0.092981
  20 H :    0.096332
  21 H :    0.095128
  22 H :    0.090126
Sum of atomic charges:   -0.0000000

LOEWDIN ATOMIC CHARGES
----------------------
   0 C :   -0.341992
   1 C :   -0.223613
   2 C :   -0.142700
   3 H :    0.112633
   4 C :   -0.328302
   5 C :   -0.149704
   6 C :   -0.328724
   7 C :   -0.328475
   8 H :    0.116197
   9 H :    0.116140
  10 H :    0.119009
  11 H :    0.112290
  12 H :    0.111868
  13 H :    0.116127
  14 H :    0.115716
  15 H :    0.116827
  16 H :    0.113311
  17 H :    0.115269
  18 H :    0.114931
  19 H :    0.114322
  20 H :    0.117337
  21 H :    0.116007
  22 H :    0.115526

  Mayer bond orders larger than 0.100000
B(  0-C ,  1-C ) :   1.1594 B(  0-C ,  8-H ) :   0.9511 B(  0-C ,  9-H ) :   0.9441
B(  0-C , 10-H ) :   0.9504 B(  1-C ,  2-C ) :   1.0833 B(  1-C , 11-H ) :   0.9209
B(  1-C , 12-H ) :   0.9240 B(  2-C ,  3-H ) :   0.9024 B(  2-C ,  4-C ) :   1.1710
B(  2-C ,  5-C ) :   0.9896 B(  4-C , 13-H ) :   0.9367 B(  4-C , 14-H ) :   0.9390
B(  4-C , 15-H ) :   0.9426 B(  5-C ,  6-C ) :   1.1092 B(  5-C ,  7-C ) :   1.1698
B(  5-C , 16-H ) :   0.8995 B(  6-C , 17-H ) :   0.9491 B(  6-C , 18-H ) :   0.9473
B(  6-C , 19-H ) :   0.9497 B(  7-C , 20-H ) :   0.9457 B(  7-C , 21-H ) :   0.9393
B(  7-C , 22-H ) :   0.9380

Dispersion correction           -0.019074809
FINAL SINGLE POINT ENERGY      -275.655436277258

DIPOLE MOMENT
-------------

Method             : SCF
Type of density    : Electron Density
Multiplicity       :   1
Irrep              :   0
Energy             :  -275.7328807046253019 Eh
Relativity type    :
Basis              : AO
                                X                 Y                 Z
Electronic contribution:      0.437589541      -0.312446176       0.077085058
Nuclear contribution   :     -0.414856823       0.308165808      -0.060596234
                        -----------------------------------------
Total Dipole Moment    :      0.022732718      -0.004280368       0.016488824
                        -----------------------------------------
Magnitude (a.u.)       :      0.028407382
Magnitude (Debye)      :      0.072205826

Rotational constants in cm-1:             0.100243             0.064408             0.047477
Rotational constants in MHz :          3005.205915          1930.889353          1423.316000

                             ****ORCA TERMINATED NORMALLY****
TOTAL RUN TIME: 0 days 0 hours 0 minutes 9 seconds 7 msec
