                         Program Version 6.0.0  -   RELEASE  -
|  1> ! r2scan-3c def2/J RI DEFGRID2 scfconv6 printgap
|  2> %output
|  3>     printlevel normal
|  4> end
|  5> %cpcm
|  6>     smd true
|  7>     smdsolvent "water"
|  8> end
|  9> * xyz 0 1
| 10> C -1.5843526539 0.4228274721 1.257965105
| 11> C -1.6558393474 -0.5806976347 0.1097480897
| 12> C -2.9802390624 -0.4574562151 -0.638678571
| 13> C -0.4980673322 -0.3671918379 -0.8702081579
| 14> O 0.7571914158 -0.6718622882 -0.2502942512
| 15> C 1.6190381136 0.3080625334 -0.0050718268
| 16> O 1.4309743738 1.468106626 -0.3100094959
| 17> C 2.8432616307 -0.2040954206 0.6940506718
| 18> H -1.6398530248 1.4405517919 0.8763914181
| 19> H -0.6504947065 0.3160496709 1.8063171616
| 20> H -2.4071167348 0.2643503677 1.9496559721
| 21> H -1.5629055583 -1.5922483788 0.5179333195
| 22> H -3.0420497217 -1.1922587695 -1.4368058869
| 23> H -3.0764406142 0.5348714087 -1.0726032512
| 24> H -3.8096004667 -0.6173314249 0.0441838466
| 25> H -0.5851109036 -1.0474785705 -1.7204810521
| 26> H -0.4743985549 0.6683562547 -1.2241011238
| 27> H 2.9164175433 -1.2792641179 0.5734750513
| 28> H 2.7615967958 0.0367797843 1.7518051676
| 29> H 3.7218185016 0.2976107094 0.3003710417
| 30> *
| 31>
| 32>                          ****END OF INPUT****

CARTESIAN COORDINATES (ANGSTROEM)
---------------------------------
  C     -1.584353    0.422827    1.257965
  C     -1.655839   -0.580698    0.109748
  C     -2.980239   -0.457456   -0.638679
  C     -0.498067   -0.367192   -0.870208
  O      0.757191   -0.671862   -0.250294
  C      1.619038    0.308063   -0.005072
  O      1.430974    1.468107   -0.310009
  C      2.843262   -0.204095    0.694051
  H     -1.639853    1.440552    0.876391
  H     -0.650495    0.316050    1.806317
  H     -2.407117    0.264350    1.949656
  H     -1.562906   -1.592248    0.517933
  H     -3.042050   -1.192259   -1.436806
  H     -3.076441    0.534871   -1.072603
  H     -3.809600   -0.617331    0.044184
  H     -0.585111   -1.047479   -1.720481
  H     -0.474399    0.668356   -1.224101
  H      2.916418   -1.279264    0.573475
  H      2.761597    0.036780    1.751805
  H      3.721819    0.297611    0.300371

 Total Charge           Charge          ....    0
 Multiplicity           Mult            ....    1
 Number of Electrons    NEL             ....   64
 Basis Dimension        Dim             ....  222

ORBITAL ENERGIES
----------------

  NO   OCC          E(Eh)            E(eV)
   0   2.0000     -19.003063      -517.0996
   1   2.0000     -18.942477      -515.4510
   2   2.0000     -10.165963      -276.6299
   3   2.0000     -10.077736      -274.2292
   4   2.0000     -10.034324      -273.0478
   5   2.0000     -10.030021      -272.9307
   6   2.0000     -10.012033      -272.4413
   7   2.0000     -10.010119      -272.3892
   8   2.0000      -1.078809       -29.3559
   9   2.0000      -0.989227       -26.9182
  10   2.0000      -0.775480       -21.1019
  11   2.0000      -0.723144       -19.6778
  12   2.0000      -0.657076       -17.8799
  13   2.0000      -0.646711       -17.5979
  14   2.0000      -0.549152       -14.9432
  15   2.0000      -0.524306       -14.2671
  16   2.0000      -0.466712       -12.6999
  17   2.0000      -0.459337       -12.4992
  18   2.0000      -0.447010       -12.1638
  19   2.0000      -0.419057       -11.4031
  20   2.0000      -0.400244       -10.8912
  21   2.0000      -0.387493       -10.5442
  22   2.0000      -0.373556       -10.1650
  23   2.0000      -0.353919        -9.6306
  24   2.0000      -0.349761        -9.5175
  25   2.0000      -0.341746        -9.2994
  26   2.0000      -0.321422        -8.7463
  27   2.0000      -0.320694        -8.7265
  28   2.0000      -0.301464        -8.2033
  29   2.0000      -0.291293        -7.9265
  30   2.0000      -0.268774        -7.3137
  31   2.0000      -0.253254        -6.8914
  32   0.0000      -0.021041        -0.5725
  33   0.0000       0.078227         2.1287
  34   0.0000       0.092430         2.5151
  35   0.0000       0.125750         3.4218
  36   0.0000       0.133104         3.6219

MULLIKEN ATOMIC CHARGES
-----------------------
   0 C :   -0.556143
   1 C :    0.030231
   2 C :   -0.529705
   3 C :   -0.249930
   4 O :   -0.183930
   5 C :    0.479724
   6 O :   -0.521522
   7 C :   -0.559087
   8 H :    0.169390
   9 H :    0.161758
  10 H :    0.164517
  11 H :    0.160052
  12 H :    0.160628
  13 H :    0.163584
  14 H :    0.164894
  15 H :    0.172720
  16 H :    0.189080
  17 H :    0.188415
  18 H :    0.204656
  19 H :    0.190669
Sum of atomic charges:   -0.0000000

LOEWDIN ATOMIC CHARGES
----------------------
   0 C :   -0.416558
   1 C :   -0.214732
   2 C :   -0.415548
   3 C :    0.043861
   4 O :   -0.602640
   5 C :    0.364544
   6 O :   -0.503923
   7 C :   -0.333586
   8 H :    0.160038
   9 H :    0.161465
  10 H :    0.158941
  11 H :    0.165890
  12 H :    0.159024
  13 H :    0.159792
  14 H :    0.160942
  15 H :    0.192552
  16 H :    0.199854
  17 H :    0.182776
  18 H :    0.193067
  19 H :    0.184239

  Mayer bond orders larger than 0.100000
B(  0-C ,  1-C ) :   0.8724 B(  0-C ,  8-H ) :   0.9812 B(  0-C ,  9-H ) :   0.9647
B(  0-C , 10-H ) :   0.9691 B(  1-C ,  2-C ) :   0.9104 B(  1-C ,  3-C ) :   0.9333
B(  1-C , 11-H ) :   0.9512 B(  2-C , 12-H ) :   0.9688 B(  2-C , 13-H ) :   0.9804
B(  2-C , 14-H ) :   0.9673 B(  3-C ,  4-O ) :   0.7889 B(  3-C , 15-H ) :   0.9505
B(  3-C , 16-H ) :   0.9728 B(  4-O ,  5-C ) :   1.0717 B(  5-C ,  6-O ) :   1.7587
B(  5-C ,  7-C ) :   0.9521 B(  7-C , 17-H ) :   0.9719 B(  7-C , 18-H ) :   0.9249
B(  7-C , 19-H ) :   0.9617

Dispersion correction           -0.005304015
FINAL SINGLE POINT ENERGY      -386.243062618975

DIPOLE MOMENT
-------------

Method             : SCF
Type of density    : Electron Density
Multiplicity       :   1
Irrep              :   0
Energy             :  -386.2497797899044372 Eh
Relativity type    :
Basis              : AO
                                X                 Y                 Z
Electronic contribution:      7.013009454       0.874090734      -1.982562817
Nuclear contribution   :     -7.330414711      -2.024025469       2.211527037
                        -----------------------------------------
Total Dipole Moment    :     -0.317405257      -1.149934735       0.228964220
                        -----------------------------------------
Magnitude (a.u.)       :      1.214710092
Magnitude (Debye)      :      3.087547682

Rotational constants in cm-1:             0.144464             0.035199             0.034268
Rotational constants in MHz :          4330.926575          1055.235931          1027.325057

                             ****ORCA TERMINATED NORMALLY****
TOTAL RUN TIME: 0 days 0 hours 0 minutes 37 seconds 329 msec
