                         Program Version 6.0.0  -   RELEASE  -
|  1> ! r2scan-3c def2/J RI DEFGRID2 scfconv6 printgap
|  2> %output
|  3>     printlevel normal
|  4> end
|  5> * xyz 0 1
|  6> C -2.056943641 1.1709369175 0.7648249887
|  7> C -1.9400428175 0.0040952171 -0.205698612
|  8> C -0.538607187 -0.5225235232 -0.3843623649
|  9> O -0.2581649755 -1.4220473303 -1.1554255617
| 10> O 0.347004052 0.0883024744 0.3827634542
| 11> C 1.7284494166 -0.3017511223 0.3137982373
| 12> C 2.5953272417 0.9443890816 0.2611173528
| 13> H -1.7076921565 0.8835305235 1.7523136835
| 14> H -1.4616185226 2.0130350091 0.4238363242
| 15> H -3.0950141829 1.4821675425 0.8364564192
| 16> H -2.3020731185 0.2825941787 -1.1978029194
| 17> H -2.5505524719 -0.838985081 0.1262088715
| 18> H 1.9392422801 -0.8882889784 1.212461681
| 19> H 1.8688127551 -0.9329432178 -0.5692595266
| 20> H 2.3807737671 1.5168949611 -0.6370917282
| 21> H 2.4016220701 1.5670278195 1.1294044459
| 22> H 3.6404611954 0.652750739 0.2548830306
| 23> *
| 24>
| 25>                          ****END OF INPUT****

CARTESIAN COORDINATES (ANGSTROEM)
---------------------------------
  C     -2.056944    1.170937    0.764825
  C     -1.940043    0.004095   -0.205699
  C     -0.538607   -0.522524   -0.384362
  O     -0.258165   -1.422047   -1.155426
  O      0.347004    0.088302    0.382763
  C      1.728449   -0.301751    0.313798
  C      2.595327    0.944389    0.261117
  H     -1.707692    0.883531    1.752314
  H     -1.461619    2.013035    0.423836
  H     -3.095014    1.482168    0.836456
  H     -2.302073    0.282594   -1.197803
  H     -2.550552   -0.838985    0.126209
  H      1.939242   -0.888289    1.212462
  H      1.868813   -0.932943   -0.569260
  H      2.380774    1.516895   -0.637092
  H      2.401622    1.567028    1.129404
  H      3.640461    0.652751    0.254883

 Total Charge           Charge          ....    0
 Multiplicity           Mult            ....    1
 Number of Electrons    NEL             ....   56
 Basis Dimension        Dim             ....  193

ORBITAL ENERGIES
----------------

  NO   OCC          E(Eh)            E(eV)
   0   2.0000     -18.998641      -516.9793
   1   2.0000     -18.922955      -514.9198
   2   2.0000     -10.151713      -276.2421
   3   2.0000     -10.091186      -274.5951
   4   2.0000     -10.044775      -273.3322
   5   2.0000     -10.032844      -273.0076
   6   2.0000     -10.024695      -272.7858
   7   2.0000      -1.072661       -29.1886
   8   2.0000      -0.971843       -26.4452
   9   2.0000      -0.767238       -20.8776
  10   2.0000      -0.731526       -19.9058
  11   2.0000      -0.636717       -17.3260
  12   2.0000      -0.602487       -16.3945
  13   2.0000      -0.532351       -14.4860
  14   2.0000      -0.471505       -12.8303
  15   2.0000      -0.455887       -12.4053
  16   2.0000      -0.432684       -11.7739
  17   2.0000      -0.426090       -11.5945
  18   2.0000      -0.391045       -10.6409
  19   2.0000      -0.378909       -10.3106
  20   2.0000      -0.366206        -9.9650
  21   2.0000      -0.355323        -9.6688
  22   2.0000      -0.344985        -9.3875
  23   2.0000      -0.333857        -9.0847
  24   2.0000      -0.317577        -8.6417
  25   2.0000      -0.307548        -8.3688
  26   2.0000      -0.268221        -7.2987
  27   2.0000      -0.231716        -6.3053
  28   0.0000      -0.011615        -0.3161
  29   0.0000       0.071856         1.9553
  30   0.0000       0.094225         2.5640
  31   0.0000       0.117258         3.1908
  32   0.0000       0.119686         3.2568

MULLIKEN ATOMIC CHARGES
-----------------------
   0 C :   -0.466756
   1 C :   -0.295097
   2 C :    0.373261
   3 O :   -0.431146
   4 O :   -0.141454
   5 C :   -0.164761
   6 C :   -0.445240
   7 H :    0.154841
   8 H :    0.153239
   9 H :    0.145858
  10 H :    0.166520
  11 H :    0.167541
  12 H :    0.142899
  13 H :    0.187494
  14 H :    0.152310
  15 H :    0.153271
  16 H :    0.147219
Sum of atomic charges:   -0.0000000

LOEWDIN ATOMIC CHARGES
----------------------
   0 C :   -0.401840
   1 C :   -0.236211
   2 C :    0.363303
   3 O :   -0.447221
   4 O :   -0.603267
   5 C :    0.033935
   6 C :   -0.386921
   7 H :    0.160022
   8 H :    0.158745
   9 H :    0.149983
  10 H :    0.181194
  11 H :    0.181552
  12 H :    0.175210
  13 H :    0.195656
  14 H :    0.158284
  15 H :    0.158035
  16 H :    0.159541

  Mayer bond orders larger than 0.100000
B(  0-C ,  1-C ) :   0.9074 B(  0-C ,  7-H ) :   0.9776 B(  0-C ,  8-H ) :   0.9782
B(  0-C ,  9-H ) :   0.9666 B(  1-C ,  2-C ) :   1.0131 B(  1-C , 10-H ) :   0.9439
B(  1-C , 11-H ) :   0.9434 B(  2-C ,  3-O ) :   1.8480 B(  2-C ,  4-O ) :   1.1050
B(  4-O ,  5-C ) :   0.7752 B(  5-C ,  6-C ) :   0.9505 B(  5-C , 12-H ) :   0.9484
B(  5-C , 13-H ) :   0.9674 B(  6-C , 14-H ) :   0.9733 B(  6-C , 15-H ) :   0.9709
B(  6-C , 16-H ) :   0.9668

Dispersion correction           -0.003962372
FINAL SINGLE POINT ENERGY      -346.934306278259

DIPOLE MOMENT
-------------

Method             : SCF
Type of density    : Electron Density
Multiplicity       :   1
Irrep              :   0
Energy             :  -346.9408796615477399 Eh
Relativity type    :
Basis              : AO
                                X                 Y                 Z
Electronic contribution:     -0.852589324      -4.698325299      -2.529226596
Nuclear contribution   :      1.046399393       5.363225975       3.113964252
                        -----------------------------------------
Total Dipole Moment    :      0.193810070       0.664900676       0.584737656
                        -----------------------------------------
Magnitude (a.u.)       :      0.906406850
Magnitude (Debye)      :      2.303903119

Rotational constants in cm-1:             0.137800             0.057887             0.043405
Rotational constants in MHz :          4131.131601          1735.406331          1301.257918

                             ****ORCA TERMINATED NORMALLY****
TOTAL RUN TIME: 0 days 0 hours 0 minutes 21 seconds 366 msec
