                         Program Version 6.0.0  -   RELEASE  -
|  1> ! r2scan-3c def2/J RI DEFGRID2 scfconv6 printgap
|  2> %output
|  3>     printlevel normal
|  4> end
|  5> %cpcm
|  6>     smd true
|  7>     smdsolvent "water"
|  8> end
|  9> * xyz 0 1
| 10> C -2.056943641 1.1709369175 0.7648249887
| 11> C -1.9400428175 0.0040952171 -0.205698612
| 12> C -0.538607187 -0.5225235232 -0.3843623649
| 13> O -0.2581649755 -1.4220473303 -1.1554255617
| 14> O 0.347004052 0.0883024744 0.3827634542
| 15> C 1.7284494166 -0.3017511223 0.3137982373
| 16> C 2.5953272417 0.9443890816 0.2611173528
| 17> H -1.7076921565 0.8835305235 1.7523136835
| 18> H -1.4616185226 2.0130350091 0.4238363242
| 19> H -3.0950141829 1.4821675425 0.8364564192
| 20> H -2.3020731185 0.2825941787 -1.1978029194
| 21> H -2.5505524719 -0.838985081 0.1262088715
| 22> H 1.9392422801 -0.8882889784 1.212461681
| 23> H 1.8688127551 -0.9329432178 -0.5692595266
| 24> H 2.3807737671 1.5168949611 -0.6370917282
| 25> H 2.4016220701 1.5670278195 1.1294044459
| 26> H 3.6404611954 0.652750739 0.2548830306
| 27> *
| 28>
| 29>                          ****END OF INPUT****

CARTESIAN COORDINATES (ANGSTROEM)
---------------------------------
  C     -2.056944    1.170937    0.764825
  C     -1.940043    0.004095   -0.205699
  C     -0.538607   -0.522524   -0.384362
  O     -0.258165   -1.422047   -1.155426
  O      0.347004    0.088302    0.382763
  C      1.728449   -0.301751    0.313798
  C      2.595327    0.944389    0.261117
  H     -1.707692    0.883531    1.752314
  H     -1.461619    2.013035    0.423836
  H     -3.095014    1.482168    0.836456
  H     -2.302073    0.282594   -1.197803
  H     -2.550552   -0.838985    0.126209
  H      1.939242   -0.888289    1.212462
  H      1.868813   -0.932943   -0.569260
  H      2.380774    1.516895   -0.637092
  H      2.401622    1.567028    1.129404
  H      3.640461    0.652751    0.254883

 Total Charge           Charge          ....    0
 Multiplicity           Mult            ....    1
 Number of Electrons    NEL             ....   56
 Basis Dimension        Dim             ....  193

ORBITAL ENERGIES
----------------

  NO   OCC          E(Eh)            E(eV)
   0   2.0000     -19.003598      -517.1142
   1   2.0000     -18.939480      -515.3694
   2   2.0000     -10.162531      -276.5365
   3   2.0000     -10.082806      -274.3671
   4   2.0000     -10.038470      -273.1607
   5   2.0000     -10.018658      -272.6216
   6   2.0000     -10.015636      -272.5393
   7   2.0000      -1.079226       -29.3672
   8   2.0000      -0.986330       -26.8394
   9   2.0000      -0.762078       -20.7372
  10   2.0000      -0.722455       -19.6590
  11   2.0000      -0.630532       -17.1576
  12   2.0000      -0.595895       -16.2151
  13   2.0000      -0.529482       -14.4079
  14   2.0000      -0.468784       -12.7563
  15   2.0000      -0.455265       -12.3884
  16   2.0000      -0.448435       -12.2025
  17   2.0000      -0.419042       -11.4027
  18   2.0000      -0.385095       -10.4790
  19   2.0000      -0.369362       -10.0508
  20   2.0000      -0.359860        -9.7923
  21   2.0000      -0.353155        -9.6098
  22   2.0000      -0.338145        -9.2014
  23   2.0000      -0.328311        -8.9338
  24   2.0000      -0.311590        -8.4788
  25   2.0000      -0.305412        -8.3107
  26   2.0000      -0.275642        -7.5006
  27   2.0000      -0.248466        -6.7611
  28   0.0000      -0.019396        -0.5278
  29   0.0000       0.077319         2.1039
  30   0.0000       0.104216         2.8359
  31   0.0000       0.121060         3.2942
  32   0.0000       0.131363         3.5746

MULLIKEN ATOMIC CHARGES
-----------------------
   0 C :   -0.513187
   1 C :   -0.296615
   2 C :    0.411031
   3 O :   -0.523045
   4 O :   -0.156734
   5 C :   -0.153469
   6 C :   -0.487207
   7 H :    0.165467
   8 H :    0.165478
   9 H :    0.163329
  10 H :    0.186686
  11 H :    0.189888
  12 H :    0.169853
  13 H :    0.180083
  14 H :    0.164699
  15 H :    0.165279
  16 H :    0.168467
Sum of atomic charges:    0.0000000

LOEWDIN ATOMIC CHARGES
----------------------
   0 C :   -0.405012
   1 C :   -0.233356
   2 C :    0.374091
   3 O :   -0.513181
   4 O :   -0.602137
   5 C :    0.039048
   6 C :   -0.390074
   7 H :    0.161786
   8 H :    0.161050
   9 H :    0.156900
  10 H :    0.189570
  11 H :    0.190742
  12 H :    0.185865
  13 H :    0.193891
  14 H :    0.161258
  15 H :    0.161666
  16 H :    0.167892

  Mayer bond orders larger than 0.100000
B(  0-C ,  1-C ) :   0.8900 B(  0-C ,  7-H ) :   0.9773 B(  0-C ,  8-H ) :   0.9778
B(  0-C ,  9-H ) :   0.9612 B(  1-C ,  2-C ) :   1.0198 B(  1-C , 10-H ) :   0.9340
B(  1-C , 11-H ) :   0.9320 B(  2-C ,  3-O ) :   1.7731 B(  2-C ,  4-O ) :   1.1357
B(  4-O ,  5-C ) :   0.7637 B(  5-C ,  6-C ) :   0.9462 B(  5-C , 12-H ) :   0.9398
B(  5-C , 13-H ) :   0.9634 B(  6-C , 14-H ) :   0.9707 B(  6-C , 15-H ) :   0.9682
B(  6-C , 16-H ) :   0.9608

Dispersion correction           -0.003962372
FINAL SINGLE POINT ENERGY      -346.939986264669

DIPOLE MOMENT
-------------

Method             : SCF
Type of density    : Electron Density
Multiplicity       :   1
Irrep              :   0
Energy             :  -346.9465596479570308 Eh
Relativity type    :
Basis              : AO
                                X                 Y                 Z
Electronic contribution:     -0.834999015      -4.458584179      -2.299510118
Nuclear contribution   :      1.046399393       5.363225975       3.113964252
                        -----------------------------------------
Total Dipole Moment    :      0.211400378       0.904641796       0.814454134
                        -----------------------------------------
Magnitude (a.u.)       :      1.235476602
Magnitude (Debye)      :      3.140331957

Rotational constants in cm-1:             0.137800             0.057887             0.043405
Rotational constants in MHz :          4131.131601          1735.406331          1301.257918

                             ****ORCA TERMINATED NORMALLY****
TOTAL RUN TIME: 0 days 0 hours 0 minutes 25 seconds 663 msec
