                         Program Version 6.0.0  -   RELEASE  -
|  1> ! r2scan-3c def2/J RI DEFGRID2 scfconv6 printgap
|  2> %output
|  3>     printlevel normal
|  4> end
|  5> * xyz 0 1
|  6> C 1.9758531217 0.3181578484 0.6986044002
|  7> C 1.406363769 -0.7213602771 -0.2588767
|  8> C 0.25399109 -0.1892018532 -1.1126661457
|  9> C -1.05724498 0.1239468579 -0.3751104602
| 10> H -1.8200008239 0.3043821456 -1.1538680095
| 11> C -1.537189261 -1.0248038688 0.5124163709
| 12> O -0.8902806286 1.3213453537 0.3686399979
| 13> H 2.3664559551 1.1681493967 0.1435778575
| 14> H 2.782477419 -0.1109080827 1.288934962
| 15> H 1.2051392397 0.6852387715 1.3696053698
| 16> H 2.1987375454 -1.0475565074 -0.9371657567
| 17> H 1.0774190195 -1.597355718 0.3011344141
| 18> H 0.5750106428 0.7307116916 -1.6058629888
| 19> H 0.0222795026 -0.9246948889 -1.8855352696
| 20> H -0.8862462453 -1.1307395875 1.3759228752
| 21> H -2.54881398 -0.8329246139 0.8635675619
| 22> H -1.5371647806 -1.9526408689 -0.0518058381
| 23> H -1.7176513663 1.5282891847 0.8227614087
| 24> *
| 25>
| 26>                          ****END OF INPUT****

CARTESIAN COORDINATES (ANGSTROEM)
---------------------------------
  C      1.975853    0.318158    0.698604
  C      1.406364   -0.721360   -0.258877
  C      0.253991   -0.189202   -1.112666
  C     -1.057245    0.123947   -0.375110
  H     -1.820001    0.304382   -1.153868
  C     -1.537189   -1.024804    0.512416
  O     -0.890281    1.321345    0.368640
  H      2.366456    1.168149    0.143578
  H      2.782477   -0.110908    1.288935
  H      1.205139    0.685239    1.369605
  H      2.198738   -1.047557   -0.937166
  H      1.077419   -1.597356    0.301134
  H      0.575011    0.730712   -1.605863
  H      0.022280   -0.924695   -1.885535
  H     -0.886246   -1.130740    1.375923
  H     -2.548814   -0.832925    0.863568
  H     -1.537165   -1.952641   -0.051806
  H     -1.717651    1.528289    0.822761

 Total Charge           Charge          ....    0
 Multiplicity           Mult            ....    1
 Number of Electrons    NEL             ....   50
 Basis Dimension        Dim             ....  179

ORBITAL ENERGIES
----------------

  NO   OCC          E(Eh)            E(eV)
   0   2.0000     -18.944726      -515.5122
   1   2.0000     -10.081131      -274.3215
   2   2.0000     -10.021468      -272.6980
   3   2.0000     -10.020747      -272.6784
   4   2.0000     -10.019260      -272.6379
   5   2.0000     -10.001664      -272.1591
   6   2.0000      -0.983219       -26.7548
   7   2.0000      -0.759935       -20.6789
   8   2.0000      -0.706580       -19.2270
   9   2.0000      -0.648264       -17.6402
  10   2.0000      -0.581593       -15.8259
  11   2.0000      -0.519881       -14.1467
  12   2.0000      -0.479141       -13.0381
  13   2.0000      -0.437714       -11.9108
  14   2.0000      -0.404856       -11.0167
  15   2.0000      -0.388814       -10.5802
  16   2.0000      -0.380982       -10.3671
  17   2.0000      -0.363872        -9.9015
  18   2.0000      -0.341615        -9.2958
  19   2.0000      -0.329550        -8.9675
  20   2.0000      -0.316234        -8.6052
  21   2.0000      -0.299109        -8.1392
  22   2.0000      -0.290264        -7.8985
  23   2.0000      -0.272682        -7.4201
  24   2.0000      -0.231142        -6.2897
  25   0.0000       0.059605         1.6219
  26   0.0000       0.101216         2.7542
  27   0.0000       0.119532         3.2526
  28   0.0000       0.127571         3.4714
  29   0.0000       0.133598         3.6354

MULLIKEN ATOMIC CHARGES
-----------------------
   0 C :   -0.478299
   1 C :   -0.272016
   2 C :   -0.264684
   3 C :    0.038442
   4 H :    0.129488
   5 C :   -0.515550
   6 O :   -0.415122
   7 H :    0.139567
   8 H :    0.138235
   9 H :    0.173819
  10 H :    0.141286
  11 H :    0.141243
  12 H :    0.150945
  13 H :    0.143449
  14 H :    0.168925
  15 H :    0.140196
  16 H :    0.153799
  17 H :    0.286277
Sum of atomic charges:   -0.0000000

LOEWDIN ATOMIC CHARGES
----------------------
   0 C :   -0.424901
   1 C :   -0.313091
   2 C :   -0.279681
   3 C :    0.044954
   4 H :    0.161091
   5 C :   -0.404688
   6 O :   -0.621160
   7 H :    0.151371
   8 H :    0.145172
   9 H :    0.165458
  10 H :    0.151653
  11 H :    0.152076
  12 H :    0.169151
  13 H :    0.160889
  14 H :    0.161643
  15 H :    0.151561
  16 H :    0.160938
  17 H :    0.267565

  Mayer bond orders larger than 0.100000
B(  0-C ,  1-C ) :   0.9039 B(  0-C ,  7-H ) :   0.9778 B(  0-C ,  8-H ) :   0.9736
B(  0-C ,  9-H ) :   0.9748 B(  1-C ,  2-C ) :   0.8986 B(  1-C , 10-H ) :   0.9668
B(  1-C , 11-H ) :   0.9810 B(  2-C ,  3-C ) :   0.9426 B(  2-C , 12-H ) :   0.9804
B(  2-C , 13-H ) :   0.9658 B(  3-C ,  4-H ) :   0.9606 B(  3-C ,  5-C ) :   0.9007
B(  3-C ,  6-O ) :   0.8987 B(  5-C , 14-H ) :   0.9776 B(  5-C , 15-H ) :   0.9643
B(  5-C , 16-H ) :   0.9722 B(  6-O , 17-H ) :   0.9022

Dispersion correction           -0.004444693
FINAL SINGLE POINT ENERGY      -272.899990690209

DIPOLE MOMENT
-------------

Method             : SCF
Type of density    : Electron Density
Multiplicity       :   1
Irrep              :   0
Energy             :  -272.9052226382574418 Eh
Relativity type    :
Basis              : AO
                                X                 Y                 Z
Electronic contribution:     -2.121009505       2.651035906      -0.529273294
Nuclear contribution   :      1.598217204      -2.963797018       0.503885772
                        -----------------------------------------
Total Dipole Moment    :     -0.522792301      -0.312761113      -0.025387522
                        -----------------------------------------
Magnitude (a.u.)       :      0.609734229
Magnitude (Debye)      :      1.549821243

Rotational constants in cm-1:             0.156589             0.082704             0.073087
Rotational constants in MHz :          4694.428448          2479.396878          2191.098989

                             ****ORCA TERMINATED NORMALLY****
TOTAL RUN TIME: 0 days 0 hours 0 minutes 23 seconds 279 msec
