                         Program Version 6.0.0  -   RELEASE  -
|  1> ! r2scan-3c def2/J RI DEFGRID2 scfconv6 printgap
|  2> %output
|  3>     printlevel normal
|  4> end
|  5> %cpcm
|  6>     smd true
|  7>     smdsolvent "water"
|  8> end
|  9> * xyz 0 1
| 10> C 1.9758531217 0.3181578484 0.6986044002
| 11> C 1.406363769 -0.7213602771 -0.2588767
| 12> C 0.25399109 -0.1892018532 -1.1126661457
| 13> C -1.05724498 0.1239468579 -0.3751104602
| 14> H -1.8200008239 0.3043821456 -1.1538680095
| 15> C -1.537189261 -1.0248038688 0.5124163709
| 16> O -0.8902806286 1.3213453537 0.3686399979
| 17> H 2.3664559551 1.1681493967 0.1435778575
| 18> H 2.782477419 -0.1109080827 1.288934962
| 19> H 1.2051392397 0.6852387715 1.3696053698
| 20> H 2.1987375454 -1.0475565074 -0.9371657567
| 21> H 1.0774190195 -1.597355718 0.3011344141
| 22> H 0.5750106428 0.7307116916 -1.6058629888
| 23> H 0.0222795026 -0.9246948889 -1.8855352696
| 24> H -0.8862462453 -1.1307395875 1.3759228752
| 25> H -2.54881398 -0.8329246139 0.8635675619
| 26> H -1.5371647806 -1.9526408689 -0.0518058381
| 27> H -1.7176513663 1.5282891847 0.8227614087
| 28> *
| 29>
| 30>                          ****END OF INPUT****

CARTESIAN COORDINATES (ANGSTROEM)
---------------------------------
  C      1.975853    0.318158    0.698604
  C      1.406364   -0.721360   -0.258877
  C      0.253991   -0.189202   -1.112666
  C     -1.057245    0.123947   -0.375110
  H     -1.820001    0.304382   -1.153868
  C     -1.537189   -1.024804    0.512416
  O     -0.890281    1.321345    0.368640
  H      2.366456    1.168149    0.143578
  H      2.782477   -0.110908    1.288935
  H      1.205139    0.685239    1.369605
  H      2.198738   -1.047557   -0.937166
  H      1.077419   -1.597356    0.301134
  H      0.575011    0.730712   -1.605863
  H      0.022280   -0.924695   -1.885535
  H     -0.886246   -1.130740    1.375923
  H     -2.548814   -0.832925    0.863568
  H     -1.537165   -1.952641   -0.051806
  H     -1.717651    1.528289    0.822761

 Total Charge           Charge          ....    0
 Multiplicity           Mult            ....    1
 Number of Electrons    NEL             ....   50
 Basis Dimension        Dim             ....  179

ORBITAL ENERGIES
----------------

  NO   OCC          E(Eh)            E(eV)
   0   2.0000     -18.945570      -515.5352
   1   2.0000     -10.074798      -274.1492
   2   2.0000     -10.015906      -272.5467
   3   2.0000     -10.015502      -272.5357
   4   2.0000     -10.009014      -272.3591
   5   2.0000     -10.003758      -272.2161
   6   2.0000      -0.983100       -26.7515
   7   2.0000      -0.755650       -20.5623
   8   2.0000      -0.701204       -19.0807
   9   2.0000      -0.643217       -17.5028
  10   2.0000      -0.578627       -15.7453
  11   2.0000      -0.516454       -14.0534
  12   2.0000      -0.473880       -12.8949
  13   2.0000      -0.432544       -11.7701
  14   2.0000      -0.400752       -10.9050
  15   2.0000      -0.385674       -10.4947
  16   2.0000      -0.375987       -10.2311
  17   2.0000      -0.359242        -9.7755
  18   2.0000      -0.337290        -9.1781
  19   2.0000      -0.326338        -8.8801
  20   2.0000      -0.315025        -8.5723
  21   2.0000      -0.296454        -8.0669
  22   2.0000      -0.287945        -7.8354
  23   2.0000      -0.270259        -7.3541
  24   2.0000      -0.232022        -6.3136
  25   0.0000       0.076126         2.0715
  26   0.0000       0.108900         2.9633
  27   0.0000       0.126655         3.4465
  28   0.0000       0.133780         3.6403
  29   0.0000       0.136876         3.7246

MULLIKEN ATOMIC CHARGES
-----------------------
   0 C :   -0.528691
   1 C :   -0.267506
   2 C :   -0.284458
   3 C :    0.050366
   4 H :    0.140745
   5 C :   -0.549989
   6 O :   -0.495647
   7 H :    0.154037
   8 H :    0.151801
   9 H :    0.167153
  10 H :    0.151907
  11 H :    0.153901
  12 H :    0.153123
  13 H :    0.161447
  14 H :    0.170846
  15 H :    0.162500
  16 H :    0.168491
  17 H :    0.339974
Sum of atomic charges:   -0.0000000

LOEWDIN ATOMIC CHARGES
----------------------
   0 C :   -0.435328
   1 C :   -0.314761
   2 C :   -0.283267
   3 C :    0.047423
   4 H :    0.167523
   5 C :   -0.407119
   6 O :   -0.654549
   7 H :    0.152615
   8 H :    0.149316
   9 H :    0.159977
  10 H :    0.154678
  11 H :    0.156541
  12 H :    0.167107
  13 H :    0.167636
  14 H :    0.161901
  15 H :    0.159195
  16 H :    0.165898
  17 H :    0.285213

  Mayer bond orders larger than 0.100000
B(  0-C ,  1-C ) :   0.8830 B(  0-C ,  7-H ) :   0.9791 B(  0-C ,  8-H ) :   0.9700
B(  0-C ,  9-H ) :   0.9771 B(  1-C ,  2-C ) :   0.8889 B(  1-C , 10-H ) :   0.9673
B(  1-C , 11-H ) :   0.9779 B(  2-C ,  3-C ) :   0.9329 B(  2-C , 12-H ) :   0.9854
B(  2-C , 13-H ) :   0.9623 B(  3-C ,  4-H ) :   0.9561 B(  3-C ,  5-C ) :   0.9111
B(  3-C ,  6-O ) :   0.8896 B(  5-C , 14-H ) :   0.9732 B(  5-C , 15-H ) :   0.9608
B(  5-C , 16-H ) :   0.9687 B(  6-O , 17-H ) :   0.8769

Dispersion correction           -0.004444693
FINAL SINGLE POINT ENERGY      -272.905266399789

DIPOLE MOMENT
-------------

Method             : SCF
Type of density    : Electron Density
Multiplicity       :   1
Irrep              :   0
Energy             :  -272.9104983478375175 Eh
Relativity type    :
Basis              : AO
                                X                 Y                 Z
Electronic contribution:     -2.328722579       2.448876879      -0.564228820
Nuclear contribution   :      1.598217204      -2.963797018       0.503885772
                        -----------------------------------------
Total Dipole Moment    :     -0.730505375      -0.514920139      -0.060343048
                        -----------------------------------------
Magnitude (a.u.)       :      0.895780183
Magnitude (Debye)      :      2.276892278

Rotational constants in cm-1:             0.156589             0.082704             0.073087
Rotational constants in MHz :          4694.428448          2479.396878          2191.098989

                             ****ORCA TERMINATED NORMALLY****
TOTAL RUN TIME: 0 days 0 hours 0 minutes 27 seconds 57 msec
