                         Program Version 6.0.0  -   RELEASE  -
|  1> ! pbe def2-sv(p) def2/J RI DEFGRID1 loosescf d4 GCP(DFT/SV(P)) printgap
|  2> %output
|  3>     printlevel normal
|  4> end
|  5> * xyz 0 1
|  6> C 2.3972772206 -0.027657184 -0.1864463979
|  7> O 1.1633548639 0.1932802393 0.4626925191
|  8> C 0.04948982 -0.1473715894 -0.3379177115
|  9> C -1.2240231735 0.1705247245 0.4421494398
| 10> N -2.3938017337 -0.1309346817 -0.3691008995
| 11> H 3.1689465331 0.2696026564 0.5189032221
| 12> H 2.4725063945 0.575524216 -1.0976341168
| 13> H 2.5183865636 -1.0849965386 -0.4468192473
| 14> H 0.0617771564 0.4252274035 -1.2754063744
| 15> H 0.0827493949 -1.2189749602 -0.589631881
| 16> H -1.1856216236 -0.3805819905 1.3960406535
| 17> H -1.2302253475 1.2380030515 0.6742917659
| 18> H -3.2325567735 0.1078586311 0.1469684571
| 19> H -2.4275448695 -1.1264833396 -0.5623600411
| 20> *
| 21>
| 22>                          ****END OF INPUT****

CARTESIAN COORDINATES (ANGSTROEM)
---------------------------------
  C      2.397277   -0.027657   -0.186446
  O      1.163355    0.193280    0.462693
  C      0.049490   -0.147372   -0.337918
  C     -1.224023    0.170525    0.442149
  N     -2.393802   -0.130935   -0.369101
  H      3.168947    0.269603    0.518903
  H      2.472506    0.575524   -1.097634
  H      2.518387   -1.084997   -0.446819
  H      0.061777    0.425227   -1.275406
  H      0.082749   -1.218975   -0.589632
  H     -1.185622   -0.380582    1.396041
  H     -1.230225    1.238003    0.674292
  H     -3.232557    0.107859    0.146968
  H     -2.427545   -1.126483   -0.562360

 Total Charge           Charge          ....    0
 Multiplicity           Mult            ....    1
 Number of Electrons    NEL             ....   42
 Basis Dimension        Dim             ....   88

ORBITAL ENERGIES
----------------

  NO   OCC          E(Eh)            E(eV)
   0   2.0000     -18.747408      -510.1429
   1   2.0000     -13.964166      -379.9843
   2   2.0000      -9.924582      -270.0616
   3   2.0000      -9.921993      -269.9912
   4   2.0000      -9.904384      -269.5120
   5   2.0000      -0.928530       -25.2666
   6   2.0000      -0.795877       -21.6569
   7   2.0000      -0.662581       -18.0297
   8   2.0000      -0.585732       -15.9386
   9   2.0000      -0.531361       -14.4591
  10   2.0000      -0.449649       -12.2356
  11   2.0000      -0.437558       -11.9065
  12   2.0000      -0.418545       -11.3892
  13   2.0000      -0.393637       -10.7114
  14   2.0000      -0.381288       -10.3754
  15   2.0000      -0.359368        -9.7789
  16   2.0000      -0.317886        -8.6501
  17   2.0000      -0.307120        -8.3572
  18   2.0000      -0.263897        -7.1810
  19   2.0000      -0.202634        -5.5139
  20   2.0000      -0.184783        -5.0282
  21   0.0000       0.033122         0.9013
  22   0.0000       0.043818         1.1924
  23   0.0000       0.079283         2.1574
  24   0.0000       0.087166         2.3719
  25   0.0000       0.097745         2.6598

MULLIKEN ATOMIC CHARGES
-----------------------
   0 C :   -0.099299
   1 O :   -0.341858
   2 C :   -0.007435
   3 C :   -0.071605
   4 N :   -0.469561
   5 H :    0.114235
   6 H :    0.085685
   7 H :    0.083150
   8 H :    0.076445
   9 H :    0.057948
  10 H :    0.074376
  11 H :    0.089995
  12 H :    0.207002
  13 H :    0.200922
Sum of atomic charges:   -0.0000000

LOEWDIN ATOMIC CHARGES
----------------------
   0 C :   -0.205768
   1 O :   -0.184522
   2 C :   -0.117090
   3 C :   -0.186389
   4 N :   -0.416718
   5 H :    0.114916
   6 H :    0.096640
   7 H :    0.095211
   8 H :    0.098590
   9 H :    0.088647
  10 H :    0.092653
  11 H :    0.115922
  12 H :    0.206831
  13 H :    0.201078

  Mayer bond orders larger than 0.100000
B(  0-C ,  1-O ) :   1.0219 B(  0-C ,  5-H ) :   0.9649 B(  0-C ,  6-H ) :   0.9430
B(  0-C ,  7-H ) :   0.9430 B(  1-O ,  2-C ) :   1.0298 B(  2-C ,  3-C ) :   1.1147
B(  2-C ,  8-H ) :   0.9118 B(  2-C ,  9-H ) :   0.9160 B(  3-C ,  4-N ) :   1.0878
B(  3-C , 10-H ) :   0.9178 B(  3-C , 11-H ) :   0.9236 B(  4-N , 12-H ) :   0.9048
B(  4-N , 13-H ) :   0.9038

Dispersion correction           -0.007875155
FINAL SINGLE POINT ENERGY      -249.092618028484

DIPOLE MOMENT
-------------

Method             : SCF
Type of density    : Electron Density
Multiplicity       :   1
Irrep              :   0
Energy             :  -249.1536384928852499 Eh
Relativity type    :
Basis              : AO
                                X                 Y                 Z
Electronic contribution:     -0.307398706       0.679949660       1.177468814
Nuclear contribution   :      0.218414435      -1.118793986      -1.154400862
                        -----------------------------------------
Total Dipole Moment    :     -0.088984271      -0.438844325       0.023067952
                        -----------------------------------------
Magnitude (a.u.)       :      0.448368902
Magnitude (Debye)      :      1.139663179

Rotational constants in cm-1:             0.721216             0.071194             0.067637
Rotational constants in MHz :         21621.500467          2134.356835          2027.718312

                             ****ORCA TERMINATED NORMALLY****
TOTAL RUN TIME: 0 days 0 hours 0 minutes 5 seconds 820 msec
