                         Program Version 6.0.0  -   RELEASE  -
|  1> ! r2scan-3c def2/J RI DEFGRID2 scfconv6 printgap
|  2> %output
|  3>     printlevel normal
|  4> end
|  5> * xyz 0 1
|  6> C -4.3080659056 0.3418002978 -0.0176440682
|  7> C -2.8293797634 0.711068113 -0.0638114631
|  8> C -1.9525634909 -0.4863216069 0.2968947503
|  9> C -0.4688309936 -0.2753210236 0.1402440515
| 10> C 0.3653433312 -1.3896732279 0.0876765903
| 11> C 1.7330233471 -1.2626837346 -0.0362121584
| 12> C 2.3093035842 0.001797862 -0.1146963255
| 13> C 1.4907426656 1.1210172322 -0.064044783
| 14> C 0.1190903843 0.9786798119 0.0639200324
| 15> O 3.6644988181 0.0869623199 -0.2398812891
| 16> H -4.5837871292 -0.0028688401 0.9765818659
| 17> H -4.9238838053 1.2027602138 -0.2656404422
| 18> H -4.5266199822 -0.452432702 -0.7279552378
| 19> H -2.6477289195 1.5278346512 0.6370572969
| 20> H -2.5728442862 1.058965408 -1.0668622914
| 21> H -2.244173079 -1.3359818758 -0.326597366
| 22> H -2.1528147364 -0.7711639706 1.3351050465
| 23> H -0.067414548 -2.3779226056 0.1458700318
| 24> H 2.3748024347 -2.1289701495 -0.0765382831
| 25> H 1.9224330515 2.1100730026 -0.123968657
| 26> H -0.4878640185 1.8690304952 0.1020654017
| 27> H 3.9412616277 1.0142852353 -0.2848574288
| 28> *
| 29>
| 30>                          ****END OF INPUT****

CARTESIAN COORDINATES (ANGSTROEM)
---------------------------------
  C     -4.308066    0.341800   -0.017644
  C     -2.829380    0.711068   -0.063811
  C     -1.952563   -0.486322    0.296895
  C     -0.468831   -0.275321    0.140244
  C      0.365343   -1.389673    0.087677
  C      1.733023   -1.262684   -0.036212
  C      2.309304    0.001798   -0.114696
  C      1.490743    1.121017   -0.064045
  C      0.119090    0.978680    0.063920
  O      3.664499    0.086962   -0.239881
  H     -4.583787   -0.002869    0.976582
  H     -4.923884    1.202760   -0.265640
  H     -4.526620   -0.452433   -0.727955
  H     -2.647729    1.527835    0.637057
  H     -2.572844    1.058965   -1.066862
  H     -2.244173   -1.335982   -0.326597
  H     -2.152815   -0.771164    1.335105
  H     -0.067415   -2.377923    0.145870
  H      2.374802   -2.128970   -0.076538
  H      1.922433    2.110073   -0.123969
  H     -0.487864    1.869030    0.102065
  H      3.941262    1.014285   -0.284857

 Total Charge           Charge          ....    0
 Multiplicity           Mult            ....    1
 Number of Electrons    NEL             ....   74
 Basis Dimension        Dim             ....  255

ORBITAL ENERGIES
----------------

  NO   OCC          E(Eh)            E(eV)
   0   2.0000     -18.982277      -516.5340
   1   2.0000     -10.091813      -274.6122
   2   2.0000     -10.032728      -273.0044
   3   2.0000     -10.031624      -272.9744
   4   2.0000     -10.030974      -272.9567
   5   2.0000     -10.030029      -272.9310
   6   2.0000     -10.029949      -272.9288
   7   2.0000     -10.028104      -272.8786
   8   2.0000     -10.027230      -272.8548
   9   2.0000     -10.018372      -272.6137
  10   2.0000      -1.025130       -27.8952
  11   2.0000      -0.824026       -22.4229
  12   2.0000      -0.763246       -20.7690
  13   2.0000      -0.716591       -19.4994
  14   2.0000      -0.711096       -19.3499
  15   2.0000      -0.643103       -17.4997
  16   2.0000      -0.590907       -16.0794
  17   2.0000      -0.575941       -15.6721
  18   2.0000      -0.539196       -14.6723
  19   2.0000      -0.514405       -13.9977
  20   2.0000      -0.456425       -12.4200
  21   2.0000      -0.439248       -11.9526
  22   2.0000      -0.430225       -11.7070
  23   2.0000      -0.409650       -11.1471
  24   2.0000      -0.388791       -10.5795
  25   2.0000      -0.381853       -10.3907
  26   2.0000      -0.375999       -10.2314
  27   2.0000      -0.367643       -10.0041
  28   2.0000      -0.361172        -9.8280
  29   2.0000      -0.337149        -9.1743
  30   2.0000      -0.315056        -8.5731
  31   2.0000      -0.310986        -8.4624
  32   2.0000      -0.303890        -8.2693
  33   2.0000      -0.294317        -8.0088
  34   2.0000      -0.292352        -7.9553
  35   2.0000      -0.235188        -6.3998
  36   2.0000      -0.196624        -5.3504
  37   0.0000      -0.030955        -0.8423
  38   0.0000      -0.010789        -0.2936
  39   0.0000       0.058527         1.5926
  40   0.0000       0.082281         2.2390
  41   0.0000       0.096110         2.6153

MULLIKEN ATOMIC CHARGES
-----------------------
   0 C :   -0.483201
   1 C :   -0.244352
   2 C :   -0.336372
   3 C :    0.127545
   4 C :   -0.168644
   5 C :   -0.313109
   6 C :    0.431547
   7 C :   -0.370458
   8 C :   -0.157700
   9 O :   -0.415743
  10 H :    0.141806
  11 H :    0.147461
  12 H :    0.144831
  13 H :    0.133978
  14 H :    0.157780
  15 H :    0.149325
  16 H :    0.164061
  17 H :    0.146001
  18 H :    0.154713
  19 H :    0.136625
  20 H :    0.143690
  21 H :    0.310217
Sum of atomic charges:   -0.0000000

LOEWDIN ATOMIC CHARGES
----------------------
   0 C :   -0.423003
   1 C :   -0.312599
   2 C :   -0.279879
   3 C :   -0.108759
   4 C :   -0.147859
   5 C :   -0.140260
   6 C :    0.176804
   7 C :   -0.172267
   8 C :   -0.153203
   9 O :   -0.500199
  10 H :    0.150789
  11 H :    0.150683
  12 H :    0.150422
  13 H :    0.151364
  14 H :    0.156128
  15 H :    0.164171
  16 H :    0.166932
  17 H :    0.169922
  18 H :    0.179232
  19 H :    0.167294
  20 H :    0.171039
  21 H :    0.283249

  Mayer bond orders larger than 0.100000
B(  0-C ,  1-C ) :   0.9105 B(  0-C , 10-H ) :   0.9825 B(  0-C , 11-H ) :   0.9763
B(  0-C , 12-H ) :   0.9851 B(  1-C ,  2-C ) :   0.8777 B(  1-C , 13-H ) :   0.9442
B(  1-C , 14-H ) :   0.9829 B(  2-C ,  3-C ) :   0.8280 B(  2-C , 15-H ) :   1.0338
B(  2-C , 16-H ) :   0.9570 B(  3-C ,  4-C ) :   1.3768 B(  3-C ,  8-C ) :   1.4678
B(  4-C ,  5-C ) :   1.4201 B(  4-C , 17-H ) :   0.9536 B(  5-C ,  6-C ) :   1.4185
B(  5-C , 18-H ) :   0.9477 B(  6-C ,  7-C ) :   1.3487 B(  6-C ,  9-O ) :   0.9207
B(  7-C ,  8-C ) :   1.4263 B(  7-C , 19-H ) :   0.9208 B(  8-C , 20-H ) :   0.9399
B(  9-O , 21-H ) :   0.8838

Dispersion correction           -0.007086000
FINAL SINGLE POINT ENERGY      -425.298669527300

DIPOLE MOMENT
-------------

Method             : SCF
Type of density    : Electron Density
Multiplicity       :   1
Irrep              :   0
Energy             :  -425.2996748789078651 Eh
Relativity type    :
Basis              : AO
                                X                 Y                 Z
Electronic contribution:     14.720873806      -1.119930833      -0.289134923
Nuclear contribution   :    -14.926946384       1.608942229       0.300654723
                        -----------------------------------------
Total Dipole Moment    :     -0.206072578       0.489011396       0.011519800
                        -----------------------------------------
Magnitude (a.u.)       :      0.530783156
Magnitude (Debye)      :      1.349143564

Rotational constants in cm-1:             0.150375             0.020180             0.018040
Rotational constants in MHz :          4508.127116           604.971882           540.839270

                             ****ORCA TERMINATED NORMALLY****
TOTAL RUN TIME: 0 days 0 hours 0 minutes 35 seconds 230 msec
