                         Program Version 6.0.0  -   RELEASE  -
|  1> ! r2scan-3c def2/J RI DEFGRID2 scfconv6 printgap
|  2> %output
|  3>     printlevel normal
|  4> end
|  5> %cpcm
|  6>     smd true
|  7>     smdsolvent "water"
|  8> end
|  9> * xyz 0 1
| 10> C -4.3080659056 0.3418002978 -0.0176440682
| 11> C -2.8293797634 0.711068113 -0.0638114631
| 12> C -1.9525634909 -0.4863216069 0.2968947503
| 13> C -0.4688309936 -0.2753210236 0.1402440515
| 14> C 0.3653433312 -1.3896732279 0.0876765903
| 15> C 1.7330233471 -1.2626837346 -0.0362121584
| 16> C 2.3093035842 0.001797862 -0.1146963255
| 17> C 1.4907426656 1.1210172322 -0.064044783
| 18> C 0.1190903843 0.9786798119 0.0639200324
| 19> O 3.6644988181 0.0869623199 -0.2398812891
| 20> H -4.5837871292 -0.0028688401 0.9765818659
| 21> H -4.9238838053 1.2027602138 -0.2656404422
| 22> H -4.5266199822 -0.452432702 -0.7279552378
| 23> H -2.6477289195 1.5278346512 0.6370572969
| 24> H -2.5728442862 1.058965408 -1.0668622914
| 25> H -2.244173079 -1.3359818758 -0.326597366
| 26> H -2.1528147364 -0.7711639706 1.3351050465
| 27> H -0.067414548 -2.3779226056 0.1458700318
| 28> H 2.3748024347 -2.1289701495 -0.0765382831
| 29> H 1.9224330515 2.1100730026 -0.123968657
| 30> H -0.4878640185 1.8690304952 0.1020654017
| 31> H 3.9412616277 1.0142852353 -0.2848574288
| 32> *
| 33>
| 34>                          ****END OF INPUT****

CARTESIAN COORDINATES (ANGSTROEM)
---------------------------------
  C     -4.308066    0.341800   -0.017644
  C     -2.829380    0.711068   -0.063811
  C     -1.952563   -0.486322    0.296895
  C     -0.468831   -0.275321    0.140244
  C      0.365343   -1.389673    0.087677
  C      1.733023   -1.262684   -0.036212
  C      2.309304    0.001798   -0.114696
  C      1.490743    1.121017   -0.064045
  C      0.119090    0.978680    0.063920
  O      3.664499    0.086962   -0.239881
  H     -4.583787   -0.002869    0.976582
  H     -4.923884    1.202760   -0.265640
  H     -4.526620   -0.452433   -0.727955
  H     -2.647729    1.527835    0.637057
  H     -2.572844    1.058965   -1.066862
  H     -2.244173   -1.335982   -0.326597
  H     -2.152815   -0.771164    1.335105
  H     -0.067415   -2.377923    0.145870
  H      2.374802   -2.128970   -0.076538
  H      1.922433    2.110073   -0.123969
  H     -0.487864    1.869030    0.102065
  H      3.941262    1.014285   -0.284857

 Total Charge           Charge          ....    0
 Multiplicity           Mult            ....    1
 Number of Electrons    NEL             ....   74
 Basis Dimension        Dim             ....  255

ORBITAL ENERGIES
----------------

  NO   OCC          E(Eh)            E(eV)
   0   2.0000     -18.980848      -516.4951
   1   2.0000     -10.092681      -274.6358
   2   2.0000     -10.032749      -273.0050
   3   2.0000     -10.029680      -272.9215
   4   2.0000     -10.029500      -272.9166
   5   2.0000     -10.028617      -272.8926
   6   2.0000     -10.028448      -272.8879
   7   2.0000     -10.022327      -272.7214
   8   2.0000     -10.018638      -272.6210
   9   2.0000     -10.008634      -272.3488
  10   2.0000      -1.023697       -27.8562
  11   2.0000      -0.824824       -22.4446
  12   2.0000      -0.757227       -20.6052
  13   2.0000      -0.716309       -19.4917
  14   2.0000      -0.707602       -19.2548
  15   2.0000      -0.637839       -17.3565
  16   2.0000      -0.588287       -16.0081
  17   2.0000      -0.570876       -15.5343
  18   2.0000      -0.533881       -14.5276
  19   2.0000      -0.510937       -13.9033
  20   2.0000      -0.453563       -12.3421
  21   2.0000      -0.432522       -11.7695
  22   2.0000      -0.425591       -11.5809
  23   2.0000      -0.405142       -11.0245
  24   2.0000      -0.385572       -10.4919
  25   2.0000      -0.383717       -10.4415
  26   2.0000      -0.370525       -10.0825
  27   2.0000      -0.365429        -9.9438
  28   2.0000      -0.355259        -9.6671
  29   2.0000      -0.333484        -9.0746
  30   2.0000      -0.310104        -8.4384
  31   2.0000      -0.307137        -8.3576
  32   2.0000      -0.297644        -8.0993
  33   2.0000      -0.290755        -7.9118
  34   2.0000      -0.286444        -7.7945
  35   2.0000      -0.238678        -6.4948
  36   2.0000      -0.199214        -5.4209
  37   0.0000      -0.033086        -0.9003
  38   0.0000      -0.013184        -0.3587
  39   0.0000       0.080675         2.1953
  40   0.0000       0.093645         2.5482
  41   0.0000       0.104986         2.8568

MULLIKEN ATOMIC CHARGES
-----------------------
   0 C :   -0.526347
   1 C :   -0.242313
   2 C :   -0.329376
   3 C :    0.073797
   4 C :   -0.200230
   5 C :   -0.353425
   6 C :    0.385892
   7 C :   -0.382824
   8 C :   -0.168852
   9 O :   -0.463098
  10 H :    0.153480
  11 H :    0.157724
  12 H :    0.156653
  13 H :    0.147655
  14 H :    0.161250
  15 H :    0.167794
  16 H :    0.178084
  17 H :    0.177138
  18 H :    0.181549
  19 H :    0.181218
  20 H :    0.174561
  21 H :    0.369670
Sum of atomic charges:   -0.0000000

LOEWDIN ATOMIC CHARGES
----------------------
   0 C :   -0.430999
   1 C :   -0.312568
   2 C :   -0.281902
   3 C :   -0.117872
   4 C :   -0.159161
   5 C :   -0.158734
   6 C :    0.162167
   7 C :   -0.170214
   8 C :   -0.164442
   9 O :   -0.519210
  10 H :    0.153530
  11 H :    0.153039
  12 H :    0.153034
  13 H :    0.155838
  14 H :    0.156854
  15 H :    0.169800
  16 H :    0.171999
  17 H :    0.180645
  18 H :    0.186778
  19 H :    0.185040
  20 H :    0.181444
  21 H :    0.304934

  Mayer bond orders larger than 0.100000
B(  0-C ,  1-C ) :   0.8999 B(  0-C , 10-H ) :   0.9806 B(  0-C , 11-H ) :   0.9738
B(  0-C , 12-H ) :   0.9824 B(  1-C ,  2-C ) :   0.8665 B(  1-C , 13-H ) :   0.9419
B(  1-C , 14-H ) :   0.9847 B(  2-C ,  3-C ) :   0.8374 B(  2-C , 15-H ) :   1.0318
B(  2-C , 16-H ) :   0.9514 B(  3-C ,  4-C ) :   1.3551 B(  3-C ,  8-C ) :   1.4172
B(  4-C ,  5-C ) :   1.4049 B(  4-C , 17-H ) :   0.9610 B(  5-C ,  6-C ) :   1.3578
B(  5-C , 18-H ) :   0.9583 B(  6-C ,  7-C ) :   1.3382 B(  6-C ,  9-O ) :   0.9259
B(  7-C ,  8-C ) :   1.3722 B(  7-C , 19-H ) :   0.9520 B(  8-C , 20-H ) :   0.9524
B(  9-O , 21-H ) :   0.8520

Dispersion correction           -0.007086000
FINAL SINGLE POINT ENERGY      -425.306834020769

DIPOLE MOMENT
-------------

Method             : SCF
Type of density    : Electron Density
Multiplicity       :   1
Irrep              :   0
Energy             :  -425.3078393723764634 Eh
Relativity type    :
Basis              : AO
                                X                 Y                 Z
Electronic contribution:     14.640769932      -0.872778864      -0.271107382
Nuclear contribution   :    -14.926946384       1.608942229       0.300654723
                        -----------------------------------------
Total Dipole Moment    :     -0.286176452       0.736163365       0.029547341
                        -----------------------------------------
Magnitude (a.u.)       :      0.790383771
Magnitude (Debye)      :      2.008995889

Rotational constants in cm-1:             0.150375             0.020180             0.018040
Rotational constants in MHz :          4508.127116           604.971882           540.839270

                             ****ORCA TERMINATED NORMALLY****
TOTAL RUN TIME: 0 days 0 hours 0 minutes 42 seconds 997 msec
