                         Program Version 6.0.0  -   RELEASE  -
|  1> ! r2scan-3c def2/J RI DEFGRID2 scfconv6 printgap
|  2> %output
|  3>     printlevel normal
|  4> end
|  5> * xyz 0 1
|  6> C -1.3502550352 -0.3582162062 -0.4622479533
|  7> C -0.0063562568 -0.0784560001 0.2150077797
|  8> C 1.1538204043 -0.7284722279 -0.5449023559
|  9> O 2.3739791651 -0.5734274691 0.1348454713
| 10> O 0.2538914007 1.310200617 0.2640368365
| 11> O -2.3540742454 0.2472771629 0.3256835024
| 12> H -1.50092406 -1.4411851627 -0.5300689337
| 13> H -1.3381860902 0.0718517867 -1.471645518
| 14> H -0.0377869546 -0.4812434897 1.2392591561
| 15> H 1.214480357 -0.2812359074 -1.5459467251
| 16> H 0.9885395017 -1.8027467621 -0.638141416
| 17> H 2.4920590376 0.3706321146 0.3185340868
| 18> H -0.5269901498 1.7472890712 0.633514073
| 19> H -3.2207796665 0.0804477059 -0.067537706
| 20> *
| 21>
| 22>                          ****END OF INPUT****

CARTESIAN COORDINATES (ANGSTROEM)
---------------------------------
  C     -1.350255   -0.358216   -0.462248
  C     -0.006356   -0.078456    0.215008
  C      1.153820   -0.728472   -0.544902
  O      2.373979   -0.573427    0.134845
  O      0.253891    1.310201    0.264037
  O     -2.354074    0.247277    0.325684
  H     -1.500924   -1.441185   -0.530069
  H     -1.338186    0.071852   -1.471646
  H     -0.037787   -0.481243    1.239259
  H      1.214480   -0.281236   -1.545947
  H      0.988540   -1.802747   -0.638141
  H      2.492059    0.370632    0.318534
  H     -0.526990    1.747289    0.633514
  H     -3.220780    0.080448   -0.067538

 Total Charge           Charge          ....    0
 Multiplicity           Mult            ....    1
 Number of Electrons    NEL             ....   50
 Basis Dimension        Dim             ....  169

ORBITAL ENERGIES
----------------

  NO   OCC          E(Eh)            E(eV)
   0   2.0000     -18.967576      -516.1340
   1   2.0000     -18.954433      -515.7763
   2   2.0000     -18.944682      -515.5110
   3   2.0000     -10.087837      -274.5040
   4   2.0000     -10.085587      -274.4428
   5   2.0000     -10.077964      -274.2354
   6   2.0000      -1.011744       -27.5309
   7   2.0000      -0.993101       -27.0237
   8   2.0000      -0.975434       -26.5429
   9   2.0000      -0.732556       -19.9339
  10   2.0000      -0.643169       -17.5015
  11   2.0000      -0.571146       -15.5417
  12   2.0000      -0.512670       -13.9504
  13   2.0000      -0.486600       -13.2411
  14   2.0000      -0.461094       -12.5470
  15   2.0000      -0.438007       -11.9188
  16   2.0000      -0.402032       -10.9398
  17   2.0000      -0.388673       -10.5763
  18   2.0000      -0.378832       -10.3085
  19   2.0000      -0.334575        -9.1042
  20   2.0000      -0.319191        -8.6856
  21   2.0000      -0.294288        -8.0080
  22   2.0000      -0.257180        -6.9982
  23   2.0000      -0.244694        -6.6585
  24   2.0000      -0.233924        -6.3654
  25   0.0000       0.036857         1.0029
  26   0.0000       0.071438         1.9439
  27   0.0000       0.089363         2.4317
  28   0.0000       0.109935         2.9915
  29   0.0000       0.126841         3.4515

MULLIKEN ATOMIC CHARGES
-----------------------
   0 C :   -0.157672
   1 C :    0.079488
   2 C :   -0.196760
   3 O :   -0.420056
   4 O :   -0.452214
   5 O :   -0.442578
   6 H :    0.120374
   7 H :    0.131375
   8 H :    0.142060
   9 H :    0.135567
  10 H :    0.131856
  11 H :    0.316909
  12 H :    0.312472
  13 H :    0.299177
Sum of atomic charges:   -0.0000000

LOEWDIN ATOMIC CHARGES
----------------------
   0 C :    0.022334
   1 C :    0.077748
   2 C :    0.027788
   3 O :   -0.592475
   4 O :   -0.594283
   5 O :   -0.622603
   6 H :    0.163451
   7 H :    0.165655
   8 H :    0.176818
   9 H :    0.166186
  10 H :    0.180051
  11 H :    0.276516
  12 H :    0.281765
  13 H :    0.271049

  Mayer bond orders larger than 0.100000
B(  0-C ,  1-C ) :   0.9496 B(  0-C ,  5-O ) :   0.9417 B(  0-C ,  6-H ) :   0.9572
B(  0-C ,  7-H ) :   0.9610 B(  1-C ,  2-C ) :   0.9365 B(  1-C ,  4-O ) :   0.8816
B(  1-C ,  8-H ) :   0.9384 B(  2-C ,  3-O ) :   0.9709 B(  2-C ,  9-H ) :   0.9719
B(  2-C , 10-H ) :   0.9706 B(  3-O , 11-H ) :   0.8756 B(  4-O , 12-H ) :   0.8767
B(  5-O , 13-H ) :   0.8969

Dispersion correction           -0.002961900
FINAL SINGLE POINT ENERGY      -344.726492360542

DIPOLE MOMENT
-------------

Method             : SCF
Type of density    : Electron Density
Multiplicity       :   1
Irrep              :   0
Energy             :  -344.7341171636593913 Eh
Relativity type    :
Basis              : AO
                                X                 Y                 Z
Electronic contribution:      0.681903322       1.545545785       1.491263227
Nuclear contribution   :     -1.806221871      -1.614233378      -1.923783677
                        -----------------------------------------
Total Dipole Moment    :     -1.124318549      -0.068687593      -0.432520449
                        -----------------------------------------
Magnitude (a.u.)       :      1.206600234
Magnitude (Debye)      :      3.066934062

Rotational constants in cm-1:             0.268520             0.065476             0.056603
Rotational constants in MHz :          8050.013842          1962.929087          1696.904618

                             ****ORCA TERMINATED NORMALLY****
TOTAL RUN TIME: 0 days 0 hours 0 minutes 20 seconds 835 msec
