                         Program Version 6.0.0  -   RELEASE  -
|  1> ! r2scan-3c def2/J RI DEFGRID2 scfconv6 printgap
|  2> %output
|  3>     printlevel normal
|  4> end
|  5> %cpcm
|  6>     smd true
|  7>     smdsolvent "water"
|  8> end
|  9> * xyz 0 1
| 10> C -1.3502550352 -0.3582162062 -0.4622479533
| 11> C -0.0063562568 -0.0784560001 0.2150077797
| 12> C 1.1538204043 -0.7284722279 -0.5449023559
| 13> O 2.3739791651 -0.5734274691 0.1348454713
| 14> O 0.2538914007 1.310200617 0.2640368365
| 15> O -2.3540742454 0.2472771629 0.3256835024
| 16> H -1.50092406 -1.4411851627 -0.5300689337
| 17> H -1.3381860902 0.0718517867 -1.471645518
| 18> H -0.0377869546 -0.4812434897 1.2392591561
| 19> H 1.214480357 -0.2812359074 -1.5459467251
| 20> H 0.9885395017 -1.8027467621 -0.638141416
| 21> H 2.4920590376 0.3706321146 0.3185340868
| 22> H -0.5269901498 1.7472890712 0.633514073
| 23> H -3.2207796665 0.0804477059 -0.067537706
| 24> *
| 25>
| 26>                          ****END OF INPUT****

CARTESIAN COORDINATES (ANGSTROEM)
---------------------------------
  C     -1.350255   -0.358216   -0.462248
  C     -0.006356   -0.078456    0.215008
  C      1.153820   -0.728472   -0.544902
  O      2.373979   -0.573427    0.134845
  O      0.253891    1.310201    0.264037
  O     -2.354074    0.247277    0.325684
  H     -1.500924   -1.441185   -0.530069
  H     -1.338186    0.071852   -1.471646
  H     -0.037787   -0.481243    1.239259
  H      1.214480   -0.281236   -1.545947
  H      0.988540   -1.802747   -0.638141
  H      2.492059    0.370632    0.318534
  H     -0.526990    1.747289    0.633514
  H     -3.220780    0.080448   -0.067538

 Total Charge           Charge          ....    0
 Multiplicity           Mult            ....    1
 Number of Electrons    NEL             ....   50
 Basis Dimension        Dim             ....  169

ORBITAL ENERGIES
----------------

  NO   OCC          E(Eh)            E(eV)
   0   2.0000     -18.956239      -515.8255
   1   2.0000     -18.956071      -515.8209
   2   2.0000     -18.954821      -515.7869
   3   2.0000     -10.080712      -274.3101
   4   2.0000     -10.073983      -274.1270
   5   2.0000     -10.073570      -274.1158
   6   2.0000      -1.008486       -27.4423
   7   2.0000      -0.991647       -26.9841
   8   2.0000      -0.978087       -26.6151
   9   2.0000      -0.725761       -19.7490
  10   2.0000      -0.636136       -17.3101
  11   2.0000      -0.567631       -15.4460
  12   2.0000      -0.505056       -13.7433
  13   2.0000      -0.477776       -13.0009
  14   2.0000      -0.459633       -12.5072
  15   2.0000      -0.431641       -11.7455
  16   2.0000      -0.397228       -10.8091
  17   2.0000      -0.390584       -10.6283
  18   2.0000      -0.375853       -10.2275
  19   2.0000      -0.330169        -8.9844
  20   2.0000      -0.321646        -8.7524
  21   2.0000      -0.298184        -8.1140
  22   2.0000      -0.249913        -6.8005
  23   2.0000      -0.245955        -6.6928
  24   2.0000      -0.241264        -6.5651
  25   0.0000       0.053693         1.4611
  26   0.0000       0.084960         2.3119
  27   0.0000       0.101563         2.7637
  28   0.0000       0.121588         3.3086
  29   0.0000       0.138042         3.7563

MULLIKEN ATOMIC CHARGES
-----------------------
   0 C :   -0.174208
   1 C :    0.085216
   2 C :   -0.202421
   3 O :   -0.496943
   4 O :   -0.511087
   5 O :   -0.507023
   6 H :    0.147500
   7 H :    0.149068
   8 H :    0.146236
   9 H :    0.150644
  10 H :    0.159586
  11 H :    0.355259
  12 H :    0.348393
  13 H :    0.349780
Sum of atomic charges:    0.0000000

LOEWDIN ATOMIC CHARGES
----------------------
   0 C :    0.029703
   1 C :    0.077276
   2 C :    0.027953
   3 O :   -0.631107
   4 O :   -0.620912
   5 O :   -0.644513
   6 H :    0.175468
   7 H :    0.172856
   8 H :    0.179434
   9 H :    0.173488
  10 H :    0.190681
  11 H :    0.288029
  12 H :    0.292465
  13 H :    0.289181

  Mayer bond orders larger than 0.100000
B(  0-C ,  1-C ) :   0.9564 B(  0-C ,  5-O ) :   0.9300 B(  0-C ,  6-H ) :   0.9558
B(  0-C ,  7-H ) :   0.9609 B(  1-C ,  2-C ) :   0.9494 B(  1-C ,  4-O ) :   0.8630
B(  1-C ,  8-H ) :   0.9283 B(  2-C ,  3-O ) :   0.9459 B(  2-C ,  9-H ) :   0.9655
B(  2-C , 10-H ) :   0.9626 B(  3-O , 11-H ) :   0.8564 B(  4-O , 12-H ) :   0.8593
B(  5-O , 13-H ) :   0.8710

Dispersion correction           -0.002961900
FINAL SINGLE POINT ENERGY      -344.745371328884

DIPOLE MOMENT
-------------

Method             : SCF
Type of density    : Electron Density
Multiplicity       :   1
Irrep              :   0
Energy             :  -344.7529961320009306 Eh
Relativity type    :
Basis              : AO
                                X                 Y                 Z
Electronic contribution:      0.323686860       1.447648457       1.281547148
Nuclear contribution   :     -1.806221871      -1.614233378      -1.923783677
                        -----------------------------------------
Total Dipole Moment    :     -1.482535011      -0.166584921      -0.642236528
                        -----------------------------------------
Magnitude (a.u.)       :      1.624231619
Magnitude (Debye)      :      4.128468682

Rotational constants in cm-1:             0.268520             0.065476             0.056603
Rotational constants in MHz :          8050.013842          1962.929087          1696.904618

                             ****ORCA TERMINATED NORMALLY****
TOTAL RUN TIME: 0 days 0 hours 0 minutes 23 seconds 471 msec
