                         Program Version 6.0.0  -   RELEASE  -
|  1> ! pbe def2-sv(p) def2/J RI DEFGRID1 loosescf d4 GCP(DFT/SV(P)) printgap
|  2> %output
|  3>     printlevel normal
|  4> end
|  5> * xyz 0 1
|  6> C -1.4704082906 1.2665554256 -0.4680008955
|  7> C -1.3340091609 0.2621863691 0.6724330928
|  8> C -0.1047488134 -0.6594205682 0.6133506114
|  9> H -0.1112752164 -1.2357309196 1.5458270855
| 10> C -0.1718115886 -1.6485029198 -0.5490801099
| 11> C 1.2333598499 0.1048533079 0.6000437671
| 12> O 1.6718062654 0.529920876 -0.6711639398
| 13> H -1.4007663552 0.775290906 -1.434669573
| 14> H -2.4414073245 1.7535731067 -0.4091064581
| 15> H -0.7122559283 2.0433601052 -0.3990678422
| 16> H -2.2217726488 -0.3741111179 0.6886192765
| 17> H -1.3086487515 0.808786618 1.6185106044
| 18> H -0.0892197138 -1.1375336105 -1.5042859406
| 19> H -1.1093011842 -2.1979130938 -0.5244670413
| 20> H 0.6503906816 -2.3567194321 -0.4803048903
| 21> H 2.028039212 -0.5583168638 0.9524486952
| 22> H 1.1739164525 0.9602124334 1.2879284584
| 23> H 1.0218549772 1.1430151279 -1.040106314
| 24> *
| 25>
| 26>                          ****END OF INPUT****

CARTESIAN COORDINATES (ANGSTROEM)
---------------------------------
  C     -1.470408    1.266555   -0.468001
  C     -1.334009    0.262186    0.672433
  C     -0.104749   -0.659421    0.613351
  H     -0.111275   -1.235731    1.545827
  C     -0.171812   -1.648503   -0.549080
  C      1.233360    0.104853    0.600044
  O      1.671806    0.529921   -0.671164
  H     -1.400766    0.775291   -1.434670
  H     -2.441407    1.753573   -0.409106
  H     -0.712256    2.043360   -0.399068
  H     -2.221773   -0.374111    0.688619
  H     -1.308649    0.808787    1.618511
  H     -0.089220   -1.137534   -1.504286
  H     -1.109301   -2.197913   -0.524467
  H      0.650391   -2.356719   -0.480305
  H      2.028039   -0.558317    0.952449
  H      1.173916    0.960212    1.287928
  H      1.021855    1.143015   -1.040106

 Total Charge           Charge          ....    0
 Multiplicity           Mult            ....    1
 Number of Electrons    NEL             ....   50
 Basis Dimension        Dim             ....  108

ORBITAL ENERGIES
----------------

  NO   OCC          E(Eh)            E(eV)
   0   2.0000     -18.738820      -509.9092
   1   2.0000      -9.924016      -270.0462
   2   2.0000      -9.892109      -269.1780
   3   2.0000      -9.887727      -269.0587
   4   2.0000      -9.884831      -268.9799
   5   2.0000      -9.869663      -268.5672
   6   2.0000      -0.915561       -24.9137
   7   2.0000      -0.727368       -19.7927
   8   2.0000      -0.660384       -17.9700
   9   2.0000      -0.604521       -16.4498
  10   2.0000      -0.566795       -15.4233
  11   2.0000      -0.499238       -13.5850
  12   2.0000      -0.442076       -12.0295
  13   2.0000      -0.424394       -11.5484
  14   2.0000      -0.406513       -11.0618
  15   2.0000      -0.391039       -10.6407
  16   2.0000      -0.361715        -9.8428
  17   2.0000      -0.343512        -9.3474
  18   2.0000      -0.340821        -9.2742
  19   2.0000      -0.322005        -8.7622
  20   2.0000      -0.312741        -8.5101
  21   2.0000      -0.286208        -7.7881
  22   2.0000      -0.280919        -7.6442
  23   2.0000      -0.258157        -7.0248
  24   2.0000      -0.210892        -5.7387
  25   0.0000       0.019724         0.5367
  26   0.0000       0.047189         1.2841
  27   0.0000       0.063022         1.7149
  28   0.0000       0.080633         2.1941
  29   0.0000       0.089853         2.4450

MULLIKEN ATOMIC CHARGES
-----------------------
   0 C :   -0.323697
   1 C :   -0.152966
   2 C :   -0.198433
   3 H :    0.070621
   4 C :   -0.237288
   5 C :    0.038073
   6 O :   -0.433844
   7 H :    0.113359
   8 H :    0.110399
   9 H :    0.103263
  10 H :    0.085642
  11 H :    0.085234
  12 H :    0.098197
  13 H :    0.094459
  14 H :    0.100153
  15 H :    0.081875
  16 H :    0.070966
  17 H :    0.293987
Sum of atomic charges:   -0.0000000

LOEWDIN ATOMIC CHARGES
----------------------
   0 C :   -0.351793
   1 C :   -0.227445
   2 C :   -0.178923
   3 H :    0.120237
   4 C :   -0.331907
   5 C :   -0.114726
   6 O :   -0.334767
   7 H :    0.119456
   8 H :    0.125491
   9 H :    0.111968
  10 H :    0.116028
  11 H :    0.114426
  12 H :    0.114346
  13 H :    0.115507
  14 H :    0.122222
  15 H :    0.112136
  16 H :    0.092850
  17 H :    0.274895

  Mayer bond orders larger than 0.100000
B(  0-C ,  1-C ) :   1.1474 B(  0-C ,  7-H ) :   0.9484 B(  0-C ,  8-H ) :   0.9454
B(  0-C ,  9-H ) :   0.9358 B(  1-C ,  2-C ) :   1.0943 B(  1-C , 10-H ) :   0.9267
B(  1-C , 11-H ) :   0.9225 B(  2-C ,  3-H ) :   0.8886 B(  2-C ,  4-C ) :   1.1064
B(  2-C ,  5-C ) :   1.0389 B(  4-C , 12-H ) :   0.9372 B(  4-C , 13-H ) :   0.9501
B(  4-C , 14-H ) :   0.9505 B(  5-C ,  6-O ) :   1.0847 B(  5-C , 15-H ) :   0.9273
B(  5-C , 16-H ) :   0.9303 B(  6-O , 17-H ) :   0.8419

Dispersion correction           -0.013622862
FINAL SINGLE POINT ENERGY      -272.298849062515

DIPOLE MOMENT
-------------

Method             : SCF
Type of density    : Electron Density
Multiplicity       :   1
Irrep              :   0
Energy             :  -272.3689904874605645 Eh
Relativity type    :
Basis              : AO
                                X                 Y                 Z
Electronic contribution:      3.616526436       0.532282678      -0.052910875
Nuclear contribution   :     -4.216107472      -0.344966636       0.272732774
                        -----------------------------------------
Total Dipole Moment    :     -0.599581036       0.187316042       0.219821899
                        -----------------------------------------
Magnitude (a.u.)       :      0.665512123
Magnitude (Debye)      :      1.691597383

Rotational constants in cm-1:             0.133745             0.094562             0.075640
Rotational constants in MHz :          4009.577358          2834.889100          2267.617493

                             ****ORCA TERMINATED NORMALLY****
TOTAL RUN TIME: 0 days 0 hours 0 minutes 7 seconds 826 msec
