                         Program Version 6.0.0  -   RELEASE  -
|  1> ! r2scan-3c def2/J RI DEFGRID2 scfconv6 printgap
|  2> %output
|  3>     printlevel normal
|  4> end
|  5> * xyz 0 1
|  6> C 1.544994208 0.263359225 -1.1710406609
|  7> C 1.1106046296 -0.2279061805 0.2057718264
|  8> H 0.9347495078 -1.313220884 0.1614442621
|  9> C -0.1348435812 0.4779857442 0.7641801208
| 10> C -1.5074083216 0.1355596999 0.1594644137
| 11> C -1.7483698261 0.7580098524 -1.2145532207
| 12> C -1.7661013119 -1.3694527652 0.1150264444
| 13> O 2.2196712876 0.0088760218 1.0699054511
| 14> H 1.5504386449 1.3493511585 -1.1981395187
| 15> H 2.5557431637 -0.0898860342 -1.3610571699
| 16> H 0.8900469763 -0.1164322169 -1.946175202
| 17> H -0.1857913289 0.2317081227 1.8296317858
| 18> H 0.0272859355 1.5560979133 0.6913088278
| 19> H -2.2419347937 0.5784927447 0.8439193557
| 20> H -1.1748974734 0.2522573068 -1.9849133794
| 21> H -1.4765940706 1.8104016382 -1.2142164194
| 22> H -2.8016359879 0.6768194729 -1.4744070445
| 23> H -1.5739024729 -1.8233137908 1.0844135755
| 24> H -2.8029592096 -1.5594174934 -0.152066469
| 25> H -1.1338571987 -1.8503174105 -0.6271577882
| 26> H 2.0037954637 -0.2909828775 1.9626749363
| 27> *
| 28>
| 29>                          ****END OF INPUT****

CARTESIAN COORDINATES (ANGSTROEM)
---------------------------------
  C      1.544994    0.263359   -1.171041
  C      1.110605   -0.227906    0.205772
  H      0.934750   -1.313221    0.161444
  C     -0.134844    0.477986    0.764180
  C     -1.507408    0.135560    0.159464
  C     -1.748370    0.758010   -1.214553
  C     -1.766101   -1.369453    0.115026
  O      2.219671    0.008876    1.069905
  H      1.550439    1.349351   -1.198140
  H      2.555743   -0.089886   -1.361057
  H      0.890047   -0.116432   -1.946175
  H     -0.185791    0.231708    1.829632
  H      0.027286    1.556098    0.691309
  H     -2.241935    0.578493    0.843919
  H     -1.174897    0.252257   -1.984913
  H     -1.476594    1.810402   -1.214216
  H     -2.801636    0.676819   -1.474407
  H     -1.573902   -1.823314    1.084414
  H     -2.802959   -1.559417   -0.152066
  H     -1.133857   -1.850317   -0.627158
  H      2.003795   -0.290983    1.962675

 Total Charge           Charge          ....    0
 Multiplicity           Mult            ....    1
 Number of Electrons    NEL             ....   58
 Basis Dimension        Dim             ....  208

ORBITAL ENERGIES
----------------

  NO   OCC          E(Eh)            E(eV)
   0   2.0000     -18.941209      -515.4165
   1   2.0000     -10.079173      -274.2682
   2   2.0000     -10.038377      -273.1581
   3   2.0000     -10.024642      -272.7844
   4   2.0000     -10.019086      -272.6332
   5   2.0000     -10.016364      -272.5591
   6   2.0000     -10.013974      -272.4941
   7   2.0000      -0.978479       -26.6258
   8   2.0000      -0.779689       -21.2164
   9   2.0000      -0.716865       -19.5069
  10   2.0000      -0.656297       -17.8588
  11   2.0000      -0.651850       -17.7377
  12   2.0000      -0.565793       -15.3960
  13   2.0000      -0.520403       -14.1609
  14   2.0000      -0.480305       -13.0698
  15   2.0000      -0.434316       -11.8183
  16   2.0000      -0.418013       -11.3747
  17   2.0000      -0.406912       -11.0726
  18   2.0000      -0.388349       -10.5675
  19   2.0000      -0.366750        -9.9798
  20   2.0000      -0.362112        -9.8536
  21   2.0000      -0.344418        -9.3721
  22   2.0000      -0.331589        -9.0230
  23   2.0000      -0.329249        -8.9593
  24   2.0000      -0.310579        -8.4513
  25   2.0000      -0.298879        -8.1329
  26   2.0000      -0.292050        -7.9471
  27   2.0000      -0.279350        -7.6015
  28   2.0000      -0.228680        -6.2227
  29   0.0000       0.064477         1.7545
  30   0.0000       0.076842         2.0910
  31   0.0000       0.108381         2.9492
  32   0.0000       0.120645         3.2829
  33   0.0000       0.123874         3.3708

MULLIKEN ATOMIC CHARGES
-----------------------
   0 C :   -0.493479
   1 C :    0.026919
   2 H :    0.136526
   3 C :   -0.269373
   4 C :   -0.026220
   5 C :   -0.491956
   6 C :   -0.505134
   7 O :   -0.427054
   8 H :    0.157190
   9 H :    0.159911
  10 H :    0.137711
  11 H :    0.126673
  12 H :    0.156998
  13 H :    0.144317
  14 H :    0.142251
  15 H :    0.148740
  16 H :    0.145941
  17 H :    0.148348
  18 H :    0.147118
  19 H :    0.153999
  20 H :    0.280574
Sum of atomic charges:    0.0000000

LOEWDIN ATOMIC CHARGES
----------------------
   0 C :   -0.379944
   1 C :    0.052599
   2 H :    0.162128
   3 C :   -0.282289
   4 C :   -0.242967
   5 C :   -0.415175
   6 C :   -0.419241
   7 O :   -0.621226
   8 H :    0.159433
   9 H :    0.167480
  10 H :    0.153403
  11 H :    0.159637
  12 H :    0.165880
  13 H :    0.156842
  14 H :    0.150503
  15 H :    0.154747
  16 H :    0.153250
  17 H :    0.153770
  18 H :    0.154098
  19 H :    0.151553
  20 H :    0.265517

  Mayer bond orders larger than 0.100000
B(  0-C ,  1-C ) :   0.9113 B(  0-C ,  8-H ) :   0.9838 B(  0-C ,  9-H ) :   0.9649
B(  0-C , 10-H ) :   0.9665 B(  1-C ,  2-H ) :   0.9627 B(  1-C ,  3-C ) :   0.8969
B(  1-C ,  7-O ) :   0.8613 B(  3-C ,  4-C ) :   0.8957 B(  3-C , 11-H ) :   0.9676
B(  3-C , 12-H ) :   0.9847 B(  4-C ,  5-C ) :   0.9270 B(  4-C ,  6-C ) :   0.8911
B(  4-C , 13-H ) :   0.9556 B(  5-C , 14-H ) :   0.9813 B(  5-C , 15-H ) :   0.9745
B(  5-C , 16-H ) :   0.9684 B(  6-C , 17-H ) :   0.9759 B(  6-C , 18-H ) :   0.9690
B(  6-C , 19-H ) :   0.9789 B(  7-O , 20-H ) :   0.9013

Dispersion correction           -0.005760089
FINAL SINGLE POINT ENERGY      -312.198635003453

DIPOLE MOMENT
-------------

Method             : SCF
Type of density    : Electron Density
Multiplicity       :   1
Irrep              :   0
Energy             :  -312.2042054488711642 Eh
Relativity type    :
Basis              : AO
                                X                 Y                 Z
Electronic contribution:      4.457430246       0.345304762       3.325163600
Nuclear contribution   :     -5.060829389      -0.551923435      -3.159561692
                        -----------------------------------------
Total Dipole Moment    :     -0.603399143      -0.206618673       0.165601907
                        -----------------------------------------
Magnitude (a.u.)       :      0.658942936
Magnitude (Debye)      :      1.674899837

Rotational constants in cm-1:             0.130058             0.052991             0.046316
Rotational constants in MHz :          3899.044468          1588.616819          1388.522786

                             ****ORCA TERMINATED NORMALLY****
TOTAL RUN TIME: 0 days 0 hours 0 minutes 30 seconds 337 msec
