                         Program Version 6.0.0  -   RELEASE  -
|  1> ! r2scan-3c def2/J RI DEFGRID2 scfconv6 printgap
|  2> %output
|  3>     printlevel normal
|  4> end
|  5> %cpcm
|  6>     smd true
|  7>     smdsolvent "water"
|  8> end
|  9> * xyz 0 1
| 10> C 1.544994208 0.263359225 -1.1710406609
| 11> C 1.1106046296 -0.2279061805 0.2057718264
| 12> H 0.9347495078 -1.313220884 0.1614442621
| 13> C -0.1348435812 0.4779857442 0.7641801208
| 14> C -1.5074083216 0.1355596999 0.1594644137
| 15> C -1.7483698261 0.7580098524 -1.2145532207
| 16> C -1.7661013119 -1.3694527652 0.1150264444
| 17> O 2.2196712876 0.0088760218 1.0699054511
| 18> H 1.5504386449 1.3493511585 -1.1981395187
| 19> H 2.5557431637 -0.0898860342 -1.3610571699
| 20> H 0.8900469763 -0.1164322169 -1.946175202
| 21> H -0.1857913289 0.2317081227 1.8296317858
| 22> H 0.0272859355 1.5560979133 0.6913088278
| 23> H -2.2419347937 0.5784927447 0.8439193557
| 24> H -1.1748974734 0.2522573068 -1.9849133794
| 25> H -1.4765940706 1.8104016382 -1.2142164194
| 26> H -2.8016359879 0.6768194729 -1.4744070445
| 27> H -1.5739024729 -1.8233137908 1.0844135755
| 28> H -2.8029592096 -1.5594174934 -0.152066469
| 29> H -1.1338571987 -1.8503174105 -0.6271577882
| 30> H 2.0037954637 -0.2909828775 1.9626749363
| 31> *
| 32>
| 33>                          ****END OF INPUT****

CARTESIAN COORDINATES (ANGSTROEM)
---------------------------------
  C      1.544994    0.263359   -1.171041
  C      1.110605   -0.227906    0.205772
  H      0.934750   -1.313221    0.161444
  C     -0.134844    0.477986    0.764180
  C     -1.507408    0.135560    0.159464
  C     -1.748370    0.758010   -1.214553
  C     -1.766101   -1.369453    0.115026
  O      2.219671    0.008876    1.069905
  H      1.550439    1.349351   -1.198140
  H      2.555743   -0.089886   -1.361057
  H      0.890047   -0.116432   -1.946175
  H     -0.185791    0.231708    1.829632
  H      0.027286    1.556098    0.691309
  H     -2.241935    0.578493    0.843919
  H     -1.174897    0.252257   -1.984913
  H     -1.476594    1.810402   -1.214216
  H     -2.801636    0.676819   -1.474407
  H     -1.573902   -1.823314    1.084414
  H     -2.802959   -1.559417   -0.152066
  H     -1.133857   -1.850317   -0.627158
  H      2.003795   -0.290983    1.962675

 Total Charge           Charge          ....    0
 Multiplicity           Mult            ....    1
 Number of Electrons    NEL             ....   58
 Basis Dimension        Dim             ....  208

ORBITAL ENERGIES
----------------

  NO   OCC          E(Eh)            E(eV)
   0   2.0000     -18.946459      -515.5594
   1   2.0000     -10.074529      -274.1419
   2   2.0000     -10.027368      -272.8586
   3   2.0000     -10.014442      -272.5068
   4   2.0000     -10.009038      -272.3598
   5   2.0000     -10.006485      -272.2903
   6   2.0000     -10.004894      -272.2470
   7   2.0000      -0.982427       -26.7332
   8   2.0000      -0.769366       -20.9355
   9   2.0000      -0.711406       -19.3583
  10   2.0000      -0.647594       -17.6219
  11   2.0000      -0.640999       -17.4425
  12   2.0000      -0.560216       -15.2442
  13   2.0000      -0.512613       -13.9489
  14   2.0000      -0.476471       -12.9654
  15   2.0000      -0.424864       -11.5611
  16   2.0000      -0.410503       -11.1703
  17   2.0000      -0.397225       -10.8090
  18   2.0000      -0.379526       -10.3274
  19   2.0000      -0.363392        -9.8884
  20   2.0000      -0.355263        -9.6672
  21   2.0000      -0.335981        -9.1425
  22   2.0000      -0.326908        -8.8956
  23   2.0000      -0.321593        -8.7510
  24   2.0000      -0.304421        -8.2837
  25   2.0000      -0.289305        -7.8724
  26   2.0000      -0.283558        -7.7160
  27   2.0000      -0.274384        -7.4664
  28   2.0000      -0.232679        -6.3315
  29   0.0000       0.080258         2.1839
  30   0.0000       0.087380         2.3777
  31   0.0000       0.121444         3.3047
  32   0.0000       0.129823         3.5327
  33   0.0000       0.132606         3.6084

MULLIKEN ATOMIC CHARGES
-----------------------
   0 C :   -0.542371
   1 C :    0.051092
   2 H :    0.147341
   3 C :   -0.292087
   4 C :   -0.007171
   5 C :   -0.544250
   6 C :   -0.548402
   7 O :   -0.519889
   8 H :    0.170318
   9 H :    0.159509
  10 H :    0.165912
  11 H :    0.152722
  12 H :    0.159141
  13 H :    0.152269
  14 H :    0.159032
  15 H :    0.158606
  16 H :    0.156393
  17 H :    0.160371
  18 H :    0.157175
  19 H :    0.166379
  20 H :    0.337908
Sum of atomic charges:    0.0000000

LOEWDIN ATOMIC CHARGES
----------------------
   0 C :   -0.390836
   1 C :    0.054247
   2 H :    0.169325
   3 C :   -0.283850
   4 C :   -0.238519
   5 C :   -0.424803
   6 C :   -0.426645
   7 O :   -0.660085
   8 H :    0.161168
   9 H :    0.164802
  10 H :    0.163287
  11 H :    0.168316
  12 H :    0.165914
  13 H :    0.159709
  14 H :    0.154390
  15 H :    0.156295
  16 H :    0.155319
  17 H :    0.157024
  18 H :    0.155874
  19 H :    0.154973
  20 H :    0.284096

  Mayer bond orders larger than 0.100000
B(  0-C ,  1-C ) :   0.8987 B(  0-C ,  8-H ) :   0.9801 B(  0-C ,  9-H ) :   0.9644
B(  0-C , 10-H ) :   0.9627 B(  1-C ,  2-H ) :   0.9564 B(  1-C ,  3-C ) :   0.9094
B(  1-C ,  7-O ) :   0.8429 B(  3-C ,  4-C ) :   0.9014 B(  3-C , 11-H ) :   0.9636
B(  3-C , 12-H ) :   0.9791 B(  4-C ,  5-C ) :   0.9109 B(  4-C ,  6-C ) :   0.8868
B(  4-C , 13-H ) :   0.9565 B(  5-C , 14-H ) :   0.9800 B(  5-C , 15-H ) :   0.9729
B(  5-C , 16-H ) :   0.9668 B(  6-C , 17-H ) :   0.9723 B(  6-C , 18-H ) :   0.9686
B(  6-C , 19-H ) :   0.9763 B(  7-O , 20-H ) :   0.8756

Dispersion correction           -0.005760089
FINAL SINGLE POINT ENERGY      -312.205134116814

DIPOLE MOMENT
-------------

Method             : SCF
Type of density    : Electron Density
Multiplicity       :   1
Irrep              :   0
Energy             :  -312.2107045622319674 Eh
Relativity type    :
Basis              : AO
                                X                 Y                 Z
Electronic contribution:      4.205176573       0.210670850       3.410748180
Nuclear contribution   :     -5.060829389      -0.551923435      -3.159561692
                        -----------------------------------------
Total Dipole Moment    :     -0.855652816      -0.341252585       0.251186487
                        -----------------------------------------
Magnitude (a.u.)       :      0.954824444
Magnitude (Debye)      :      2.426970863

Rotational constants in cm-1:             0.130058             0.052991             0.046316
Rotational constants in MHz :          3899.044468          1588.616819          1388.522786

                             ****ORCA TERMINATED NORMALLY****
TOTAL RUN TIME: 0 days 0 hours 0 minutes 34 seconds 684 msec
