                         Program Version 6.0.0  -   RELEASE  -
|  1> ! r2scan-3c def2/J RI DEFGRID2 scfconv6 printgap
|  2> %output
|  3>     printlevel normal
|  4> end
|  5> * xyz 0 1
|  6> C 2.2109665574 -0.8544920907 0.4671025661
|  7> C 1.4459153348 0.4034947653 0.0672141529
|  8> C 0.346282502 0.1342804964 -0.9708979263
|  9> C -1.0804789325 0.0084490401 -0.4077959721
| 10> H -1.7436228617 -0.2633827115 -1.2386108562
| 11> C -1.2129812161 -1.0450412613 0.690806963
| 12> O -1.583050307 1.2639082681 0.0215207503
| 13> H 2.6970574139 -1.2908167226 -0.4025447209
| 14> H 1.5491250395 -1.5999038296 0.8978363732
| 15> H 2.9776375199 -0.6112533159 1.1993921521
| 16> H 1.0187062552 0.864587134 0.9600236295
| 17> H 2.1577620457 1.1188568029 -0.3491748349
| 18> H 0.320431817 0.9520209239 -1.6944865871
| 19> H 0.5786795764 -0.780591449 -1.5168593179
| 20> H -0.601824801 -0.787090331 1.5516933481
| 21> H -2.2504534571 -1.1042807166 1.0116079191
| 22> H -0.9071337395 -2.0155076855 0.3119698462
| 23> H -1.0413321777 1.5812780219 0.7576070407
| 24> *
| 25>
| 26>                          ****END OF INPUT****

CARTESIAN COORDINATES (ANGSTROEM)
---------------------------------
  C      2.210967   -0.854492    0.467103
  C      1.445915    0.403495    0.067214
  C      0.346283    0.134280   -0.970898
  C     -1.080479    0.008449   -0.407796
  H     -1.743623   -0.263383   -1.238611
  C     -1.212981   -1.045041    0.690807
  O     -1.583050    1.263908    0.021521
  H      2.697057   -1.290817   -0.402545
  H      1.549125   -1.599904    0.897836
  H      2.977638   -0.611253    1.199392
  H      1.018706    0.864587    0.960024
  H      2.157762    1.118857   -0.349175
  H      0.320432    0.952021   -1.694487
  H      0.578680   -0.780591   -1.516859
  H     -0.601825   -0.787090    1.551693
  H     -2.250453   -1.104281    1.011608
  H     -0.907134   -2.015508    0.311970
  H     -1.041332    1.581278    0.757607

 Total Charge           Charge          ....    0
 Multiplicity           Mult            ....    1
 Number of Electrons    NEL             ....   50
 Basis Dimension        Dim             ....  179

ORBITAL ENERGIES
----------------

  NO   OCC          E(Eh)            E(eV)
   0   2.0000     -18.942435      -515.4499
   1   2.0000     -10.079606      -274.2800
   2   2.0000     -10.032195      -272.9899
   3   2.0000     -10.023794      -272.7613
   4   2.0000     -10.020298      -272.6662
   5   2.0000     -10.018940      -272.6292
   6   2.0000      -0.980940       -26.6927
   7   2.0000      -0.764812       -20.8116
   8   2.0000      -0.711135       -19.3510
   9   2.0000      -0.654623       -17.8132
  10   2.0000      -0.587794       -15.9947
  11   2.0000      -0.540184       -14.6992
  12   2.0000      -0.460215       -12.5231
  13   2.0000      -0.435086       -11.8393
  14   2.0000      -0.418721       -11.3940
  15   2.0000      -0.405854       -11.0438
  16   2.0000      -0.378488       -10.2992
  17   2.0000      -0.368550       -10.0288
  18   2.0000      -0.344714        -9.3802
  19   2.0000      -0.341407        -9.2901
  20   2.0000      -0.322682        -8.7806
  21   2.0000      -0.309561        -8.4236
  22   2.0000      -0.294258        -8.0072
  23   2.0000      -0.276145        -7.5143
  24   2.0000      -0.232585        -6.3289
  25   0.0000       0.059773         1.6265
  26   0.0000       0.095126         2.5885
  27   0.0000       0.101066         2.7501
  28   0.0000       0.126599         3.4449
  29   0.0000       0.128399         3.4939

MULLIKEN ATOMIC CHARGES
-----------------------
   0 C :   -0.493141
   1 C :   -0.245696
   2 C :   -0.227161
   3 C :   -0.044587
   4 H :    0.142181
   5 C :   -0.494436
   6 O :   -0.405978
   7 H :    0.149729
   8 H :    0.152144
   9 H :    0.145277
  10 H :    0.120351
  11 H :    0.147525
  12 H :    0.158511
  13 H :    0.142189
  14 H :    0.148720
  15 H :    0.161936
  16 H :    0.152192
  17 H :    0.290245
Sum of atomic charges:    0.0000000

LOEWDIN ATOMIC CHARGES
----------------------
   0 C :   -0.424415
   1 C :   -0.317727
   2 C :   -0.290909
   3 C :    0.044213
   4 H :    0.180736
   5 C :   -0.401749
   6 O :   -0.608927
   7 H :    0.150383
   8 H :    0.151211
   9 H :    0.150436
  10 H :    0.144690
  11 H :    0.155772
  12 H :    0.167632
  13 H :    0.160911
  14 H :    0.153762
  15 H :    0.161467
  16 H :    0.157869
  17 H :    0.264645

  Mayer bond orders larger than 0.100000
B(  0-C ,  1-C ) :   0.9066 B(  0-C ,  7-H ) :   0.9865 B(  0-C ,  8-H ) :   0.9731
B(  0-C ,  9-H ) :   0.9727 B(  1-C ,  2-C ) :   0.8157 B(  1-C , 10-H ) :   0.9810
B(  1-C , 11-H ) :   0.9635 B(  2-C ,  3-C ) :   0.9096 B(  2-C , 12-H ) :   0.9718
B(  2-C , 13-H ) :   0.9785 B(  3-C ,  4-H ) :   0.9731 B(  3-C ,  5-C ) :   0.9251
B(  3-C ,  6-O ) :   0.9559 B(  5-C , 14-H ) :   0.9644 B(  5-C , 15-H ) :   0.9675
B(  5-C , 16-H ) :   0.9743 B(  6-O , 17-H ) :   0.8913

Dispersion correction           -0.004434118
FINAL SINGLE POINT ENERGY      -272.898894470866

DIPOLE MOMENT
-------------

Method             : SCF
Type of density    : Electron Density
Multiplicity       :   1
Irrep              :   0
Energy             :  -272.9041754472600019 Eh
Relativity type    :
Basis              : AO
                                X                 Y                 Z
Electronic contribution:     -3.908828317       3.356676090      -1.208063930
Nuclear contribution   :      4.437505483      -3.673933763       1.396732775
                        -----------------------------------------
Total Dipole Moment    :      0.528677166      -0.317257673       0.188668845
                        -----------------------------------------
Magnitude (a.u.)       :      0.644785166
Magnitude (Debye)      :      1.638913646

Rotational constants in cm-1:             0.179677             0.073761             0.063071
Rotational constants in MHz :          5386.587558          2211.294044          1890.828990

                             ****ORCA TERMINATED NORMALLY****
TOTAL RUN TIME: 0 days 0 hours 0 minutes 21 seconds 164 msec
