                         Program Version 6.0.0  -   RELEASE  -
|  1> ! r2scan-3c def2/J RI DEFGRID2 scfconv6 printgap
|  2> %output
|  3>     printlevel normal
|  4> end
|  5> %cpcm
|  6>     smd true
|  7>     smdsolvent "water"
|  8> end
|  9> * xyz 0 1
| 10> C 2.2109665574 -0.8544920907 0.4671025661
| 11> C 1.4459153348 0.4034947653 0.0672141529
| 12> C 0.346282502 0.1342804964 -0.9708979263
| 13> C -1.0804789325 0.0084490401 -0.4077959721
| 14> H -1.7436228617 -0.2633827115 -1.2386108562
| 15> C -1.2129812161 -1.0450412613 0.690806963
| 16> O -1.583050307 1.2639082681 0.0215207503
| 17> H 2.6970574139 -1.2908167226 -0.4025447209
| 18> H 1.5491250395 -1.5999038296 0.8978363732
| 19> H 2.9776375199 -0.6112533159 1.1993921521
| 20> H 1.0187062552 0.864587134 0.9600236295
| 21> H 2.1577620457 1.1188568029 -0.3491748349
| 22> H 0.320431817 0.9520209239 -1.6944865871
| 23> H 0.5786795764 -0.780591449 -1.5168593179
| 24> H -0.601824801 -0.787090331 1.5516933481
| 25> H -2.2504534571 -1.1042807166 1.0116079191
| 26> H -0.9071337395 -2.0155076855 0.3119698462
| 27> H -1.0413321777 1.5812780219 0.7576070407
| 28> *
| 29>
| 30>                          ****END OF INPUT****

CARTESIAN COORDINATES (ANGSTROEM)
---------------------------------
  C      2.210967   -0.854492    0.467103
  C      1.445915    0.403495    0.067214
  C      0.346283    0.134280   -0.970898
  C     -1.080479    0.008449   -0.407796
  H     -1.743623   -0.263383   -1.238611
  C     -1.212981   -1.045041    0.690807
  O     -1.583050    1.263908    0.021521
  H      2.697057   -1.290817   -0.402545
  H      1.549125   -1.599904    0.897836
  H      2.977638   -0.611253    1.199392
  H      1.018706    0.864587    0.960024
  H      2.157762    1.118857   -0.349175
  H      0.320432    0.952021   -1.694487
  H      0.578680   -0.780591   -1.516859
  H     -0.601825   -0.787090    1.551693
  H     -2.250453   -1.104281    1.011608
  H     -0.907134   -2.015508    0.311970
  H     -1.041332    1.581278    0.757607

 Total Charge           Charge          ....    0
 Multiplicity           Mult            ....    1
 Number of Electrons    NEL             ....   50
 Basis Dimension        Dim             ....  179

ORBITAL ENERGIES
----------------

  NO   OCC          E(Eh)            E(eV)
   0   2.0000     -18.947512      -515.5880
   1   2.0000     -10.074491      -274.1408
   2   2.0000     -10.018121      -272.6069
   3   2.0000     -10.014591      -272.5109
   4   2.0000     -10.008680      -272.3500
   5   2.0000     -10.007385      -272.3148
   6   2.0000      -0.984748       -26.7964
   7   2.0000      -0.754403       -20.5284
   8   2.0000      -0.701958       -19.1012
   9   2.0000      -0.644793       -17.5457
  10   2.0000      -0.579322       -15.7641
  11   2.0000      -0.532157       -14.4807
  12   2.0000      -0.453213       -12.3326
  13   2.0000      -0.428729       -11.6663
  14   2.0000      -0.409602       -11.1458
  15   2.0000      -0.399173       -10.8621
  16   2.0000      -0.369702       -10.0601
  17   2.0000      -0.357338        -9.7237
  18   2.0000      -0.335948        -9.1416
  19   2.0000      -0.333034        -9.0623
  20   2.0000      -0.317614        -8.6427
  21   2.0000      -0.299105        -8.1391
  22   2.0000      -0.284317        -7.7367
  23   2.0000      -0.270785        -7.3684
  24   2.0000      -0.237265        -6.4563
  25   0.0000       0.075656         2.0587
  26   0.0000       0.109389         2.9766
  27   0.0000       0.112712         3.0670
  28   0.0000       0.135166         3.6781
  29   0.0000       0.137029         3.7287

MULLIKEN ATOMIC CHARGES
-----------------------
   0 C :   -0.526908
   1 C :   -0.256701
   2 C :   -0.262437
   3 C :   -0.016705
   4 H :    0.151619
   5 C :   -0.533873
   6 O :   -0.500979
   7 H :    0.158579
   8 H :    0.160420
   9 H :    0.153661
  10 H :    0.150104
  11 H :    0.153335
  12 H :    0.159488
  13 H :    0.158554
  14 H :    0.171482
  15 H :    0.161350
  16 H :    0.169348
  17 H :    0.349664
Sum of atomic charges:    0.0000000

LOEWDIN ATOMIC CHARGES
----------------------
   0 C :   -0.431851
   1 C :   -0.319557
   2 C :   -0.291736
   3 C :    0.043371
   4 H :    0.183240
   5 C :   -0.405790
   6 O :   -0.649171
   7 H :    0.151953
   8 H :    0.153363
   9 H :    0.152117
  10 H :    0.155200
  11 H :    0.156820
  12 H :    0.165938
  13 H :    0.166830
  14 H :    0.161619
  15 H :    0.159890
  16 H :    0.164634
  17 H :    0.283131

  Mayer bond orders larger than 0.100000
B(  0-C ,  1-C ) :   0.8972 B(  0-C ,  7-H ) :   0.9838 B(  0-C ,  8-H ) :   0.9721
B(  0-C ,  9-H ) :   0.9713 B(  1-C ,  2-C ) :   0.8152 B(  1-C , 10-H ) :   0.9775
B(  1-C , 11-H ) :   0.9645 B(  2-C ,  3-C ) :   0.9134 B(  2-C , 12-H ) :   0.9740
B(  2-C , 13-H ) :   0.9758 B(  3-C ,  4-H ) :   0.9712 B(  3-C ,  5-C ) :   0.9183
B(  3-C ,  6-O ) :   0.9365 B(  5-C , 14-H ) :   0.9631 B(  5-C , 15-H ) :   0.9653
B(  5-C , 16-H ) :   0.9690 B(  6-O , 17-H ) :   0.8641

Dispersion correction           -0.004434118
FINAL SINGLE POINT ENERGY      -272.905611135536

DIPOLE MOMENT
-------------

Method             : SCF
Type of density    : Electron Density
Multiplicity       :   1
Irrep              :   0
Energy             :  -272.9108921119303091 Eh
Relativity type    :
Basis              : AO
                                X                 Y                 Z
Electronic contribution:     -3.707069322       3.237359615      -1.081569693
Nuclear contribution   :      4.437505483      -3.673933763       1.396732775
                        -----------------------------------------
Total Dipole Moment    :      0.730436161      -0.436574148       0.315163081
                        -----------------------------------------
Magnitude (a.u.)       :      0.907447927
Magnitude (Debye)      :      2.306549326

Rotational constants in cm-1:             0.179677             0.073761             0.063071
Rotational constants in MHz :          5386.587558          2211.294044          1890.828990

                             ****ORCA TERMINATED NORMALLY****
TOTAL RUN TIME: 0 days 0 hours 0 minutes 24 seconds 721 msec
