                         Program Version 6.0.0  -   RELEASE  -
|  1> ! r2scan-3c def2/J RI DEFGRID2 scfconv6 printgap
|  2> %output
|  3>     printlevel normal
|  4> end
|  5> * xyz 0 1
|  6> C -2.3799879908 0.1550594066 1.0427814346
|  7> C -1.796344492 0.524146328 -0.3240581001
|  8> C -0.4477661241 -0.1300282257 -0.4795285894
|  9> O -0.2753366785 -1.3048109061 -0.7312251656
| 10> O 0.538709106 0.7355527126 -0.2874386126
| 11> C 1.8943233561 0.2594254 -0.3376852489
| 12> C 2.3652201063 -0.1849838193 1.0386277598
| 13> H -1.748469742 0.5370939249 1.840879454
| 14> H -3.3726663947 0.5824593993 1.1460652482
| 15> H -2.4494141671 -0.9259290783 1.1391298066
| 16> H -1.6773635341 1.6029352642 -0.4085016009
| 17> H -2.4506774272 0.1538135175 -1.1129609369
| 18> H 1.945968585 -0.5691654567 -1.0504913036
| 19> H 2.473970219 1.1088138655 -0.7005738676
| 20> H 3.4069260319 -0.4836200125 0.9832518252
| 21> H 2.2623539389 0.6296707677 1.7502771664
| 22> H 1.7729512432 -1.0312496347 1.3797072936
| 23> *
| 24>
| 25>                          ****END OF INPUT****

CARTESIAN COORDINATES (ANGSTROEM)
---------------------------------
  C     -2.379988    0.155059    1.042781
  C     -1.796344    0.524146   -0.324058
  C     -0.447766   -0.130028   -0.479529
  O     -0.275337   -1.304811   -0.731225
  O      0.538709    0.735553   -0.287439
  C      1.894323    0.259425   -0.337685
  C      2.365220   -0.184984    1.038628
  H     -1.748470    0.537094    1.840879
  H     -3.372666    0.582459    1.146065
  H     -2.449414   -0.925929    1.139130
  H     -1.677364    1.602935   -0.408502
  H     -2.450677    0.153814   -1.112961
  H      1.945969   -0.569165   -1.050491
  H      2.473970    1.108814   -0.700574
  H      3.406926   -0.483620    0.983252
  H      2.262354    0.629671    1.750277
  H      1.772951   -1.031250    1.379707

 Total Charge           Charge          ....    0
 Multiplicity           Mult            ....    1
 Number of Electrons    NEL             ....   56
 Basis Dimension        Dim             ....  193

ORBITAL ENERGIES
----------------

  NO   OCC          E(Eh)            E(eV)
   0   2.0000     -18.996731      -516.9273
   1   2.0000     -18.926621      -515.0195
   2   2.0000     -10.150993      -276.2226
   3   2.0000     -10.090717      -274.5824
   4   2.0000     -10.042856      -273.2800
   5   2.0000     -10.030981      -272.9569
   6   2.0000     -10.029693      -272.9218
   7   2.0000      -1.071090       -29.1458
   8   2.0000      -0.974624       -26.5209
   9   2.0000      -0.764848       -20.8126
  10   2.0000      -0.731043       -19.8927
  11   2.0000      -0.642894       -17.4940
  12   2.0000      -0.597658       -16.2631
  13   2.0000      -0.522149       -14.2084
  14   2.0000      -0.472083       -12.8460
  15   2.0000      -0.454386       -12.3645
  16   2.0000      -0.439966       -11.9721
  17   2.0000      -0.410017       -11.1571
  18   2.0000      -0.406296       -11.0559
  19   2.0000      -0.381333       -10.3766
  20   2.0000      -0.372061       -10.1243
  21   2.0000      -0.354567        -9.6483
  22   2.0000      -0.336850        -9.1662
  23   2.0000      -0.326710        -8.8902
  24   2.0000      -0.324854        -8.8397
  25   2.0000      -0.305450        -8.3117
  26   2.0000      -0.270498        -7.3606
  27   2.0000      -0.234386        -6.3780
  28   0.0000      -0.014215        -0.3868
  29   0.0000       0.075699         2.0599
  30   0.0000       0.092836         2.5262
  31   0.0000       0.117174         3.1885
  32   0.0000       0.125157         3.4057

MULLIKEN ATOMIC CHARGES
-----------------------
   0 C :   -0.467336
   1 C :   -0.299770
   2 C :    0.414360
   3 O :   -0.434656
   4 O :   -0.176600
   5 C :   -0.142573
   6 C :   -0.465193
   7 H :    0.148044
   8 H :    0.153064
   9 H :    0.167295
  10 H :    0.158020
  11 H :    0.159687
  12 H :    0.170913
  13 H :    0.147360
  14 H :    0.147513
  15 H :    0.151968
  16 H :    0.167905
Sum of atomic charges:    0.0000000

LOEWDIN ATOMIC CHARGES
----------------------
   0 C :   -0.392735
   1 C :   -0.236429
   2 C :    0.357062
   3 O :   -0.436021
   4 O :   -0.595699
   5 C :    0.027076
   6 C :   -0.390175
   7 H :    0.155212
   8 H :    0.152900
   9 H :    0.162124
  10 H :    0.173671
  11 H :    0.175756
  12 H :    0.189912
  13 H :    0.177363
  14 H :    0.159336
  15 H :    0.156829
  16 H :    0.163817

  Mayer bond orders larger than 0.100000
B(  0-C ,  1-C ) :   0.8954 B(  0-C ,  7-H ) :   0.9746 B(  0-C ,  8-H ) :   0.9714
B(  0-C ,  9-H ) :   0.9753 B(  1-C ,  2-C ) :   0.9485 B(  1-C , 10-H ) :   0.9822
B(  1-C , 11-H ) :   0.9650 B(  2-C ,  3-O ) :   1.8307 B(  2-C ,  4-O ) :   1.0530
B(  4-O ,  5-C ) :   0.8097 B(  5-C ,  6-C ) :   0.9397 B(  5-C , 12-H ) :   0.9646
B(  5-C , 13-H ) :   0.9617 B(  6-C , 14-H ) :   0.9660 B(  6-C , 15-H ) :   0.9743
B(  6-C , 16-H ) :   0.9713

Dispersion correction           -0.004020093
FINAL SINGLE POINT ENERGY      -346.936120848164

DIPOLE MOMENT
-------------

Method             : SCF
Type of density    : Electron Density
Multiplicity       :   1
Irrep              :   0
Energy             :  -346.9425107826678527 Eh
Relativity type    :
Basis              : AO
                                X                 Y                 Z
Electronic contribution:      0.045560337      -0.796373743      -4.337615253
Nuclear contribution   :      0.157369022       1.497151976       4.644570118
                        -----------------------------------------
Total Dipole Moment    :      0.202929358       0.700778233       0.306954866
                        -----------------------------------------
Magnitude (a.u.)       :      0.791512315
Magnitude (Debye)      :      2.011864420

Rotational constants in cm-1:             0.161407             0.051355             0.048685
Rotational constants in MHz :          4838.850462          1539.592447          1459.535257

                             ****ORCA TERMINATED NORMALLY****
TOTAL RUN TIME: 0 days 0 hours 0 minutes 21 seconds 640 msec
