                         Program Version 6.0.0  -   RELEASE  -
|  1> ! r2scan-3c def2/J RI DEFGRID2 scfconv6 printgap
|  2> %output
|  3>     printlevel normal
|  4> end
|  5> %cpcm
|  6>     smd true
|  7>     smdsolvent "water"
|  8> end
|  9> * xyz 0 1
| 10> C -2.3799879908 0.1550594066 1.0427814346
| 11> C -1.796344492 0.524146328 -0.3240581001
| 12> C -0.4477661241 -0.1300282257 -0.4795285894
| 13> O -0.2753366785 -1.3048109061 -0.7312251656
| 14> O 0.538709106 0.7355527126 -0.2874386126
| 15> C 1.8943233561 0.2594254 -0.3376852489
| 16> C 2.3652201063 -0.1849838193 1.0386277598
| 17> H -1.748469742 0.5370939249 1.840879454
| 18> H -3.3726663947 0.5824593993 1.1460652482
| 19> H -2.4494141671 -0.9259290783 1.1391298066
| 20> H -1.6773635341 1.6029352642 -0.4085016009
| 21> H -2.4506774272 0.1538135175 -1.1129609369
| 22> H 1.945968585 -0.5691654567 -1.0504913036
| 23> H 2.473970219 1.1088138655 -0.7005738676
| 24> H 3.4069260319 -0.4836200125 0.9832518252
| 25> H 2.2623539389 0.6296707677 1.7502771664
| 26> H 1.7729512432 -1.0312496347 1.3797072936
| 27> *
| 28>
| 29>                          ****END OF INPUT****

CARTESIAN COORDINATES (ANGSTROEM)
---------------------------------
  C     -2.379988    0.155059    1.042781
  C     -1.796344    0.524146   -0.324058
  C     -0.447766   -0.130028   -0.479529
  O     -0.275337   -1.304811   -0.731225
  O      0.538709    0.735553   -0.287439
  C      1.894323    0.259425   -0.337685
  C      2.365220   -0.184984    1.038628
  H     -1.748470    0.537094    1.840879
  H     -3.372666    0.582459    1.146065
  H     -2.449414   -0.925929    1.139130
  H     -1.677364    1.602935   -0.408502
  H     -2.450677    0.153814   -1.112961
  H      1.945969   -0.569165   -1.050491
  H      2.473970    1.108814   -0.700574
  H      3.406926   -0.483620    0.983252
  H      2.262354    0.629671    1.750277
  H      1.772951   -1.031250    1.379707

 Total Charge           Charge          ....    0
 Multiplicity           Mult            ....    1
 Number of Electrons    NEL             ....   56
 Basis Dimension        Dim             ....  193

ORBITAL ENERGIES
----------------

  NO   OCC          E(Eh)            E(eV)
   0   2.0000     -19.002708      -517.0900
   1   2.0000     -18.942900      -515.4625
   2   2.0000     -10.161940      -276.5204
   3   2.0000     -10.082959      -274.3713
   4   2.0000     -10.037211      -273.1264
   5   2.0000     -10.022152      -272.7166
   6   2.0000     -10.018511      -272.6175
   7   2.0000      -1.078722       -29.3535
   8   2.0000      -0.988737       -26.9049
   9   2.0000      -0.760880       -20.7046
  10   2.0000      -0.723495       -19.6873
  11   2.0000      -0.637588       -17.3496
  12   2.0000      -0.591447       -16.0941
  13   2.0000      -0.520333       -14.1590
  14   2.0000      -0.472303       -12.8520
  15   2.0000      -0.459329       -12.4990
  16   2.0000      -0.443285       -12.0624
  17   2.0000      -0.412377       -11.2213
  18   2.0000      -0.400448       -10.8967
  19   2.0000      -0.376446       -10.2436
  20   2.0000      -0.367362        -9.9964
  21   2.0000      -0.346701        -9.4342
  22   2.0000      -0.332816        -9.0564
  23   2.0000      -0.326000        -8.8709
  24   2.0000      -0.316392        -8.6095
  25   2.0000      -0.303699        -8.2641
  26   2.0000      -0.278164        -7.5692
  27   2.0000      -0.250703        -6.8220
  28   0.0000      -0.022594        -0.6148
  29   0.0000       0.078220         2.1285
  30   0.0000       0.100833         2.7438
  31   0.0000       0.126622         3.4456
  32   0.0000       0.135200         3.6790

MULLIKEN ATOMIC CHARGES
-----------------------
   0 C :   -0.491345
   1 C :   -0.314064
   2 C :    0.451130
   3 O :   -0.518127
   4 O :   -0.195408
   5 C :   -0.145954
   6 C :   -0.490885
   7 H :    0.163457
   8 H :    0.172717
   9 H :    0.166715
  10 H :    0.174789
  11 H :    0.178950
  12 H :    0.171892
  13 H :    0.173274
  14 H :    0.170465
  15 H :    0.165949
  16 H :    0.166445
Sum of atomic charges:    0.0000000

LOEWDIN ATOMIC CHARGES
----------------------
   0 C :   -0.394723
   1 C :   -0.233290
   2 C :    0.366291
   3 O :   -0.496292
   4 O :   -0.597515
   5 C :    0.031967
   6 C :   -0.392905
   7 H :    0.160128
   8 H :    0.160502
   9 H :    0.160863
  10 H :    0.181558
  11 H :    0.182683
  12 H :    0.190335
  13 H :    0.188696
  14 H :    0.167789
  15 H :    0.161860
  16 H :    0.162052

  Mayer bond orders larger than 0.100000
B(  0-C ,  1-C ) :   0.8835 B(  0-C ,  7-H ) :   0.9701 B(  0-C ,  8-H ) :   0.9658
B(  0-C ,  9-H ) :   0.9744 B(  1-C ,  2-C ) :   0.9499 B(  1-C , 10-H ) :   0.9733
B(  1-C , 11-H ) :   0.9595 B(  2-C ,  3-O ) :   1.7610 B(  2-C ,  4-O ) :   1.0770
B(  4-O ,  5-C ) :   0.7933 B(  5-C ,  6-C ) :   0.9391 B(  5-C , 12-H ) :   0.9608
B(  5-C , 13-H ) :   0.9525 B(  6-C , 14-H ) :   0.9609 B(  6-C , 15-H ) :   0.9704
B(  6-C , 16-H ) :   0.9684

Dispersion correction           -0.004020093
FINAL SINGLE POINT ENERGY      -346.941181642887

DIPOLE MOMENT
-------------

Method             : SCF
Type of density    : Electron Density
Multiplicity       :   1
Irrep              :   0
Energy             :  -346.9475715773902493 Eh
Relativity type    :
Basis              : AO
                                X                 Y                 Z
Electronic contribution:      0.108861375      -0.460202595      -4.244715459
Nuclear contribution   :      0.157369022       1.497151976       4.644570118
                        -----------------------------------------
Total Dipole Moment    :      0.266230397       1.036949381       0.399854660
                        -----------------------------------------
Magnitude (a.u.)       :      1.142815117
Magnitude (Debye)      :      2.904805179

Rotational constants in cm-1:             0.161407             0.051355             0.048685
Rotational constants in MHz :          4838.850462          1539.592447          1459.535257

                             ****ORCA TERMINATED NORMALLY****
TOTAL RUN TIME: 0 days 0 hours 0 minutes 27 seconds 143 msec
