                         Program Version 6.0.0  -   RELEASE  -
|  1> ! r2scan-3c def2/J RI DEFGRID2 scfconv6 printgap
|  2> %output
|  3>     printlevel normal
|  4> end
|  5> * xyz 0 1
|  6> C -2.601738096 -0.3009530853 1.5334532462
|  7> C -2.1056716629 -0.3238981542 0.0881598087
|  8> C -3.2927164465 -0.1850978169 -0.8641009894
|  9> C -1.0843007428 0.8003280309 -0.1731790624
| 10> C 0.3482261008 0.3691822243 -0.1275444768
| 11> C 0.8589856674 -0.5426904572 0.7998953538
| 12> N 2.1330144228 -0.8989371733 0.8155936922
| 13> C 2.9280854237 -0.3497300522 -0.0943726195
| 14> C 2.4354403492 0.556868287 -1.0208936429
| 15> N 1.158857961 0.9091506959 -1.0372581616
| 16> H -1.7763345939 -0.3491966987 2.2389058438
| 17> H -3.2604662515 -1.1456272356 1.7206871696
| 18> H -3.1583560013 0.614415282 1.7224441476
| 19> H -1.6239572449 -1.2888388044 -0.1057661295
| 20> H -4.021949333 -0.9692134942 -0.6751026556
| 21> H -3.779099623 0.7774414877 -0.7238440109
| 22> H -2.9674215868 -0.2625365732 -1.8987297345
| 23> H -1.2246874049 1.5950679304 0.5639413022
| 24> H -1.2479441697 1.2429052112 -1.1565045753
| 25> H 0.2371464159 -1.0059198314 1.5513552183
| 26> H 3.9653923603 -0.6489409794 -0.0709421476
| 27> H 3.0660855593 1.0123957214 -1.7712457811
| 28> *
| 29>
| 30>                          ****END OF INPUT****

CARTESIAN COORDINATES (ANGSTROEM)
---------------------------------
  C     -2.601738   -0.300953    1.533453
  C     -2.105672   -0.323898    0.088160
  C     -3.292716   -0.185098   -0.864101
  C     -1.084301    0.800328   -0.173179
  C      0.348226    0.369182   -0.127544
  C      0.858986   -0.542690    0.799895
  N      2.133014   -0.898937    0.815594
  C      2.928085   -0.349730   -0.094373
  C      2.435440    0.556868   -1.020894
  N      1.158858    0.909151   -1.037258
  H     -1.776335   -0.349197    2.238906
  H     -3.260466   -1.145627    1.720687
  H     -3.158356    0.614415    1.722444
  H     -1.623957   -1.288839   -0.105766
  H     -4.021949   -0.969213   -0.675103
  H     -3.779100    0.777441   -0.723844
  H     -2.967422   -0.262537   -1.898730
  H     -1.224687    1.595068    0.563941
  H     -1.247944    1.242905   -1.156505
  H      0.237146   -1.005920    1.551355
  H      3.965392   -0.648941   -0.070942
  H      3.066086    1.012396   -1.771246

 Total Charge           Charge          ....    0
 Multiplicity           Mult            ....    1
 Number of Electrons    NEL             ....   74
 Basis Dimension        Dim             ....  260

ORBITAL ENERGIES
----------------

  NO   OCC          E(Eh)            E(eV)
   0   2.0000     -14.172634      -385.6570
   1   2.0000     -14.169618      -385.5749
   2   2.0000     -10.084343      -274.4089
   3   2.0000     -10.075883      -274.1787
   4   2.0000     -10.074031      -274.1283
   5   2.0000     -10.073299      -274.1084
   6   2.0000     -10.045563      -273.3537
   7   2.0000     -10.036342      -273.1027
   8   2.0000     -10.024399      -272.7778
   9   2.0000     -10.022409      -272.7236
  10   2.0000      -0.953239       -25.9390
  11   2.0000      -0.878613       -23.9083
  12   2.0000      -0.793144       -21.5825
  13   2.0000      -0.748520       -20.3683
  14   2.0000      -0.677303       -18.4303
  15   2.0000      -0.658432       -17.9168
  16   2.0000      -0.628826       -17.1112
  17   2.0000      -0.599043       -16.3008
  18   2.0000      -0.541733       -14.7413
  19   2.0000      -0.491173       -13.3655
  20   2.0000      -0.489305       -13.3147
  21   2.0000      -0.452978       -12.3262
  22   2.0000      -0.430673       -11.7192
  23   2.0000      -0.421649       -11.4737
  24   2.0000      -0.403479       -10.9792
  25   2.0000      -0.398386       -10.8406
  26   2.0000      -0.383052       -10.4234
  27   2.0000      -0.363749        -9.8981
  28   2.0000      -0.359821        -9.7912
  29   2.0000      -0.342417        -9.3176
  30   2.0000      -0.314278        -8.5519
  31   2.0000      -0.307499        -8.3675
  32   2.0000      -0.306230        -8.3330
  33   2.0000      -0.300695        -8.1823
  34   2.0000      -0.271874        -7.3981
  35   2.0000      -0.248455        -6.7608
  36   2.0000      -0.214631        -5.8404
  37   0.0000      -0.076400        -2.0789
  38   0.0000      -0.049724        -1.3531
  39   0.0000       0.068159         1.8547
  40   0.0000       0.086466         2.3529
  41   0.0000       0.088153         2.3988

MULLIKEN ATOMIC CHARGES
-----------------------
   0 C :   -0.490329
   1 C :   -0.020448
   2 C :   -0.498947
   3 C :   -0.441129
   4 C :    0.340130
   5 C :   -0.263359
   6 N :   -0.146315
   7 C :   -0.070846
   8 C :   -0.053978
   9 N :   -0.182100
  10 H :    0.136409
  11 H :    0.150183
  12 H :    0.157322
  13 H :    0.162893
  14 H :    0.146057
  15 H :    0.152773
  16 H :    0.152487
  17 H :    0.177991
  18 H :    0.181416
  19 H :    0.136741
  20 H :    0.135693
  21 H :    0.137356
Sum of atomic charges:    0.0000000

LOEWDIN ATOMIC CHARGES
----------------------
   0 C :   -0.415264
   1 C :   -0.238496
   2 C :   -0.412622
   3 C :   -0.241227
   4 C :    0.157599
   5 C :    0.098260
   6 N :   -0.570560
   7 C :    0.085829
   8 C :    0.099953
   9 N :   -0.575679
  10 H :    0.150392
  11 H :    0.154673
  12 H :    0.154422
  13 H :    0.160552
  14 H :    0.154246
  15 H :    0.155304
  16 H :    0.154774
  17 H :    0.179534
  18 H :    0.185332
  19 H :    0.190091
  20 H :    0.186429
  21 H :    0.186458

  Mayer bond orders larger than 0.100000
B(  0-C ,  1-C ) :   0.9103 B(  0-C , 10-H ) :   0.9670 B(  0-C , 11-H ) :   0.9738
B(  0-C , 12-H ) :   0.9888 B(  1-C ,  2-C ) :   0.9004 B(  1-C ,  3-C ) :   0.7748
B(  1-C , 13-H ) :   0.9663 B(  2-C , 14-H ) :   0.9761 B(  2-C , 15-H ) :   0.9847
B(  2-C , 16-H ) :   0.9777 B(  3-C ,  4-C ) :   0.9062 B(  3-C , 17-H ) :   0.9405
B(  3-C , 18-H ) :   1.0097 B(  4-C ,  5-C ) :   1.2745 B(  4-C ,  9-N ) :   1.2461
B(  5-C ,  6-N ) :   1.4778 B(  5-C ,  8-C ) :   0.1182 B(  5-C , 19-H ) :   0.9778
B(  6-N ,  7-C ) :   1.4282 B(  7-C ,  8-C ) :   1.3006 B(  7-C , 20-H ) :   0.9712
B(  8-C ,  9-N ) :   1.4374 B(  8-C , 21-H ) :   0.9664

Dispersion correction           -0.007277450
FINAL SINGLE POINT ENERGY      -421.447164909577

DIPOLE MOMENT
-------------

Method             : SCF
Type of density    : Electron Density
Multiplicity       :   1
Irrep              :   0
Energy             :  -421.4526990864953291 Eh
Relativity type    :
Basis              : AO
                                X                 Y                 Z
Electronic contribution:     14.457595847       0.459797688      -1.348973322
Nuclear contribution   :    -14.797122922      -0.401524993       1.307715796
                        -----------------------------------------
Total Dipole Moment    :     -0.339527075       0.058272695      -0.041257527
                        -----------------------------------------
Magnitude (a.u.)       :      0.346953203
Magnitude (Debye)      :      0.881884958

Rotational constants in cm-1:             0.106825             0.025113             0.021779
Rotational constants in MHz :          3202.521534           752.862487           652.920155

                             ****ORCA TERMINATED NORMALLY****
TOTAL RUN TIME: 0 days 0 hours 0 minutes 35 seconds 530 msec
