                         Program Version 6.0.0  -   RELEASE  -
|  1> ! r2scan-3c def2/J RI DEFGRID2 scfconv6 printgap
|  2> %output
|  3>     printlevel normal
|  4> end
|  5> %cpcm
|  6>     smd true
|  7>     smdsolvent "water"
|  8> end
|  9> * xyz 0 1
| 10> C -2.601738096 -0.3009530853 1.5334532462
| 11> C -2.1056716629 -0.3238981542 0.0881598087
| 12> C -3.2927164465 -0.1850978169 -0.8641009894
| 13> C -1.0843007428 0.8003280309 -0.1731790624
| 14> C 0.3482261008 0.3691822243 -0.1275444768
| 15> C 0.8589856674 -0.5426904572 0.7998953538
| 16> N 2.1330144228 -0.8989371733 0.8155936922
| 17> C 2.9280854237 -0.3497300522 -0.0943726195
| 18> C 2.4354403492 0.556868287 -1.0208936429
| 19> N 1.158857961 0.9091506959 -1.0372581616
| 20> H -1.7763345939 -0.3491966987 2.2389058438
| 21> H -3.2604662515 -1.1456272356 1.7206871696
| 22> H -3.1583560013 0.614415282 1.7224441476
| 23> H -1.6239572449 -1.2888388044 -0.1057661295
| 24> H -4.021949333 -0.9692134942 -0.6751026556
| 25> H -3.779099623 0.7774414877 -0.7238440109
| 26> H -2.9674215868 -0.2625365732 -1.8987297345
| 27> H -1.2246874049 1.5950679304 0.5639413022
| 28> H -1.2479441697 1.2429052112 -1.1565045753
| 29> H 0.2371464159 -1.0059198314 1.5513552183
| 30> H 3.9653923603 -0.6489409794 -0.0709421476
| 31> H 3.0660855593 1.0123957214 -1.7712457811
| 32> *
| 33>
| 34>                          ****END OF INPUT****

CARTESIAN COORDINATES (ANGSTROEM)
---------------------------------
  C     -2.601738   -0.300953    1.533453
  C     -2.105672   -0.323898    0.088160
  C     -3.292716   -0.185098   -0.864101
  C     -1.084301    0.800328   -0.173179
  C      0.348226    0.369182   -0.127544
  C      0.858986   -0.542690    0.799895
  N      2.133014   -0.898937    0.815594
  C      2.928085   -0.349730   -0.094373
  C      2.435440    0.556868   -1.020894
  N      1.158858    0.909151   -1.037258
  H     -1.776335   -0.349197    2.238906
  H     -3.260466   -1.145627    1.720687
  H     -3.158356    0.614415    1.722444
  H     -1.623957   -1.288839   -0.105766
  H     -4.021949   -0.969213   -0.675103
  H     -3.779100    0.777441   -0.723844
  H     -2.967422   -0.262537   -1.898730
  H     -1.224687    1.595068    0.563941
  H     -1.247944    1.242905   -1.156505
  H      0.237146   -1.005920    1.551355
  H      3.965392   -0.648941   -0.070942
  H      3.066086    1.012396   -1.771246

 Total Charge           Charge          ....    0
 Multiplicity           Mult            ....    1
 Number of Electrons    NEL             ....   74
 Basis Dimension        Dim             ....  260

ORBITAL ENERGIES
----------------

  NO   OCC          E(Eh)            E(eV)
   0   2.0000     -14.174175      -385.6989
   1   2.0000     -14.170286      -385.5931
   2   2.0000     -10.081523      -274.3322
   3   2.0000     -10.071745      -274.0661
   4   2.0000     -10.069987      -274.0183
   5   2.0000     -10.069127      -273.9949
   6   2.0000     -10.032566      -273.0000
   7   2.0000     -10.026213      -272.8271
   8   2.0000     -10.008388      -272.3421
   9   2.0000     -10.008182      -272.3365
  10   2.0000      -0.952838       -25.9280
  11   2.0000      -0.879092       -23.9213
  12   2.0000      -0.782800       -21.3011
  13   2.0000      -0.741325       -20.1725
  14   2.0000      -0.669665       -18.2225
  15   2.0000      -0.644245       -17.5308
  16   2.0000      -0.624980       -17.0066
  17   2.0000      -0.594104       -16.1664
  18   2.0000      -0.529641       -14.4123
  19   2.0000      -0.488121       -13.2825
  20   2.0000      -0.484813       -13.1924
  21   2.0000      -0.443322       -12.0634
  22   2.0000      -0.420749       -11.4492
  23   2.0000      -0.413580       -11.2541
  24   2.0000      -0.392212       -10.6726
  25   2.0000      -0.390187       -10.6175
  26   2.0000      -0.374590       -10.1931
  27   2.0000      -0.352461        -9.5909
  28   2.0000      -0.348418        -9.4809
  29   2.0000      -0.330951        -9.0056
  30   2.0000      -0.310776        -8.4566
  31   2.0000      -0.298050        -8.1103
  32   2.0000      -0.294140        -8.0040
  33   2.0000      -0.289162        -7.8685
  34   2.0000      -0.276471        -7.5232
  35   2.0000      -0.244041        -6.6407
  36   2.0000      -0.217466        -5.9176
  37   0.0000      -0.076525        -2.0824
  38   0.0000      -0.046460        -1.2642
  39   0.0000       0.075744         2.0611
  40   0.0000       0.089760         2.4425
  41   0.0000       0.098150         2.6708

MULLIKEN ATOMIC CHARGES
-----------------------
   0 C :   -0.534841
   1 C :   -0.003017
   2 C :   -0.540722
   3 C :   -0.451422
   4 C :    0.336060
   5 C :   -0.254382
   6 N :   -0.199338
   7 C :   -0.084758
   8 C :   -0.062515
   9 N :   -0.227782
  10 H :    0.153658
  11 H :    0.159638
  12 H :    0.167929
  13 H :    0.171126
  14 H :    0.157744
  15 H :    0.164205
  16 H :    0.160362
  17 H :    0.198929
  18 H :    0.183390
  19 H :    0.168970
  20 H :    0.167402
  21 H :    0.169364
Sum of atomic charges:    0.0000000

LOEWDIN ATOMIC CHARGES
----------------------
   0 C :   -0.421775
   1 C :   -0.233709
   2 C :   -0.420159
   3 C :   -0.241855
   4 C :    0.160955
   5 C :    0.103369
   6 N :   -0.606139
   7 C :    0.086878
   8 C :    0.102766
   9 N :   -0.605440
  10 H :    0.155533
  11 H :    0.156334
  12 H :    0.156959
  13 H :    0.163433
  14 H :    0.156831
  15 H :    0.157994
  16 H :    0.156123
  17 H :    0.187717
  18 H :    0.184751
  19 H :    0.202486
  20 H :    0.198242
  21 H :    0.198704

  Mayer bond orders larger than 0.100000
B(  0-C ,  1-C ) :   0.9044 B(  0-C , 10-H ) :   0.9643 B(  0-C , 11-H ) :   0.9729
B(  0-C , 12-H ) :   0.9865 B(  1-C ,  2-C ) :   0.8879 B(  1-C ,  3-C ) :   0.7692
B(  1-C , 13-H ) :   0.9691 B(  2-C , 14-H ) :   0.9747 B(  2-C , 15-H ) :   0.9829
B(  2-C , 16-H ) :   0.9755 B(  3-C ,  4-C ) :   0.9020 B(  3-C ,  9-N ) :   0.1148
B(  3-C , 17-H ) :   0.9303 B(  3-C , 18-H ) :   1.0161 B(  4-C ,  5-C ) :   1.2948
B(  4-C ,  9-N ) :   1.2433 B(  5-C ,  6-N ) :   1.4868 B(  5-C ,  8-C ) :   0.1186
B(  5-C , 19-H ) :   0.9591 B(  6-N ,  7-C ) :   1.4204 B(  7-C ,  8-C ) :   1.3149
B(  7-C , 20-H ) :   0.9610 B(  8-C ,  9-N ) :   1.4279 B(  8-C , 21-H ) :   0.9559

Dispersion correction           -0.007277450
FINAL SINGLE POINT ENERGY      -421.456153382993

DIPOLE MOMENT
-------------

Method             : SCF
Type of density    : Electron Density
Multiplicity       :   1
Irrep              :   0
Energy             :  -421.4616875599110131 Eh
Relativity type    :
Basis              : AO
                                X                 Y                 Z
Electronic contribution:     14.400720058       0.468554146      -1.306086915
Nuclear contribution   :    -14.797122922      -0.401524993       1.307715796
                        -----------------------------------------
Total Dipole Moment    :     -0.396402864       0.067029152       0.001628881
                        -----------------------------------------
Magnitude (a.u.)       :      0.402033321
Magnitude (Debye)      :      1.021887491

Rotational constants in cm-1:             0.106825             0.025113             0.021779
Rotational constants in MHz :          3202.521534           752.862487           652.920155

                             ****ORCA TERMINATED NORMALLY****
TOTAL RUN TIME: 0 days 0 hours 0 minutes 49 seconds 17 msec
