                         Program Version 6.0.0  -   RELEASE  -
|  1> ! r2scan-3c def2/J RI DEFGRID2 scfconv6 printgap
|  2> %output
|  3>     printlevel normal
|  4> end
|  5> * xyz 0 1
|  6> C -2.8351530347 -2.2220121375 1.3394472274
|  7> C -3.3732372729 -0.8765948196 0.8666599428
|  8> C -2.7715232658 -0.3246511203 -0.4353379603
|  9> H -3.3986241858 0.5257619762 -0.7291279088
| 10> C -2.7580347599 -1.3166628573 -1.590001747
| 11> N -1.4474385069 0.2958905044 -0.2009677085
| 12> C -0.2731611343 -0.4531328105 -0.1814588748
| 13> O -0.2609746787 -1.6647194134 -0.2905860739
| 14> C 0.9433063966 0.3236631604 -0.0175613691
| 15> C 0.9464772517 1.6649102692 0.1702309496
| 16> N -0.2719175425 2.2795707637 0.1932357207
| 17> C -1.4783116564 1.6561632678 0.0221191536
| 18> O -2.5104438614 2.3045993328 0.0641345486
| 19> C 2.1334560862 2.534268074 0.3573913111
| 20> Br 2.5381454191 -0.7108816246 -0.0576724322
| 21> H -1.7545160812 -2.2066626427 1.4465699724
| 22> H -3.2725552826 -2.4675219056 2.3040129716
| 23> H -3.0938882719 -3.0086650574 0.6371353783
| 24> H -4.4489147767 -0.966950028 0.7068142249
| 25> H -3.2226357903 -0.1242991584 1.6454510689
| 26> H -2.3808801624 -0.8367512566 -2.4904669231
| 27> H -2.1390262552 -2.1802042936 -1.372244621
| 28> H -3.77743508 -1.6442959795 -1.7707153624
| 29> H -0.319477588 3.2820114641 0.3476513241
| 30> H 2.1630727175 3.2896248072 -0.4252231788
| 31> H 3.0498804849 1.9537636705 0.3238217226
| 32> H 2.0710110557 3.0434000587 1.3169267666
| 33> *
| 34>
| 35>                          ****END OF INPUT****

CARTESIAN COORDINATES (ANGSTROEM)
---------------------------------
  C     -2.835153   -2.222012    1.339447
  C     -3.373237   -0.876595    0.866660
  C     -2.771523   -0.324651   -0.435338
  H     -3.398624    0.525762   -0.729128
  C     -2.758035   -1.316663   -1.590002
  N     -1.447439    0.295891   -0.200968
  C     -0.273161   -0.453133   -0.181459
  O     -0.260975   -1.664719   -0.290586
  C      0.943306    0.323663   -0.017561
  C      0.946477    1.664910    0.170231
  N     -0.271918    2.279571    0.193236
  C     -1.478312    1.656163    0.022119
  O     -2.510444    2.304599    0.064135
  C      2.133456    2.534268    0.357391
  Br     2.538145   -0.710882   -0.057672
  H     -1.754516   -2.206663    1.446570
  H     -3.272555   -2.467522    2.304013
  H     -3.093888   -3.008665    0.637135
  H     -4.448915   -0.966950    0.706814
  H     -3.222636   -0.124299    1.645451
  H     -2.380880   -0.836751   -2.490467
  H     -2.139026   -2.180204   -1.372245
  H     -3.777435   -1.644296   -1.770715
  H     -0.319478    3.282011    0.347651
  H      2.163073    3.289625   -0.425223
  H      3.049880    1.953764    0.323822
  H      2.071011    3.043400    1.316927

 Total Charge           Charge          ....    0
 Multiplicity           Mult            ....    1
 Number of Electrons    NEL             ....  132
 Basis Dimension        Dim             ....  368

ORBITAL ENERGIES
----------------

  NO   OCC          E(Eh)            E(eV)
   0   2.0000    -482.234888    -13122.2784
   1   2.0000     -62.306094     -1695.4350
   2   2.0000     -56.086697     -1526.1966
   3   2.0000     -56.083856     -1526.1193
   4   2.0000     -56.083716     -1526.1155
   5   2.0000     -18.932950      -515.1918
   6   2.0000     -18.927556      -515.0450
   7   2.0000     -14.239794      -387.4845
   8   2.0000     -14.228946      -387.1893
   9   2.0000     -10.182358      -277.0760
  10   2.0000     -10.153642      -276.2946
  11   2.0000     -10.129982      -275.6508
  12   2.0000     -10.100950      -274.8608
  13   2.0000     -10.078724      -274.2560
  14   2.0000     -10.068907      -273.9889
  15   2.0000     -10.029994      -272.9300
  16   2.0000     -10.016991      -272.5762
  17   2.0000     -10.007999      -272.3315
  18   2.0000      -8.637933      -235.0501
  19   2.0000      -6.446187      -175.4097
  20   2.0000      -6.431609      -175.0130
  21   2.0000      -6.430913      -174.9940
  22   2.0000      -2.543599       -69.2148
  23   2.0000      -2.539984       -69.1165
  24   2.0000      -2.539502       -69.1034
  25   2.0000      -2.528663       -68.8084
  26   2.0000      -2.528660       -68.8083
  27   2.0000      -1.054324       -28.6896
  28   2.0000      -1.016763       -27.6675
  29   2.0000      -0.958552       -26.0835
  30   2.0000      -0.919272       -25.0147
  31   2.0000      -0.813859       -22.1462
  32   2.0000      -0.774179       -21.0665
  33   2.0000      -0.750213       -20.4143
  34   2.0000      -0.707123       -19.2418
  35   2.0000      -0.691025       -18.8038
  36   2.0000      -0.641836       -17.4652
  37   2.0000      -0.638491       -17.3742
  38   2.0000      -0.605530       -16.4773
  39   2.0000      -0.559035       -15.2121
  40   2.0000      -0.553550       -15.0629
  41   2.0000      -0.515214       -14.0197
  42   2.0000      -0.474899       -12.9226
  43   2.0000      -0.453296       -12.3348
  44   2.0000      -0.438628       -11.9357
  45   2.0000      -0.437981       -11.9181
  46   2.0000      -0.424532       -11.5521
  47   2.0000      -0.411509       -11.1977
  48   2.0000      -0.408134       -11.1059
  49   2.0000      -0.403425       -10.9777
  50   2.0000      -0.393263       -10.7012
  51   2.0000      -0.381966       -10.3938
  52   2.0000      -0.378984       -10.3127
  53   2.0000      -0.367234        -9.9929
  54   2.0000      -0.355979        -9.6867
  55   2.0000      -0.347324        -9.4512
  56   2.0000      -0.337467        -9.1829
  57   2.0000      -0.312815        -8.5121
  58   2.0000      -0.304849        -8.2954
  59   2.0000      -0.302023        -8.2185
  60   2.0000      -0.291495        -7.9320
  61   2.0000      -0.269379        -7.3302
  62   2.0000      -0.257643        -7.0108
  63   2.0000      -0.250618        -6.8197
  64   2.0000      -0.233228        -6.3464
  65   2.0000      -0.219346        -5.9687
  66   0.0000      -0.074128        -2.0171
  67   0.0000      -0.033720        -0.9176
  68   0.0000      -0.025041        -0.6814
  69   0.0000       0.037922         1.0319
  70   0.0000       0.063786         1.7357

MULLIKEN ATOMIC CHARGES
-----------------------
   0 C :   -0.477578
   1 C :   -0.328850
   2 C :   -0.031707
   3 H :    0.204987
   4 C :   -0.524684
   5 N :    0.174925
   6 C :    0.208535
   7 O :   -0.430253
   8 C :   -0.189632
   9 C :    0.217295
  10 N :   -0.033921
  11 C :    0.248249
  12 O :   -0.457330
  13 C :   -0.605943
  14 Br:   -0.081431
  15 H :    0.179209
  16 H :    0.142381
  17 H :    0.150320
  18 H :    0.149943
  19 H :    0.151626
  20 H :    0.149962
  21 H :    0.207531
  22 H :    0.153583
  23 H :    0.281935
  24 H :    0.176903
  25 H :    0.187747
  26 H :    0.176198
Sum of atomic charges:   -0.0000000

LOEWDIN ATOMIC CHARGES
----------------------
   0 C :   -0.414063
   1 C :   -0.264883
   2 C :    0.043196
   3 H :    0.222919
   4 C :   -0.366730
   5 N :   -0.616818
   6 C :    0.356650
   7 O :   -0.483729
   8 C :   -0.191406
   9 C :    0.153675
  10 N :   -0.518296
  11 C :    0.458031
  12 O :   -0.424871
  13 C :   -0.350911
  14 Br:    0.258583
  15 H :    0.171970
  16 H :    0.148538
  17 H :    0.154253
  18 H :    0.160407
  19 H :    0.165574
  20 H :    0.160830
  21 H :    0.186332
  22 H :    0.159292
  23 H :    0.299451
  24 H :    0.175977
  25 H :    0.180282
  26 H :    0.175746

  Mayer bond orders larger than 0.100000
B(  0-C ,  1-C ) :   0.9021 B(  0-C , 15-H ) :   0.9704 B(  0-C , 16-H ) :   0.9692
B(  0-C , 17-H ) :   0.9749 B(  1-C ,  2-C ) :   0.8773 B(  1-C , 18-H ) :   0.9759
B(  1-C , 19-H ) :   0.9851 B(  2-C ,  3-H ) :   0.9539 B(  2-C ,  4-C ) :   0.8473
B(  2-C ,  5-N ) :   0.8516 B(  4-C , 20-H ) :   0.9730 B(  4-C , 21-H ) :   0.9679
B(  4-C , 22-H ) :   0.9683 B(  5-N ,  6-C ) :   1.1160 B(  5-N , 11-C ) :   1.1128
B(  6-C ,  7-O ) :   1.8941 B(  6-C ,  8-C ) :   0.9756 B(  6-C , 14-Br) :  -0.1214
B(  8-C ,  9-C ) :   1.4967 B(  8-C , 14-Br) :   1.2097 B(  9-C , 10-N ) :   1.1441
B(  9-C , 13-C ) :   0.8436 B( 10-N , 11-C ) :   1.0567 B( 10-N , 23-H ) :   0.9056
B( 11-C , 12-O ) :   1.8946 B( 13-C , 24-H ) :   0.9670 B( 13-C , 25-H ) :   0.9550
B( 13-C , 26-H ) :   0.9670

Dispersion correction           -0.011467620
FINAL SINGLE POINT ENERGY     -3184.781078562681

DIPOLE MOMENT
-------------

Method             : SCF
Type of density    : Electron Density
Multiplicity       :   1
Irrep              :   0
Energy             : -3184.7912371653974333 Eh
Relativity type    :
Basis              : AO
                                X                 Y                 Z
Electronic contribution:     43.427502884      -3.964592790      -2.182434728
Nuclear contribution   :    -42.872137981       5.366252081       2.352721603
                        -----------------------------------------
Total Dipole Moment    :      0.555364903       1.401659290       0.170286875
                        -----------------------------------------
Magnitude (a.u.)       :      1.517259557
Magnitude (Debye)      :      3.856567306

Rotational constants in cm-1:             0.026445             0.012300             0.009249
Rotational constants in MHz :           792.814032           368.749662           277.263861

                             ****ORCA TERMINATED NORMALLY****
TOTAL RUN TIME: 0 days 0 hours 1 minutes 10 seconds 262 msec
