                         Program Version 6.0.0  -   RELEASE  -
|  1> ! r2scan-3c def2/J RI DEFGRID2 scfconv6 printgap
|  2> %output
|  3>     printlevel normal
|  4> end
|  5> %cpcm
|  6>     smd true
|  7>     smdsolvent "water"
|  8> end
|  9> * xyz 0 1
| 10> C -2.8351530347 -2.2220121375 1.3394472274
| 11> C -3.3732372729 -0.8765948196 0.8666599428
| 12> C -2.7715232658 -0.3246511203 -0.4353379603
| 13> H -3.3986241858 0.5257619762 -0.7291279088
| 14> C -2.7580347599 -1.3166628573 -1.590001747
| 15> N -1.4474385069 0.2958905044 -0.2009677085
| 16> C -0.2731611343 -0.4531328105 -0.1814588748
| 17> O -0.2609746787 -1.6647194134 -0.2905860739
| 18> C 0.9433063966 0.3236631604 -0.0175613691
| 19> C 0.9464772517 1.6649102692 0.1702309496
| 20> N -0.2719175425 2.2795707637 0.1932357207
| 21> C -1.4783116564 1.6561632678 0.0221191536
| 22> O -2.5104438614 2.3045993328 0.0641345486
| 23> C 2.1334560862 2.534268074 0.3573913111
| 24> Br 2.5381454191 -0.7108816246 -0.0576724322
| 25> H -1.7545160812 -2.2066626427 1.4465699724
| 26> H -3.2725552826 -2.4675219056 2.3040129716
| 27> H -3.0938882719 -3.0086650574 0.6371353783
| 28> H -4.4489147767 -0.966950028 0.7068142249
| 29> H -3.2226357903 -0.1242991584 1.6454510689
| 30> H -2.3808801624 -0.8367512566 -2.4904669231
| 31> H -2.1390262552 -2.1802042936 -1.372244621
| 32> H -3.77743508 -1.6442959795 -1.7707153624
| 33> H -0.319477588 3.2820114641 0.3476513241
| 34> H 2.1630727175 3.2896248072 -0.4252231788
| 35> H 3.0498804849 1.9537636705 0.3238217226
| 36> H 2.0710110557 3.0434000587 1.3169267666
| 37> *
| 38>
| 39>                          ****END OF INPUT****

CARTESIAN COORDINATES (ANGSTROEM)
---------------------------------
  C     -2.835153   -2.222012    1.339447
  C     -3.373237   -0.876595    0.866660
  C     -2.771523   -0.324651   -0.435338
  H     -3.398624    0.525762   -0.729128
  C     -2.758035   -1.316663   -1.590002
  N     -1.447439    0.295891   -0.200968
  C     -0.273161   -0.453133   -0.181459
  O     -0.260975   -1.664719   -0.290586
  C      0.943306    0.323663   -0.017561
  C      0.946477    1.664910    0.170231
  N     -0.271918    2.279571    0.193236
  C     -1.478312    1.656163    0.022119
  O     -2.510444    2.304599    0.064135
  C      2.133456    2.534268    0.357391
  Br     2.538145   -0.710882   -0.057672
  H     -1.754516   -2.206663    1.446570
  H     -3.272555   -2.467522    2.304013
  H     -3.093888   -3.008665    0.637135
  H     -4.448915   -0.966950    0.706814
  H     -3.222636   -0.124299    1.645451
  H     -2.380880   -0.836751   -2.490467
  H     -2.139026   -2.180204   -1.372245
  H     -3.777435   -1.644296   -1.770715
  H     -0.319478    3.282011    0.347651
  H      2.163073    3.289625   -0.425223
  H      3.049880    1.953764    0.323822
  H      2.071011    3.043400    1.316927

 Total Charge           Charge          ....    0
 Multiplicity           Mult            ....    1
 Number of Electrons    NEL             ....  132
 Basis Dimension        Dim             ....  368

ORBITAL ENERGIES
----------------

  NO   OCC          E(Eh)            E(eV)
   0   2.0000    -482.233807    -13122.2490
   1   2.0000     -62.305068     -1695.4071
   2   2.0000     -56.085626     -1526.1675
   3   2.0000     -56.082845     -1526.0918
   4   2.0000     -56.082716     -1526.0883
   5   2.0000     -18.938713      -515.3486
   6   2.0000     -18.932358      -515.1757
   7   2.0000     -14.228001      -387.1636
   8   2.0000     -14.226772      -387.1301
   9   2.0000     -10.183261      -277.1006
  10   2.0000     -10.156144      -276.3627
  11   2.0000     -10.120245      -275.3859
  12   2.0000     -10.093720      -274.6641
  13   2.0000     -10.075258      -274.1617
  14   2.0000     -10.040112      -273.2054
  15   2.0000     -10.025087      -272.7965
  16   2.0000     -10.012727      -272.4601
  17   2.0000     -10.007200      -272.3097
  18   2.0000      -8.636967      -235.0238
  19   2.0000      -6.444992      -175.3771
  20   2.0000      -6.430766      -174.9900
  21   2.0000      -6.430067      -174.9710
  22   2.0000      -2.542475       -69.1843
  23   2.0000      -2.538946       -69.0882
  24   2.0000      -2.538462       -69.0751
  25   2.0000      -2.527880       -68.7871
  26   2.0000      -2.527876       -68.7870
  27   2.0000      -1.055010       -28.7083
  28   2.0000      -1.022264       -27.8172
  29   2.0000      -0.952056       -25.9067
  30   2.0000      -0.916316       -24.9342
  31   2.0000      -0.807208       -21.9652
  32   2.0000      -0.767712       -20.8905
  33   2.0000      -0.738896       -20.1064
  34   2.0000      -0.700647       -19.0656
  35   2.0000      -0.684173       -18.6173
  36   2.0000      -0.636708       -17.3257
  37   2.0000      -0.629147       -17.1200
  38   2.0000      -0.600118       -16.3301
  39   2.0000      -0.552854       -15.0439
  40   2.0000      -0.547375       -14.8948
  41   2.0000      -0.503722       -13.7070
  42   2.0000      -0.468334       -12.7440
  43   2.0000      -0.447816       -12.1857
  44   2.0000      -0.438782       -11.9399
  45   2.0000      -0.429360       -11.6835
  46   2.0000      -0.416381       -11.3303
  47   2.0000      -0.411568       -11.1993
  48   2.0000      -0.399930       -10.8826
  49   2.0000      -0.395445       -10.7606
  50   2.0000      -0.385161       -10.4808
  51   2.0000      -0.377334       -10.2678
  52   2.0000      -0.371893       -10.1197
  53   2.0000      -0.363229        -9.8840
  54   2.0000      -0.352865        -9.6019
  55   2.0000      -0.344974        -9.3872
  56   2.0000      -0.327086        -8.9005
  57   2.0000      -0.311965        -8.4890
  58   2.0000      -0.303522        -8.2593
  59   2.0000      -0.299199        -8.1416
  60   2.0000      -0.290952        -7.9172
  61   2.0000      -0.269664        -7.3379
  62   2.0000      -0.262711        -7.1487
  63   2.0000      -0.253261        -6.8916
  64   2.0000      -0.239234        -6.5099
  65   2.0000      -0.215323        -5.8592
  66   0.0000      -0.066187        -1.8010
  67   0.0000      -0.029834        -0.8118
  68   0.0000      -0.024923        -0.6782
  69   0.0000       0.055705         1.5158
  70   0.0000       0.077022         2.0959

MULLIKEN ATOMIC CHARGES
-----------------------
   0 C :   -0.534864
   1 C :   -0.317928
   2 C :   -0.023019
   3 H :    0.207871
   4 C :   -0.564031
   5 N :    0.199958
   6 C :    0.194955
   7 O :   -0.489340
   8 C :   -0.191466
   9 C :    0.242318
  10 N :   -0.034657
  11 C :    0.278425
  12 O :   -0.538404
  13 C :   -0.615982
  14 Br:   -0.112601
  15 H :    0.173661
  16 H :    0.157413
  17 H :    0.165986
  18 H :    0.168685
  19 H :    0.160134
  20 H :    0.171189
  21 H :    0.192492
  22 H :    0.174548
  23 H :    0.338060
  24 H :    0.207851
  25 H :    0.181343
  26 H :    0.207402
Sum of atomic charges:   -0.0000000

LOEWDIN ATOMIC CHARGES
----------------------
   0 C :   -0.422702
   1 C :   -0.265270
   2 C :    0.045905
   3 H :    0.223838
   4 C :   -0.370728
   5 N :   -0.605015
   6 C :    0.358464
   7 O :   -0.540752
   8 C :   -0.201240
   9 C :    0.179271
  10 N :   -0.479276
  11 C :    0.465822
  12 O :   -0.482858
  13 C :   -0.344643
  14 Br:    0.238111
  15 H :    0.167115
  16 H :    0.153179
  17 H :    0.156271
  18 H :    0.166816
  19 H :    0.168171
  20 H :    0.166029
  21 H :    0.179337
  22 H :    0.166628
  23 H :    0.317903
  24 H :    0.191900
  25 H :    0.175984
  26 H :    0.191742

  Mayer bond orders larger than 0.100000
B(  0-C ,  1-C ) :   0.8823 B(  0-C , 15-H ) :   0.9745 B(  0-C , 16-H ) :   0.9657
B(  0-C , 17-H ) :   0.9752 B(  1-C ,  2-C ) :   0.8786 B(  1-C , 18-H ) :   0.9737
B(  1-C , 19-H ) :   0.9814 B(  2-C ,  3-H ) :   0.9500 B(  2-C ,  4-C ) :   0.8398
B(  2-C ,  5-N ) :   0.8409 B(  4-C , 20-H ) :   0.9729 B(  4-C , 21-H ) :   0.9708
B(  4-C , 22-H ) :   0.9636 B(  5-N ,  6-C ) :   1.1198 B(  5-N , 11-C ) :   1.1257
B(  6-C ,  7-O ) :   1.8612 B(  6-C ,  8-C ) :   0.9866 B(  8-C ,  9-C ) :   1.4745
B(  8-C , 14-Br) :   1.1373 B(  9-C , 10-N ) :   1.1499 B(  9-C , 13-C ) :   0.8569
B( 10-N , 11-C ) :   1.0827 B( 10-N , 23-H ) :   0.8807 B( 11-C , 12-O ) :   1.8278
B( 13-C , 24-H ) :   0.9466 B( 13-C , 25-H ) :   0.9666 B( 13-C , 26-H ) :   0.9471

Dispersion correction           -0.011467620
FINAL SINGLE POINT ENERGY     -3184.797382399579

DIPOLE MOMENT
-------------

Method             : SCF
Type of density    : Electron Density
Multiplicity       :   1
Irrep              :   0
Energy             : -3184.8075410022956930 Eh
Relativity type    :
Basis              : AO
                                X                 Y                 Z
Electronic contribution:     43.625420050      -3.152400797      -2.086537366
Nuclear contribution   :    -42.872137981       5.366252081       2.352721603
                        -----------------------------------------
Total Dipole Moment    :      0.753282069       2.213851284       0.266184237
                        -----------------------------------------
Magnitude (a.u.)       :      2.353598401
Magnitude (Debye)      :      5.982371708

Rotational constants in cm-1:             0.026445             0.012300             0.009249
Rotational constants in MHz :           792.814032           368.749662           277.263861

                             ****ORCA TERMINATED NORMALLY****
TOTAL RUN TIME: 0 days 0 hours 1 minutes 28 seconds 2 msec
