                         Program Version 6.0.0  -   RELEASE  -
|  1> ! r2scan-3c def2/J RI DEFGRID2 scfconv6 printgap
|  2> %output
|  3>     printlevel normal
|  4> end
|  5> * xyz 0 1
|  6> C -3.630917482 1.0395056526 -0.1923275553
|  7> O -2.2951487088 1.4779227895 -0.011933955
|  8> C -1.2386582214 0.6356774596 0.0101891021
|  9> C -1.183451158 -0.7537629241 -0.0731426977
| 10> C 0.0293225271 -1.4286346615 -0.0124007155
| 11> C 1.2188587483 -0.7419582166 0.1180533859
| 12> C 1.2209367776 0.6502883283 0.1730034751
| 13> C -0.0070891653 1.3174846735 0.1345633317
| 14> O -0.0471752164 2.6618894592 0.2232220666
| 15> O 2.3266450911 1.4555032732 0.3174368145
| 16> C 3.3450728287 1.3550975061 -0.6780487781
| 17> Cl 2.6798813419 -1.6635954544 0.2612915065
| 18> Cl -2.5836063786 -1.7749922129 -0.2331461736
| 19> H -4.2141025387 1.9582330904 -0.1983234613
| 20> H -3.9592963121 0.4035799071 0.6308569859
| 21> H -3.7576139158 0.5189186711 -1.1424375785
| 22> H 0.0355380903 -2.5049594619 -0.0588313161
| 23> H 0.8633555848 2.9926885319 0.3423957112
| 24> H 2.9163744776 1.4567895587 -1.676981836
| 25> H 3.8885710699 0.4134178851 -0.608214736
| 26> H 4.0202309701 2.1820808184 -0.4733744098
| 27> *
| 28>
| 29>                          ****END OF INPUT****

CARTESIAN COORDINATES (ANGSTROEM)
---------------------------------
  C     -3.630917    1.039506   -0.192328
  O     -2.295149    1.477923   -0.011934
  C     -1.238658    0.635677    0.010189
  C     -1.183451   -0.753763   -0.073143
  C      0.029323   -1.428635   -0.012401
  C      1.218859   -0.741958    0.118053
  C      1.220937    0.650288    0.173003
  C     -0.007089    1.317485    0.134563
  O     -0.047175    2.661889    0.223222
  O      2.326645    1.455503    0.317437
  C      3.345073    1.355098   -0.678049
  Cl     2.679881   -1.663595    0.261292
  Cl    -2.583606   -1.774992   -0.233146
  H     -4.214103    1.958233   -0.198323
  H     -3.959296    0.403580    0.630857
  H     -3.757614    0.518919   -1.142438
  H      0.035538   -2.504959   -0.058831
  H      0.863356    2.992689    0.342396
  H      2.916374    1.456790   -1.676982
  H      3.888571    0.413418   -0.608215
  H      4.020231    2.182081   -0.473374

 Total Charge           Charge          ....    0
 Multiplicity           Mult            ....    1
 Number of Electrons    NEL             ....  114
 Basis Dimension        Dim             ....  318

ORBITAL ENERGIES
----------------

  NO   OCC          E(Eh)            E(eV)
   0   2.0000    -101.227836     -2754.5494
   1   2.0000    -101.225829     -2754.4948
   2   2.0000     -18.999534      -517.0036
   3   2.0000     -18.994696      -516.8720
   4   2.0000     -18.991156      -516.7756
   5   2.0000     -10.116552      -275.2854
   6   2.0000     -10.110999      -275.1343
   7   2.0000     -10.109194      -275.0852
   8   2.0000     -10.107383      -275.0359
   9   2.0000     -10.104549      -274.9587
  10   2.0000     -10.091577      -274.6058
  11   2.0000     -10.086612      -274.4707
  12   2.0000     -10.051267      -273.5089
  13   2.0000      -9.383701      -255.3435
  14   2.0000      -9.381949      -255.2958
  15   2.0000      -7.130032      -194.0180
  16   2.0000      -7.128391      -193.9734
  17   2.0000      -7.119823      -193.7402
  18   2.0000      -7.119512      -193.7318
  19   2.0000      -7.118014      -193.6910
  20   2.0000      -7.117657      -193.6813
  21   2.0000      -1.059134       -28.8205
  22   2.0000      -1.043041       -28.3826
  23   2.0000      -1.022790       -27.8315
  24   2.0000      -0.874502       -23.7964
  25   2.0000      -0.843593       -22.9553
  26   2.0000      -0.796711       -21.6796
  27   2.0000      -0.734717       -19.9927
  28   2.0000      -0.722648       -19.6643
  29   2.0000      -0.668721       -18.1968
  30   2.0000      -0.660113       -17.9626
  31   2.0000      -0.605055       -16.4644
  32   2.0000      -0.574023       -15.6199
  33   2.0000      -0.529065       -14.3966
  34   2.0000      -0.515828       -14.0364
  35   2.0000      -0.493473       -13.4281
  36   2.0000      -0.471990       -12.8435
  37   2.0000      -0.454746       -12.3743
  38   2.0000      -0.446499       -12.1498
  39   2.0000      -0.441635       -12.0175
  40   2.0000      -0.429407       -11.6847
  41   2.0000      -0.406984       -11.0746
  42   2.0000      -0.400096       -10.8872
  43   2.0000      -0.395166       -10.7530
  44   2.0000      -0.383341       -10.4312
  45   2.0000      -0.360565        -9.8115
  46   2.0000      -0.351175        -9.5560
  47   2.0000      -0.343509        -9.3473
  48   2.0000      -0.333463        -9.0740
  49   2.0000      -0.322235        -8.7685
  50   2.0000      -0.313184        -8.5222
  51   2.0000      -0.300058        -8.1650
  52   2.0000      -0.282437        -7.6855
  53   2.0000      -0.275530        -7.4976
  54   2.0000      -0.268539        -7.3073
  55   2.0000      -0.211579        -5.7573
  56   2.0000      -0.197057        -5.3622
  57   0.0000      -0.035587        -0.9684
  58   0.0000      -0.034182        -0.9301
  59   0.0000      -0.022120        -0.6019
  60   0.0000       0.021083         0.5737
  61   0.0000       0.034306         0.9335

MULLIKEN ATOMIC CHARGES
-----------------------
   0 C :   -0.294859
   1 O :   -0.172358
   2 C :    0.172008
   3 C :    0.033477
   4 C :   -0.398540
   5 C :    0.119115
   6 C :    0.174510
   7 C :    0.130687
   8 O :   -0.371322
   9 O :   -0.275842
  10 C :   -0.277466
  11 Cl:   -0.142278
  12 Cl:   -0.140116
  13 H :    0.152623
  14 H :    0.159627
  15 H :    0.158760
  16 H :    0.174610
  17 H :    0.333330
  18 H :    0.148945
  19 H :    0.164366
  20 H :    0.150727
Sum of atomic charges:    0.0000000

LOEWDIN ATOMIC CHARGES
----------------------
   0 C :   -0.051240
   1 O :   -0.652876
   2 C :    0.197795
   3 C :   -0.157824
   4 C :   -0.199396
   5 C :   -0.154846
   6 C :    0.163654
   7 C :    0.247604
   8 O :   -0.443860
   9 O :   -0.707803
  10 C :   -0.050758
  11 Cl:    0.149390
  12 Cl:    0.142133
  13 H :    0.177841
  14 H :    0.167238
  15 H :    0.167269
  16 H :    0.188297
  17 H :    0.304864
  18 H :    0.166898
  19 H :    0.168026
  20 H :    0.177593

  Mayer bond orders larger than 0.100000
B(  0-C ,  1-O ) :   0.8390 B(  0-C , 13-H ) :   0.9671 B(  0-C , 14-H ) :   0.9592
B(  0-C , 15-H ) :   0.9602 B(  1-O ,  2-C ) :   1.0791 B(  2-C ,  3-C ) :   1.2722
B(  2-C ,  7-C ) :   1.2940 B(  2-C ,  8-O ) :   0.1202 B(  3-C ,  4-C ) :   1.2556
B(  3-C ,  7-C ) :  -0.1050 B(  3-C , 12-Cl) :   1.0064 B(  4-C ,  5-C ) :   1.2736
B(  4-C , 16-H ) :   0.9251 B(  5-C ,  6-C ) :   1.1700 B(  5-C , 11-Cl) :   1.0148
B(  6-C ,  7-C ) :   1.2669 B(  6-C ,  9-O ) :   1.0016 B(  7-C ,  8-O ) :   1.0401
B(  8-O , 17-H ) :   0.8397 B(  9-O , 10-C ) :   0.8523 B( 10-C , 18-H ) :   0.9607
B( 10-C , 19-H ) :   0.9539 B( 10-C , 20-H ) :   0.9698

Dispersion correction           -0.008929032
FINAL SINGLE POINT ENERGY     -1455.543463692286

DIPOLE MOMENT
-------------

Method             : SCF
Type of density    : Electron Density
Multiplicity       :   1
Irrep              :   0
Energy             : -1455.5512765200965077 Eh
Relativity type    :
Basis              : AO
                                X                 Y                 Z
Electronic contribution:      0.512880850     -11.252206394       2.584653815
Nuclear contribution   :     -0.323601179      11.660053099      -3.017953896
                        -----------------------------------------
Total Dipole Moment    :      0.189279670       0.407846706      -0.433300081
                        -----------------------------------------
Magnitude (a.u.)       :      0.624431493
Magnitude (Debye)      :      1.587178719

Rotational constants in cm-1:             0.031240             0.014865             0.010288
Rotational constants in MHz :           936.551727           445.652025           308.416612

                             ****ORCA TERMINATED NORMALLY****
TOTAL RUN TIME: 0 days 0 hours 0 minutes 52 seconds 234 msec
