                         Program Version 6.0.0  -   RELEASE  -
|  1> ! r2scan-3c def2/J RI DEFGRID2 scfconv6 printgap
|  2> %output
|  3>     printlevel normal
|  4> end
|  5> %cpcm
|  6>     smd true
|  7>     smdsolvent "water"
|  8> end
|  9> * xyz 0 1
| 10> C -3.630917482 1.0395056526 -0.1923275553
| 11> O -2.2951487088 1.4779227895 -0.011933955
| 12> C -1.2386582214 0.6356774596 0.0101891021
| 13> C -1.183451158 -0.7537629241 -0.0731426977
| 14> C 0.0293225271 -1.4286346615 -0.0124007155
| 15> C 1.2188587483 -0.7419582166 0.1180533859
| 16> C 1.2209367776 0.6502883283 0.1730034751
| 17> C -0.0070891653 1.3174846735 0.1345633317
| 18> O -0.0471752164 2.6618894592 0.2232220666
| 19> O 2.3266450911 1.4555032732 0.3174368145
| 20> C 3.3450728287 1.3550975061 -0.6780487781
| 21> Cl 2.6798813419 -1.6635954544 0.2612915065
| 22> Cl -2.5836063786 -1.7749922129 -0.2331461736
| 23> H -4.2141025387 1.9582330904 -0.1983234613
| 24> H -3.9592963121 0.4035799071 0.6308569859
| 25> H -3.7576139158 0.5189186711 -1.1424375785
| 26> H 0.0355380903 -2.5049594619 -0.0588313161
| 27> H 0.8633555848 2.9926885319 0.3423957112
| 28> H 2.9163744776 1.4567895587 -1.676981836
| 29> H 3.8885710699 0.4134178851 -0.608214736
| 30> H 4.0202309701 2.1820808184 -0.4733744098
| 31> *
| 32>
| 33>                          ****END OF INPUT****

CARTESIAN COORDINATES (ANGSTROEM)
---------------------------------
  C     -3.630917    1.039506   -0.192328
  O     -2.295149    1.477923   -0.011934
  C     -1.238658    0.635677    0.010189
  C     -1.183451   -0.753763   -0.073143
  C      0.029323   -1.428635   -0.012401
  C      1.218859   -0.741958    0.118053
  C      1.220937    0.650288    0.173003
  C     -0.007089    1.317485    0.134563
  O     -0.047175    2.661889    0.223222
  O      2.326645    1.455503    0.317437
  C      3.345073    1.355098   -0.678049
  Cl     2.679881   -1.663595    0.261292
  Cl    -2.583606   -1.774992   -0.233146
  H     -4.214103    1.958233   -0.198323
  H     -3.959296    0.403580    0.630857
  H     -3.757614    0.518919   -1.142438
  H      0.035538   -2.504959   -0.058831
  H      0.863356    2.992689    0.342396
  H      2.916374    1.456790   -1.676982
  H      3.888571    0.413418   -0.608215
  H      4.020231    2.182081   -0.473374

 Total Charge           Charge          ....    0
 Multiplicity           Mult            ....    1
 Number of Electrons    NEL             ....  114
 Basis Dimension        Dim             ....  318

ORBITAL ENERGIES
----------------

  NO   OCC          E(Eh)            E(eV)
   0   2.0000    -101.230213     -2754.6141
   1   2.0000    -101.226987     -2754.5263
   2   2.0000     -18.998518      -516.9760
   3   2.0000     -18.994229      -516.8592
   4   2.0000     -18.993507      -516.8396
   5   2.0000     -10.118648      -275.3424
   6   2.0000     -10.112342      -275.1708
   7   2.0000     -10.109609      -275.0965
   8   2.0000     -10.108778      -275.0738
   9   2.0000     -10.105511      -274.9849
  10   2.0000     -10.076040      -274.1830
  11   2.0000     -10.074609      -274.1441
  12   2.0000     -10.051276      -273.5091
  13   2.0000      -9.386124      -255.4094
  14   2.0000      -9.383142      -255.3283
  15   2.0000      -7.132418      -194.0830
  16   2.0000      -7.129576      -194.0056
  17   2.0000      -7.122301      -193.8077
  18   2.0000      -7.121908      -193.7970
  19   2.0000      -7.119258      -193.7249
  20   2.0000      -7.118798      -193.7123
  21   2.0000      -1.059929       -28.8421
  22   2.0000      -1.042392       -28.3649
  23   2.0000      -1.022191       -27.8152
  24   2.0000      -0.875860       -23.8334
  25   2.0000      -0.845252       -23.0005
  26   2.0000      -0.797788       -21.7089
  27   2.0000      -0.732894       -19.9431
  28   2.0000      -0.720531       -19.6067
  29   2.0000      -0.661532       -18.0012
  30   2.0000      -0.656460       -17.8632
  31   2.0000      -0.604814       -16.4578
  32   2.0000      -0.571054       -15.5392
  33   2.0000      -0.527898       -14.3648
  34   2.0000      -0.511387       -13.9155
  35   2.0000      -0.493346       -13.4246
  36   2.0000      -0.468866       -12.7585
  37   2.0000      -0.451419       -12.2837
  38   2.0000      -0.446705       -12.1555
  39   2.0000      -0.435020       -11.8375
  40   2.0000      -0.421826       -11.4785
  41   2.0000      -0.404150       -10.9975
  42   2.0000      -0.398273       -10.8376
  43   2.0000      -0.391012       -10.6400
  44   2.0000      -0.378992       -10.3129
  45   2.0000      -0.363693        -9.8966
  46   2.0000      -0.353369        -9.6156
  47   2.0000      -0.344656        -9.3786
  48   2.0000      -0.327502        -8.9118
  49   2.0000      -0.324141        -8.8203
  50   2.0000      -0.313668        -8.5353
  51   2.0000      -0.300718        -8.1830
  52   2.0000      -0.281545        -7.6612
  53   2.0000      -0.275035        -7.4841
  54   2.0000      -0.266196        -7.2436
  55   2.0000      -0.212352        -5.7784
  56   2.0000      -0.199983        -5.4418
  57   0.0000      -0.036876        -1.0035
  58   0.0000      -0.035831        -0.9750
  59   0.0000      -0.022674        -0.6170
  60   0.0000       0.019752         0.5375
  61   0.0000       0.040991         1.1154

MULLIKEN ATOMIC CHARGES
-----------------------
   0 C :   -0.318495
   1 O :   -0.212476
   2 C :    0.200257
   3 C :    0.008488
   4 C :   -0.395431
   5 C :    0.085055
   6 C :    0.206488
   7 C :    0.109323
   8 O :   -0.419758
   9 O :   -0.294551
  10 C :   -0.298770
  11 Cl:   -0.145891
  12 Cl:   -0.142238
  13 H :    0.174204
  14 H :    0.175813
  15 H :    0.176339
  16 H :    0.203426
  17 H :    0.375229
  18 H :    0.170978
  19 H :    0.167249
  20 H :    0.174760
Sum of atomic charges:    0.0000000

LOEWDIN ATOMIC CHARGES
----------------------
   0 C :   -0.048582
   1 O :   -0.678284
   2 C :    0.194808
   3 C :   -0.161240
   4 C :   -0.201460
   5 C :   -0.160034
   6 C :    0.168445
   7 C :    0.242189
   8 O :   -0.464025
   9 O :   -0.714879
  10 C :   -0.047193
  11 Cl:    0.144631
  12 Cl:    0.139893
  13 H :    0.186674
  14 H :    0.173797
  15 H :    0.174411
  16 H :    0.198187
  17 H :    0.320329
  18 H :    0.176127
  19 H :    0.168695
  20 H :    0.187512

  Mayer bond orders larger than 0.100000
B(  0-C ,  1-O ) :   0.8268 B(  0-C , 13-H ) :   0.9586 B(  0-C , 14-H ) :   0.9533
B(  0-C , 15-H ) :   0.9544 B(  1-O ,  2-C ) :   1.0557 B(  2-C ,  3-C ) :   1.2566
B(  2-C ,  7-C ) :   1.2864 B(  2-C ,  8-O ) :   0.1205 B(  3-C ,  4-C ) :   1.2535
B(  3-C ,  7-C ) :  -0.1030 B(  3-C , 12-Cl) :   1.0227 B(  4-C ,  5-C ) :   1.2767
B(  4-C , 16-H ) :   0.9238 B(  5-C ,  6-C ) :   1.1543 B(  5-C , 11-Cl) :   1.0281
B(  6-C ,  7-C ) :   1.2600 B(  6-C ,  9-O ) :   1.0005 B(  7-C ,  8-O ) :   1.0418
B(  8-O , 17-H ) :   0.8217 B(  9-O , 10-C ) :   0.8413 B( 10-C , 18-H ) :   0.9554
B( 10-C , 19-H ) :   0.9510 B( 10-C , 20-H ) :   0.9616

Dispersion correction           -0.008929032
FINAL SINGLE POINT ENERGY     -1455.549136312489

DIPOLE MOMENT
-------------

Method             : SCF
Type of density    : Electron Density
Multiplicity       :   1
Irrep              :   0
Energy             : -1455.5569491402991389 Eh
Relativity type    :
Basis              : AO
                                X                 Y                 Z
Electronic contribution:      0.622328701     -11.242332548       2.402246794
Nuclear contribution   :     -0.323601179      11.660053099      -3.017953896
                        -----------------------------------------
Total Dipole Moment    :      0.298727522       0.417720551      -0.615707102
                        -----------------------------------------
Magnitude (a.u.)       :      0.801762949
Magnitude (Debye)      :      2.037919460

Rotational constants in cm-1:             0.031240             0.014865             0.010288
Rotational constants in MHz :           936.551727           445.652025           308.416612

                             ****ORCA TERMINATED NORMALLY****
TOTAL RUN TIME: 0 days 0 hours 1 minutes 4 seconds 397 msec
