                         Program Version 6.0.0  -   RELEASE  -
|  1> ! pbe def2-sv(p) def2/J RI DEFGRID1 loosescf d4 GCP(DFT/SV(P)) printgap
|  2> %output
|  3>     printlevel normal
|  4> end
|  5> * xyz 0 1
|  6> C -3.5174529442 -0.5736835527 -1.8108114827
|  7> C -3.0037414889 -1.5838241293 -0.7924010459
|  8> C -2.4853868818 -0.9876813378 0.5253915258
|  9> H -2.0229853159 -1.8122218861 1.0827103154
| 10> C -3.5769010824 -0.3915508131 1.4036935351
| 11> N -1.3608846291 -0.0629781232 0.2776101651
| 12> C -0.0985041072 -0.6608201748 0.2686917955
| 13> O 0.0325566813 -1.8615160085 0.4421401291
| 14> C 1.0136177266 0.2368594328 0.0530483526
| 15> C 0.8479349186 1.5669580273 -0.155401219
| 16> N -0.433049846 2.0289487025 -0.1589215209
| 17> C -1.5691020041 1.2722934722 0.0239648928
| 18> O -2.6562671853 1.8111542304 -0.0432311235
| 19> C 1.918660383 2.5668945398 -0.3860062324
| 20> Br 2.7234052775 -0.5959348833 0.0766324315
| 21> H -3.941968126 -1.1000047562 -2.661692086
| 22> H -4.2832879853 0.0641180103 -1.3798372136
| 23> H -2.7128802347 0.0625425426 -2.1739307556
| 24> H -3.8049259102 -2.2770007626 -0.5342474124
| 25> H -2.1932964316 -2.1655549658 -1.2398405475
| 26> H -4.1397146902 0.3783950703 0.8881439003
| 27> H -4.2511507523 -1.1911295861 1.6962110498
| 28> H -3.1422612054 0.0421663117 2.3012066504
| 29> H -0.6022529658 3.0154262696 -0.3313693225
| 30> H 2.899635163 2.1055452351 -0.3330295351
| 31> H 1.8545881008 3.3546523665 0.3615383555
| 32> H 1.7940234735 3.020767868 -1.3671543214
| 33> *
| 34>
| 35>                          ****END OF INPUT****

CARTESIAN COORDINATES (ANGSTROEM)
---------------------------------
  C     -3.517453   -0.573684   -1.810811
  C     -3.003741   -1.583824   -0.792401
  C     -2.485387   -0.987681    0.525392
  H     -2.022985   -1.812222    1.082710
  C     -3.576901   -0.391551    1.403694
  N     -1.360885   -0.062978    0.277610
  C     -0.098504   -0.660820    0.268692
  O      0.032557   -1.861516    0.442140
  C      1.013618    0.236859    0.053048
  C      0.847935    1.566958   -0.155401
  N     -0.433050    2.028949   -0.158922
  C     -1.569102    1.272293    0.023965
  O     -2.656267    1.811154   -0.043231
  C      1.918660    2.566895   -0.386006
  Br     2.723405   -0.595935    0.076632
  H     -3.941968   -1.100005   -2.661692
  H     -4.283288    0.064118   -1.379837
  H     -2.712880    0.062543   -2.173931
  H     -3.804926   -2.277001   -0.534247
  H     -2.193296   -2.165555   -1.239841
  H     -4.139715    0.378395    0.888144
  H     -4.251151   -1.191130    1.696211
  H     -3.142261    0.042166    2.301207
  H     -0.602253    3.015426   -0.331369
  H      2.899635    2.105545   -0.333030
  H      1.854588    3.354652    0.361538
  H      1.794023    3.020768   -1.367154

 Total Charge           Charge          ....    0
 Multiplicity           Mult            ....    1
 Number of Electrons    NEL             ....  132
 Basis Dimension        Dim             ....  240

ORBITAL ENERGIES
----------------

  NO   OCC          E(Eh)            E(eV)
   0   2.0000    -480.941451    -13087.0822
   1   2.0000     -61.783174     -1681.2056
   2   2.0000     -55.713877     -1516.0517
   3   2.0000     -55.710741     -1515.9663
   4   2.0000     -55.710519     -1515.9603
   5   2.0000     -18.732621      -509.7405
   6   2.0000     -18.729738      -509.6621
   7   2.0000     -14.060782      -382.6133
   8   2.0000     -14.059852      -382.5880
   9   2.0000     -10.031523      -272.9716
  10   2.0000     -10.001571      -272.1566
  11   2.0000      -9.979206      -271.5480
  12   2.0000      -9.951628      -270.7976
  13   2.0000      -9.932954      -270.2894
  14   2.0000      -9.918164      -269.8870
  15   2.0000      -9.886073      -269.0137
  16   2.0000      -9.871775      -268.6246
  17   2.0000      -9.869923      -268.5743
  18   2.0000      -8.408541      -228.8080
  19   2.0000      -6.291010      -171.1871
  20   2.0000      -6.276050      -170.7800
  21   2.0000      -6.275523      -170.7657
  22   2.0000      -2.492024       -67.8114
  23   2.0000      -2.488362       -67.7118
  24   2.0000      -2.488016       -67.7024
  25   2.0000      -2.476757       -67.3960
  26   2.0000      -2.476737       -67.3954
  27   2.0000      -0.986323       -26.8392
  28   2.0000      -0.947598       -25.7855
  29   2.0000      -0.895543       -24.3690
  30   2.0000      -0.859582       -23.3904
  31   2.0000      -0.766203       -20.8494
  32   2.0000      -0.728296       -19.8179
  33   2.0000      -0.706889       -19.2354
  34   2.0000      -0.667414       -18.1613
  35   2.0000      -0.649715       -17.6796
  36   2.0000      -0.615804       -16.7569
  37   2.0000      -0.592627       -16.1262
  38   2.0000      -0.571255       -15.5446
  39   2.0000      -0.532305       -14.4847
  40   2.0000      -0.527295       -14.3484
  41   2.0000      -0.488683       -13.2977
  42   2.0000      -0.454870       -12.3776
  43   2.0000      -0.430501       -11.7145
  44   2.0000      -0.419591       -11.4176
  45   2.0000      -0.412051       -11.2125
  46   2.0000      -0.407003       -11.0751
  47   2.0000      -0.386375       -10.5138
  48   2.0000      -0.385776       -10.4975
  49   2.0000      -0.383908       -10.4467
  50   2.0000      -0.371233       -10.1018
  51   2.0000      -0.368494       -10.0272
  52   2.0000      -0.359422        -9.7804
  53   2.0000      -0.343817        -9.3557
  54   2.0000      -0.340933        -9.2773
  55   2.0000      -0.336295        -9.1511
  56   2.0000      -0.319501        -8.6941
  57   2.0000      -0.305712        -8.3188
  58   2.0000      -0.294871        -8.0238
  59   2.0000      -0.283939        -7.7264
  60   2.0000      -0.273589        -7.4447
  61   2.0000      -0.253145        -6.8884
  62   2.0000      -0.240247        -6.5375
  63   2.0000      -0.231639        -6.3032
  64   2.0000      -0.215184        -5.8554
  65   2.0000      -0.205534        -5.5929
  66   0.0000      -0.073118        -1.9896
  67   0.0000      -0.032252        -0.8776
  68   0.0000      -0.023104        -0.6287
  69   0.0000       0.017060         0.4642
  70   0.0000       0.042790         1.1644

MULLIKEN ATOMIC CHARGES
-----------------------
   0 C :   -0.272470
   1 C :   -0.158605
   2 C :   -0.068233
   3 H :    0.107854
   4 C :   -0.238888
   5 N :   -0.246229
   6 C :    0.180303
   7 O :   -0.177134
   8 C :   -0.192549
   9 C :    0.020136
  10 N :   -0.207076
  11 C :    0.171795
  12 O :   -0.207726
  13 C :   -0.214914
  14 Br:    0.009432
  15 H :    0.101627
  16 H :    0.112445
  17 H :    0.104196
  18 H :    0.089368
  19 H :    0.100239
  20 H :    0.139564
  21 H :    0.101895
  22 H :    0.100466
  23 H :    0.246009
  24 H :    0.135168
  25 H :    0.130531
  26 H :    0.132797
Sum of atomic charges:    0.0000000

LOEWDIN ATOMIC CHARGES
----------------------
   0 C :   -0.344558
   1 C :   -0.227203
   2 C :   -0.076772
   3 H :    0.136300
   4 C :   -0.342414
   5 N :   -0.004257
   6 C :    0.020845
   7 O :   -0.168138
   8 C :   -0.216576
   9 C :   -0.004786
  10 N :   -0.089003
  11 C :    0.038472
  12 O :   -0.187785
  13 C :   -0.334490
  14 Br:    0.137816
  15 H :    0.119809
  16 H :    0.122832
  17 H :    0.115390
  18 H :    0.122282
  19 H :    0.123061
  20 H :    0.129666
  21 H :    0.124010
  22 H :    0.122539
  23 H :    0.253980
  24 H :    0.140577
  25 H :    0.143585
  26 H :    0.144816

  Mayer bond orders larger than 0.100000
B(  0-C ,  1-C ) :   1.1733 B(  0-C , 15-H ) :   0.9462 B(  0-C , 16-H ) :   0.9474
B(  0-C , 17-H ) :   0.9419 B(  1-C ,  2-C ) :   1.0975 B(  1-C , 18-H ) :   0.9218
B(  1-C , 19-H ) :   0.9114 B(  2-C ,  3-H ) :   0.8736 B(  2-C ,  4-C ) :   1.1207
B(  2-C ,  5-N ) :   0.9101 B(  4-C , 20-H ) :   0.9230 B(  4-C , 21-H ) :   0.9374
B(  4-C , 22-H ) :   0.9437 B(  5-N ,  6-C ) :   1.0333 B(  5-N , 11-C ) :   1.0823
B(  6-C ,  7-O ) :   2.0799 B(  6-C ,  8-C ) :   1.0455 B(  8-C ,  9-C ) :   1.6287
B(  8-C , 14-Br) :   1.0547 B(  9-C , 10-N ) :   1.1868 B(  9-C , 13-C ) :   1.1593
B( 10-N , 11-C ) :   1.0864 B( 10-N , 23-H ) :   0.8386 B( 11-C , 12-O ) :   2.0239
B( 13-C , 24-H ) :   0.9087 B( 13-C , 25-H ) :   0.9196 B( 13-C , 26-H ) :   0.9190

Dispersion correction           -0.034369304
FINAL SINGLE POINT ENERGY     -3182.939165440312

DIPOLE MOMENT
-------------

Method             : SCF
Type of density    : Electron Density
Multiplicity       :   1
Irrep              :   0
Energy             : -3183.0312248096170151 Eh
Relativity type    :
Basis              : AO
                                X                 Y                 Z
Electronic contribution:     48.735227131      -7.403823352       3.928218934
Nuclear contribution   :    -48.364291976       8.824762579      -4.168052352
                        -----------------------------------------
Total Dipole Moment    :      0.370935155       1.420939227      -0.239833418
                        -----------------------------------------
Magnitude (a.u.)       :      1.488012515
Magnitude (Debye)      :      3.782227235

Rotational constants in cm-1:             0.031515             0.010891             0.009019
Rotational constants in MHz :           944.790076           326.500753           270.396832

                             ****ORCA TERMINATED NORMALLY****
TOTAL RUN TIME: 0 days 0 hours 0 minutes 18 seconds 420 msec
