                         Program Version 6.0.0  -   RELEASE  -
|  1> ! pbe def2-sv(p) def2/J RI DEFGRID1 loosescf d4 GCP(DFT/SV(P)) printgap
|  2> %output
|  3>     printlevel normal
|  4> end
|  5> * xyz 0 1
|  6> C 2.444428416 0.6366217467 -0.5272054633
|  7> C 1.0812204705 -0.0480146014 -0.3987029659
|  8> H 0.7619395235 -0.383145189 -1.3978236106
|  9> C 0.0506987324 0.9424601254 0.1563891375
| 10> C -1.416310307 0.4821469988 0.1816616794
| 11> C -1.8839834219 -0.050451944 -1.1716907259
| 12> C -1.6745088334 -0.5480200215 1.2786282914
| 13> O 1.1626994318 -1.1720778919 0.4635119633
| 14> H 3.1807149605 -0.0521886069 -0.9361193586
| 15> H 2.3724649502 1.4953120185 -1.187946679
| 16> H 2.7834355895 0.9706309103 0.4507508307
| 17> H 0.3500243927 1.1981329378 1.1748512814
| 18> H 0.1153558454 1.8456547241 -0.4534437211
| 19> H -2.0107362252 1.3749390931 0.4140010185
| 20> H -2.9638557697 -0.17894956 -1.1671066895
| 21> H -1.4318728474 -1.0167736092 -1.3799960343
| 22> H -1.6231874286 0.6409427576 -1.9698343116
| 23> H -2.7199927621 -0.8482526142 1.27598705
| 24> H -1.0549538088 -1.4265816543 1.1251627965
| 25> H -1.4368577333 -0.1319605026 2.2549591001
| 26> H 1.8860231844 -1.7414830876 0.1698268808
| 27> *
| 28>
| 29>                          ****END OF INPUT****

CARTESIAN COORDINATES (ANGSTROEM)
---------------------------------
  C      2.444428    0.636622   -0.527205
  C      1.081220   -0.048015   -0.398703
  H      0.761940   -0.383145   -1.397824
  C      0.050699    0.942460    0.156389
  C     -1.416310    0.482147    0.181662
  C     -1.883983   -0.050452   -1.171691
  C     -1.674509   -0.548020    1.278628
  O      1.162699   -1.172078    0.463512
  H      3.180715   -0.052189   -0.936119
  H      2.372465    1.495312   -1.187947
  H      2.783436    0.970631    0.450751
  H      0.350024    1.198133    1.174851
  H      0.115356    1.845655   -0.453444
  H     -2.010736    1.374939    0.414001
  H     -2.963856   -0.178950   -1.167107
  H     -1.431873   -1.016774   -1.379996
  H     -1.623187    0.640943   -1.969834
  H     -2.719993   -0.848253    1.275987
  H     -1.054954   -1.426582    1.125163
  H     -1.436858   -0.131961    2.254959
  H      1.886023   -1.741483    0.169827

 Total Charge           Charge          ....    0
 Multiplicity           Mult            ....    1
 Number of Electrons    NEL             ....   58
 Basis Dimension        Dim             ....  126

ORBITAL ENERGIES
----------------

  NO   OCC          E(Eh)            E(eV)
   0   2.0000     -18.741046      -509.9698
   1   2.0000      -9.936470      -270.3851
   2   2.0000      -9.886343      -269.0211
   3   2.0000      -9.877391      -268.7775
   4   2.0000      -9.876243      -268.7462
   5   2.0000      -9.866104      -268.4703
   6   2.0000      -9.853866      -268.1373
   7   2.0000      -0.918622       -24.9970
   8   2.0000      -0.724010       -19.7013
   9   2.0000      -0.676116       -18.3981
  10   2.0000      -0.607184       -16.5223
  11   2.0000      -0.598414       -16.2837
  12   2.0000      -0.539194       -14.6722
  13   2.0000      -0.479495       -13.0477
  14   2.0000      -0.459553       -12.5051
  15   2.0000      -0.414452       -11.2778
  16   2.0000      -0.392785       -10.6882
  17   2.0000      -0.382481       -10.4078
  18   2.0000      -0.366307        -9.9677
  19   2.0000      -0.358997        -9.7688
  20   2.0000      -0.334725        -9.1083
  21   2.0000      -0.328226        -8.9315
  22   2.0000      -0.317900        -8.6505
  23   2.0000      -0.310575        -8.4512
  24   2.0000      -0.293712        -7.9923
  25   2.0000      -0.276357        -7.5200
  26   2.0000      -0.274264        -7.4631
  27   2.0000      -0.250331        -6.8118
  28   2.0000      -0.213420        -5.8075
  29   0.0000       0.021166         0.5760
  30   0.0000       0.048095         1.3087
  31   0.0000       0.069383         1.8880
  32   0.0000       0.075493         2.0543
  33   0.0000       0.086651         2.3579

MULLIKEN ATOMIC CHARGES
-----------------------
   0 C :   -0.254731
   1 C :    0.002561
   2 H :    0.061660
   3 C :   -0.127554
   4 C :   -0.145942
   5 C :   -0.266944
   6 C :   -0.248680
   7 O :   -0.417260
   8 H :    0.090132
   9 H :    0.096480
  10 H :    0.103537
  11 H :    0.078385
  12 H :    0.077603
  13 H :    0.065584
  14 H :    0.097005
  15 H :    0.109503
  16 H :    0.092105
  17 H :    0.086242
  18 H :    0.117246
  19 H :    0.088865
  20 H :    0.294204
Sum of atomic charges:    0.0000000

LOEWDIN ATOMIC CHARGES
----------------------
   0 C :   -0.351421
   1 C :   -0.058043
   2 H :    0.095468
   3 C :   -0.219771
   4 C :   -0.154794
   5 C :   -0.333012
   6 C :   -0.337835
   7 O :   -0.325836
   8 H :    0.111995
   9 H :    0.122874
  10 H :    0.121831
  11 H :    0.119588
  12 H :    0.118494
  13 H :    0.112532
  14 H :    0.118182
  15 H :    0.118056
  16 H :    0.112954
  17 H :    0.110850
  18 H :    0.122315
  19 H :    0.114245
  20 H :    0.281328

  Mayer bond orders larger than 0.100000
B(  0-C ,  1-C ) :   1.1121 B(  0-C ,  8-H ) :   0.9455 B(  0-C ,  9-H ) :   0.9378
B(  0-C , 10-H ) :   0.9432 B(  1-C ,  2-H ) :   0.8950 B(  1-C ,  3-C ) :   1.0842
B(  1-C ,  7-O ) :   1.0460 B(  3-C ,  4-C ) :   1.0874 B(  3-C , 11-H ) :   0.9067
B(  3-C , 12-H ) :   0.9132 B(  4-C ,  5-C ) :   1.1112 B(  4-C ,  6-C ) :   1.1178
B(  4-C , 13-H ) :   0.9042 B(  5-C , 14-H ) :   0.9481 B(  5-C , 15-H ) :   0.9435
B(  5-C , 16-H ) :   0.9505 B(  6-C , 17-H ) :   0.9495 B(  6-C , 18-H ) :   0.9331
B(  6-C , 19-H ) :   0.9495 B(  7-O , 20-H ) :   0.8504

Dispersion correction           -0.016645230
FINAL SINGLE POINT ENERGY      -311.517078555913

DIPOLE MOMENT
-------------

Method             : SCF
Type of density    : Electron Density
Multiplicity       :   1
Irrep              :   0
Energy             :  -311.5970607987999870 Eh
Relativity type    :
Basis              : AO
                                X                 Y                 Z
Electronic contribution:      2.117098314      -1.596319378       1.093197497
Nuclear contribution   :     -1.663462880       1.620899461      -1.519261268
                        -----------------------------------------
Total Dipole Moment    :      0.453635434       0.024580083      -0.426063771
                        -----------------------------------------
Magnitude (a.u.)       :      0.622831939
Magnitude (Debye)      :      1.583112977

Rotational constants in cm-1:             0.133483             0.054350             0.048323
Rotational constants in MHz :          4001.715330          1629.382610          1448.677261

                             ****ORCA TERMINATED NORMALLY****
TOTAL RUN TIME: 0 days 0 hours 0 minutes 10 seconds 480 msec
