                         Program Version 6.0.0  -   RELEASE  -
|  1> ! pbe def2-sv(p) def2/J RI DEFGRID1 loosescf d4 GCP(DFT/SV(P)) printgap
|  2> %output
|  3>     printlevel normal
|  4> end
|  5> * xyz 0 1
|  6> C -2.0421309343 -0.0187232347 0.7566814417
|  7> C -1.4256340358 -0.678114467 -0.4714708738
|  8> C -0.2563285459 0.1431317176 -1.0256320212
|  9> C 0.9041208669 0.2547655315 -0.0679225776
| 10> O 1.3488108388 1.3342502125 0.275447423
| 11> C 1.484322964 -1.0384386715 0.4251925882
| 12> H -2.8615852073 -0.6202555332 1.1415179652
| 13> H -2.4271963778 0.9671724116 0.5061289823
| 14> H -1.3017223099 0.1032027971 1.5449871443
| 15> H -2.18447825 -0.7640710364 -1.2507137265
| 16> H -1.0882887743 -1.6839323359 -0.2222047924
| 17> H 0.1167891327 -0.3303210711 -1.9361709001
| 18> H -0.594797894 1.1511306467 -1.2739460769
| 19> H 0.8510395994 -1.4217964243 1.2230772139
| 20> H 2.4780354929 -0.8673443924 0.8304396476
| 21> H 1.5177991392 -1.7764562774 -0.3697152667
| 22> *
| 23>
| 24>                          ****END OF INPUT****

CARTESIAN COORDINATES (ANGSTROEM)
---------------------------------
  C     -2.042131   -0.018723    0.756681
  C     -1.425634   -0.678114   -0.471471
  C     -0.256329    0.143132   -1.025632
  C      0.904121    0.254766   -0.067923
  O      1.348811    1.334250    0.275447
  C      1.484323   -1.038439    0.425193
  H     -2.861585   -0.620256    1.141518
  H     -2.427196    0.967172    0.506129
  H     -1.301722    0.103203    1.544987
  H     -2.184478   -0.764071   -1.250714
  H     -1.088289   -1.683932   -0.222205
  H      0.116789   -0.330321   -1.936171
  H     -0.594798    1.151131   -1.273946
  H      0.851040   -1.421796    1.223077
  H      2.478035   -0.867344    0.830440
  H      1.517799   -1.776456   -0.369715

 Total Charge           Charge          ....    0
 Multiplicity           Mult            ....    1
 Number of Electrons    NEL             ....   48
 Basis Dimension        Dim             ....  104

ORBITAL ENERGIES
----------------

  NO   OCC          E(Eh)            E(eV)
   0   2.0000     -18.734053      -509.7795
   1   2.0000      -9.971296      -271.3328
   2   2.0000      -9.900184      -269.3977
   3   2.0000      -9.891156      -269.1520
   4   2.0000      -9.886583      -269.0276
   5   2.0000      -9.881564      -268.8910
   6   2.0000      -0.930759       -25.3273
   7   2.0000      -0.730050       -19.8657
   8   2.0000      -0.670666       -18.2497
   9   2.0000      -0.625810       -17.0291
  10   2.0000      -0.543719       -14.7953
  11   2.0000      -0.468488       -12.7482
  12   2.0000      -0.427295       -11.6273
  13   2.0000      -0.420278       -11.4364
  14   2.0000      -0.397364       -10.8128
  15   2.0000      -0.383608       -10.4385
  16   2.0000      -0.376299       -10.2396
  17   2.0000      -0.348084        -9.4718
  18   2.0000      -0.333627        -9.0784
  19   2.0000      -0.323258        -8.7963
  20   2.0000      -0.311618        -8.4796
  21   2.0000      -0.302105        -8.2207
  22   2.0000      -0.295538        -8.0420
  23   2.0000      -0.191199        -5.2028
  24   0.0000      -0.048575        -1.3218
  25   0.0000       0.026494         0.7209
  26   0.0000       0.062796         1.7088
  27   0.0000       0.070781         1.9261
  28   0.0000       0.084576         2.3014

MULLIKEN ATOMIC CHARGES
-----------------------
   0 C :   -0.286013
   1 C :   -0.218175
   2 C :   -0.125136
   3 C :   -0.034441
   4 O :   -0.167323
   5 C :   -0.263630
   6 H :    0.108292
   7 H :    0.108040
   8 H :    0.117961
   9 H :    0.098300
  10 H :    0.095526
  11 H :    0.107177
  12 H :    0.090205
  13 H :    0.132277
  14 H :    0.120833
  15 H :    0.116106
Sum of atomic charges:    0.0000000

LOEWDIN ATOMIC CHARGES
----------------------
   0 C :   -0.341870
   1 C :   -0.231225
   2 C :   -0.248362
   3 C :    0.037344
   4 O :   -0.132532
   5 C :   -0.364137
   6 H :    0.121598
   7 H :    0.123088
   8 H :    0.119712
   9 H :    0.122172
  10 H :    0.115277
  11 H :    0.135173
  12 H :    0.127129
  13 H :    0.146040
  14 H :    0.137340
  15 H :    0.133252

  Mayer bond orders larger than 0.100000
B(  0-C ,  1-C ) :   1.1520 B(  0-C ,  6-H ) :   0.9520 B(  0-C ,  7-H ) :   0.9532
B(  0-C ,  8-H ) :   0.9461 B(  1-C ,  2-C ) :   1.1008 B(  1-C ,  9-H ) :   0.9247
B(  1-C , 10-H ) :   0.9212 B(  2-C ,  3-C ) :   1.0161 B(  2-C , 11-H ) :   0.8929
B(  2-C , 12-H ) :   0.9049 B(  3-C ,  4-O ) :   2.1907 B(  3-C ,  5-C ) :   1.0491
B(  5-C , 13-H ) :   0.9154 B(  5-C , 14-H ) :   0.9310 B(  5-C , 15-H ) :   0.9319

Dispersion correction           -0.011676645
FINAL SINGLE POINT ENERGY      -271.141721644365

DIPOLE MOMENT
-------------

Method             : SCF
Type of density    : Electron Density
Multiplicity       :   1
Irrep              :   0
Energy             :  -271.1960240407739775 Eh
Relativity type    :
Basis              : AO
                                X                 Y                 Z
Electronic contribution:      4.657571143       3.962193745      -0.433682173
Nuclear contribution   :     -5.134640071      -4.898686512       0.185539128
                        -----------------------------------------
Total Dipole Moment    :     -0.477068928      -0.936492767      -0.248143045
                        -----------------------------------------
Magnitude (a.u.)       :      1.079902049
Magnitude (Debye)      :      2.744892868

Rotational constants in cm-1:             0.176885             0.078456             0.072481
Rotational constants in MHz :          5302.883413          2352.061032          2172.922565

                             ****ORCA TERMINATED NORMALLY****
TOTAL RUN TIME: 0 days 0 hours 0 minutes 7 seconds 934 msec
