                         Program Version 6.0.0  -   RELEASE  -
|  1> ! pbe def2-sv(p) def2/J RI DEFGRID1 loosescf d4 GCP(DFT/SV(P)) printgap
|  2> %output
|  3>     printlevel normal
|  4> end
|  5> * xyz 0 1
|  6> C -2.95324167 0.2904614638 0.8372352369
|  7> C -2.3416654369 0.2044147683 -0.5567437494
|  8> C -1.132004162 -0.729652138 -0.6307832865
|  9> C 0.0803134555 -0.2569912645 0.1688637903
| 10> C 1.2572997214 -1.2475758305 0.0833319816
| 11> C 2.5440080774 -0.4013702263 0.092418349
| 12> C 2.0837175968 1.0478914787 0.2791989877
| 13> C 0.6803652257 1.0645539179 -0.317331993
| 14> H -3.2067100661 -0.7022874798 1.2025665031
| 15> H -2.2634376097 0.7506013918 1.5397949745
| 16> H -3.8603197353 0.8898430325 0.8135632568
| 17> H -3.1008257485 -0.1656509983 -1.2500761489
| 18> H -2.0520720805 1.2022441368 -0.8899962853
| 19> H -1.4263948743 -1.7182575212 -0.2688099712
| 20> H -0.8381691226 -0.8354909979 -1.6786055203
| 21> H -0.2048505081 -0.1428645927 1.218324347
| 22> H 1.2335033139 -1.9533423162 0.9127700335
| 23> H 1.1901285175 -1.8239282542 -0.8400586925
| 24> H 3.2272996626 -0.7084818077 0.8829942378
| 25> H 3.0684264647 -0.5045334843 -0.8577484539
| 26> H 2.0309664296 1.2912793181 1.3417992263
| 27> H 2.7536018223 1.7599175526 -0.2007735357
| 28> H 0.1057450898 1.9317355755 0.0039308079
| 29> H 0.7357858785 1.066080136 -1.4075891377
| 30> *
| 31>
| 32>                          ****END OF INPUT****

CARTESIAN COORDINATES (ANGSTROEM)
---------------------------------
  C     -2.953242    0.290461    0.837235
  C     -2.341665    0.204415   -0.556744
  C     -1.132004   -0.729652   -0.630783
  C      0.080313   -0.256991    0.168864
  C      1.257300   -1.247576    0.083332
  C      2.544008   -0.401370    0.092418
  C      2.083718    1.047891    0.279199
  C      0.680365    1.064554   -0.317332
  H     -3.206710   -0.702287    1.202567
  H     -2.263438    0.750601    1.539795
  H     -3.860320    0.889843    0.813563
  H     -3.100826   -0.165651   -1.250076
  H     -2.052072    1.202244   -0.889996
  H     -1.426395   -1.718258   -0.268810
  H     -0.838169   -0.835491   -1.678606
  H     -0.204851   -0.142865    1.218324
  H      1.233503   -1.953342    0.912770
  H      1.190129   -1.823928   -0.840059
  H      3.227300   -0.708482    0.882994
  H      3.068426   -0.504533   -0.857748
  H      2.030966    1.291279    1.341799
  H      2.753602    1.759918   -0.200774
  H      0.105745    1.931736    0.003931
  H      0.735786    1.066080   -1.407589

 Total Charge           Charge          ....    0
 Multiplicity           Mult            ....    1
 Number of Electrons    NEL             ....   64
 Basis Dimension        Dim             ....  144

ORBITAL ENERGIES
----------------

  NO   OCC          E(Eh)            E(eV)
   0   2.0000      -9.883081      -268.9323
   1   2.0000      -9.878198      -268.7994
   2   2.0000      -9.876509      -268.7535
   3   2.0000      -9.875389      -268.7230
   4   2.0000      -9.874447      -268.6974
   5   2.0000      -9.874373      -268.6954
   6   2.0000      -9.872812      -268.6529
   7   2.0000      -9.869540      -268.5638
   8   2.0000      -0.758348       -20.6357
   9   2.0000      -0.703739       -19.1497
  10   2.0000      -0.643153       -17.5011
  11   2.0000      -0.629422       -17.1274
  12   2.0000      -0.584035       -15.8924
  13   2.0000      -0.521535       -14.1917
  14   2.0000      -0.496690       -13.5156
  15   2.0000      -0.484831       -13.1929
  16   2.0000      -0.432797       -11.7770
  17   2.0000      -0.417674       -11.3655
  18   2.0000      -0.399904       -10.8819
  19   2.0000      -0.383872       -10.4457
  20   2.0000      -0.366400        -9.9703
  21   2.0000      -0.357027        -9.7152
  22   2.0000      -0.347490        -9.4557
  23   2.0000      -0.316010        -8.5991
  24   2.0000      -0.301644        -8.2082
  25   2.0000      -0.294355        -8.0098
  26   2.0000      -0.289805        -7.8860
  27   2.0000      -0.287818        -7.8319
  28   2.0000      -0.275695        -7.5021
  29   2.0000      -0.267034        -7.2664
  30   2.0000      -0.265721        -7.2306
  31   2.0000      -0.260888        -7.0991
  32   0.0000       0.028235         0.7683
  33   0.0000       0.045593         1.2406
  34   0.0000       0.053233         1.4486
  35   0.0000       0.070195         1.9101
  36   0.0000       0.082856         2.2546

MULLIKEN ATOMIC CHARGES
-----------------------
   0 C :   -0.294197
   1 C :   -0.162660
   2 C :   -0.106094
   3 C :   -0.228444
   4 C :   -0.088189
   5 C :   -0.163226
   6 C :   -0.133741
   7 C :   -0.146567
   8 H :    0.096217
   9 H :    0.109312
  10 H :    0.101446
  11 H :    0.081403
  12 H :    0.089032
  13 H :    0.077173
  14 H :    0.071580
  15 H :    0.069245
  16 H :    0.076280
  17 H :    0.070237
  18 H :    0.080295
  19 H :    0.077499
  20 H :    0.074239
  21 H :    0.084323
  22 H :    0.091297
  23 H :    0.073538
Sum of atomic charges:    0.0000000

LOEWDIN ATOMIC CHARGES
----------------------
   0 C :   -0.342694
   1 C :   -0.234939
   2 C :   -0.216712
   3 C :   -0.148281
   4 C :   -0.220994
   5 C :   -0.230813
   6 C :   -0.227420
   7 C :   -0.222458
   8 H :    0.116452
   9 H :    0.115862
  10 H :    0.118921
  11 H :    0.115071
  12 H :    0.114333
  13 H :    0.112867
  14 H :    0.112121
  15 H :    0.113911
  16 H :    0.117295
  17 H :    0.115414
  18 H :    0.116528
  19 H :    0.116681
  20 H :    0.114882
  21 H :    0.115093
  22 H :    0.115183
  23 H :    0.113699

  Mayer bond orders larger than 0.100000
B(  0-C ,  1-C ) :   1.1533 B(  0-C ,  8-H ) :   0.9546 B(  0-C ,  9-H ) :   0.9498
B(  0-C , 10-H ) :   0.9516 B(  1-C ,  2-C ) :   1.1266 B(  1-C , 11-H ) :   0.9248
B(  1-C , 12-H ) :   0.9201 B(  2-C ,  3-C ) :   1.0992 B(  2-C , 13-H ) :   0.9203
B(  2-C , 14-H ) :   0.9037 B(  3-C ,  4-C ) :   1.1261 B(  3-C ,  7-C ) :   1.0972
B(  3-C , 15-H ) :   0.8874 B(  4-C ,  5-C ) :   1.1621 B(  4-C , 16-H ) :   0.9145
B(  4-C , 17-H ) :   0.9130 B(  5-C ,  6-C ) :   1.1667 B(  5-C , 18-H ) :   0.9218
B(  5-C , 19-H ) :   0.9209 B(  6-C ,  7-C ) :   1.1214 B(  6-C , 20-H ) :   0.9153
B(  6-C , 21-H ) :   0.9273 B(  7-C , 22-H ) :   0.9190 B(  7-C , 23-H ) :   0.9162

Dispersion correction           -0.020857377
FINAL SINGLE POINT ENERGY      -313.693394430800

DIPOLE MOMENT
-------------

Method             : SCF
Type of density    : Electron Density
Multiplicity       :   1
Irrep              :   0
Energy             :  -313.7743999404172541 Eh
Relativity type    :
Basis              : AO
                                X                 Y                 Z
Electronic contribution:      2.430779414      -0.298243385      -0.473647359
Nuclear contribution   :     -2.446093664       0.316033064       0.489801452
                        -----------------------------------------
Total Dipole Moment    :     -0.015314250       0.017789679       0.016154093
                        -----------------------------------------
Magnitude (a.u.)       :      0.028494800
Magnitude (Debye)      :      0.072428026

Rotational constants in cm-1:             0.142112             0.036626             0.033401
Rotational constants in MHz :          4260.419419          1098.033045          1001.337754

                             ****ORCA TERMINATED NORMALLY****
TOTAL RUN TIME: 0 days 0 hours 0 minutes 11 seconds 370 msec
