                         Program Version 6.0.0  -   RELEASE  -
|  1> ! pbe def2-sv(p) def2/J RI DEFGRID1 loosescf d4 GCP(DFT/SV(P)) printgap
|  2> %output
|  3>     printlevel normal
|  4> end
|  5> * xyz 0 1
|  6> C -1.7773290812 -1.1536450597 0.1869755782
|  7> C -1.5005300641 0.1865067139 -0.4657993126
|  8> S 0.0178932638 1.0028481919 0.1471842132
|  9> C 1.333486557 -0.074704146 -0.540713722
| 10> C 1.9047410716 -1.0279320985 0.4923784699
| 11> H -1.7838514436 -1.0504526324 1.2695054991
| 12> H -2.748859712 -1.5211376641 -0.135821473
| 13> H -1.0234235348 -1.8858781229 -0.0918546398
| 14> H -2.288304058 0.9025171429 -0.2345790362
| 15> H -1.4056141859 0.0990021692 -1.5482417801
| 16> H 0.8988469475 -0.6029492784 -1.3873847174
| 17> H 2.1028249621 0.6073597416 -0.9016358471
| 18> H 2.3205141343 -0.4681716084 1.3265812372
| 19> H 1.1364791375 -1.6935564683 0.8769628599
| 20> H 2.6944177486 -1.625847383 0.0426814256
| 21> *
| 22>
| 23>                          ****END OF INPUT****

CARTESIAN COORDINATES (ANGSTROEM)
---------------------------------
  C     -1.777329   -1.153645    0.186976
  C     -1.500530    0.186507   -0.465799
  S      0.017893    1.002848    0.147184
  C      1.333487   -0.074704   -0.540714
  C      1.904741   -1.027932    0.492378
  H     -1.783851   -1.050453    1.269505
  H     -2.748860   -1.521138   -0.135821
  H     -1.023424   -1.885878   -0.091855
  H     -2.288304    0.902517   -0.234579
  H     -1.405614    0.099002   -1.548242
  H      0.898847   -0.602949   -1.387385
  H      2.102825    0.607360   -0.901636
  H      2.320514   -0.468172    1.326581
  H      1.136479   -1.693556    0.876963
  H      2.694418   -1.625847    0.042681

 Total Charge           Charge          ....    0
 Multiplicity           Mult            ....    1
 Number of Electrons    NEL             ....   50
 Basis Dimension        Dim             ....   94

ORBITAL ENERGIES
----------------

  NO   OCC          E(Eh)            E(eV)
   0   2.0000     -88.006089     -2394.7674
   1   2.0000      -9.913084      -269.7487
   2   2.0000      -9.911777      -269.7132
   3   2.0000      -9.881024      -268.8763
   4   2.0000      -9.878439      -268.8060
   5   2.0000      -7.650215      -208.1729
   6   2.0000      -5.678964      -154.5325
   7   2.0000      -5.674888      -154.4216
   8   2.0000      -5.666381      -154.1901
   9   2.0000      -0.734727       -19.9929
  10   2.0000      -0.686550       -18.6820
  11   2.0000      -0.618416       -16.8280
  12   2.0000      -0.554514       -15.0891
  13   2.0000      -0.507302       -13.8044
  14   2.0000      -0.425890       -11.5890
  15   2.0000      -0.408035       -11.1032
  16   2.0000      -0.381704       -10.3867
  17   2.0000      -0.374263       -10.1842
  18   2.0000      -0.342947        -9.3321
  19   2.0000      -0.341570        -9.2946
  20   2.0000      -0.324843        -8.8394
  21   2.0000      -0.316175        -8.6036
  22   2.0000      -0.289284        -7.8718
  23   2.0000      -0.257147        -6.9973
  24   2.0000      -0.176128        -4.7927
  25   0.0000       0.023210         0.6316
  26   0.0000       0.034206         0.9308
  27   0.0000       0.049815         1.3555
  28   0.0000       0.071933         1.9574
  29   0.0000       0.077910         2.1200

MULLIKEN ATOMIC CHARGES
-----------------------
   0 C :   -0.250638
   1 C :   -0.306879
   2 S :   -0.072039
   3 C :   -0.303011
   4 C :   -0.240713
   5 H :    0.111486
   6 H :    0.104066
   7 H :    0.115434
   8 H :    0.132732
   9 H :    0.131044
  10 H :    0.123450
  11 H :    0.133748
  12 H :    0.110302
  13 H :    0.109720
  14 H :    0.101299
Sum of atomic charges:   -0.0000000

LOEWDIN ATOMIC CHARGES
----------------------
   0 C :   -0.361002
   1 C :   -0.337527
   2 S :    0.183242
   3 C :   -0.338268
   4 C :   -0.359766
   5 H :    0.122322
   6 H :    0.121595
   7 H :    0.118264
   8 H :    0.126224
   9 H :    0.118872
  10 H :    0.120771
  11 H :    0.124998
  12 H :    0.122183
  13 H :    0.118717
  14 H :    0.119376

  Mayer bond orders larger than 0.100000
B(  0-C ,  1-C ) :   1.1128 B(  0-C ,  5-H ) :   0.9505 B(  0-C ,  6-H ) :   0.9370
B(  0-C ,  7-H ) :   0.9480 B(  1-C ,  2-S ) :   1.0614 B(  1-C ,  8-H ) :   0.9293
B(  1-C ,  9-H ) :   0.9239 B(  2-S ,  3-C ) :   1.0322 B(  3-C ,  4-C ) :   1.1155
B(  3-C , 10-H ) :   0.9218 B(  3-C , 11-H ) :   0.9310 B(  4-C , 12-H ) :   0.9541
B(  4-C , 13-H ) :   0.9502 B(  4-C , 14-H ) :   0.9382

Dispersion correction           -0.011453207
FINAL SINGLE POINT ENERGY      -555.916251871957

DIPOLE MOMENT
-------------

Method             : SCF
Type of density    : Electron Density
Multiplicity       :   1
Irrep              :   0
Energy             :  -555.9648162005876202 Eh
Relativity type    :
Basis              : AO
                                X                 Y                 Z
Electronic contribution:      0.019496752       6.313162776       0.408650155
Nuclear contribution   :     -0.091482403      -6.819998765      -0.739504005
                        -----------------------------------------
Total Dipole Moment    :     -0.071985651      -0.506835989      -0.330853849
                        -----------------------------------------
Magnitude (a.u.)       :      0.609531725
Magnitude (Debye)      :      1.549306518

Rotational constants in cm-1:             0.178169             0.090054             0.068610
Rotational constants in MHz :          5341.381177          2699.740990          2056.876796

                             ****ORCA TERMINATED NORMALLY****
TOTAL RUN TIME: 0 days 0 hours 0 minutes 6 seconds 682 msec
