                         Program Version 6.0.0  -   RELEASE  -
|  1> ! r2scan-3c def2/J RI DEFGRID2 scfconv6 printgap
|  2> %output
|  3>     printlevel normal
|  4> end
|  5> %cpcm
|  6>     smd true
|  7>     smdsolvent "water"
|  8> end
|  9> * xyz 0 1
| 10> C -1.3634810396 -0.3619040421 -0.4244857005
| 11> C -0.0121797662 -0.061978118 0.2460309278
| 12> C 1.1184382897 -0.842765162 -0.4375247527
| 13> O 2.3938237617 -0.5087579689 0.0521786222
| 14> O 0.2266658046 1.3303978842 0.2560029888
| 15> O -2.4229127078 0.269078844 0.2533841532
| 16> H -1.5716659214 -1.4323595497 -0.398415167
| 17> H -1.3345265404 -0.030249356 -1.4723920536
| 18> H -0.0789338572 -0.3411942839 1.3041890516
| 19> H 1.1439084484 -0.5973807993 -1.5028543194
| 20> H 0.9245856589 -1.917594593 -0.332773128
| 21> H 2.4364330665 -0.6906769061 1.0011302408
| 22> H 0.5649001463 1.6056534373 -0.6080641587
| 23> H -2.1558167422 1.1839447618 0.435326457
| 24> *
| 25>
| 26>                          ****END OF INPUT****

CARTESIAN COORDINATES (ANGSTROEM)
---------------------------------
  C     -1.363481   -0.361904   -0.424486
  C     -0.012180   -0.061978    0.246031
  C      1.118438   -0.842765   -0.437525
  O      2.393824   -0.508758    0.052179
  O      0.226666    1.330398    0.256003
  O     -2.422913    0.269079    0.253384
  H     -1.571666   -1.432360   -0.398415
  H     -1.334527   -0.030249   -1.472392
  H     -0.078934   -0.341194    1.304189
  H      1.143908   -0.597381   -1.502854
  H      0.924586   -1.917595   -0.332773
  H      2.436433   -0.690677    1.001130
  H      0.564900    1.605653   -0.608064
  H     -2.155817    1.183945    0.435326

 Total Charge           Charge          ....    0
 Multiplicity           Mult            ....    1
 Number of Electrons    NEL             ....   50
 Basis Dimension        Dim             ....  169

ORBITAL ENERGIES
----------------

  NO   OCC          E(Eh)            E(eV)
   0   2.0000     -18.957376      -515.8564
   1   2.0000     -18.955049      -515.7931
   2   2.0000     -18.952847      -515.7332
   3   2.0000     -10.080151      -274.2948
   4   2.0000     -10.074407      -274.1385
   5   2.0000     -10.071047      -274.0471
   6   2.0000      -1.007708       -27.4211
   7   2.0000      -0.990431       -26.9510
   8   2.0000      -0.977774       -26.6066
   9   2.0000      -0.721533       -19.6339
  10   2.0000      -0.633706       -17.2440
  11   2.0000      -0.584834       -15.9141
  12   2.0000      -0.494322       -13.4512
  13   2.0000      -0.479251       -13.0411
  14   2.0000      -0.440597       -11.9893
  15   2.0000      -0.432516       -11.7694
  16   2.0000      -0.410902       -11.1812
  17   2.0000      -0.399784       -10.8787
  18   2.0000      -0.361661        -9.8413
  19   2.0000      -0.335999        -9.1430
  20   2.0000      -0.310516        -8.4496
  21   2.0000      -0.296601        -8.0709
  22   2.0000      -0.264554        -7.1989
  23   2.0000      -0.249863        -6.7991
  24   2.0000      -0.228683        -6.2228
  25   0.0000       0.057944         1.5767
  26   0.0000       0.084592         2.3019
  27   0.0000       0.099401         2.7048
  28   0.0000       0.117488         3.1970
  29   0.0000       0.126486         3.4419

MULLIKEN ATOMIC CHARGES
-----------------------
   0 C :   -0.175237
   1 C :    0.032941
   2 C :   -0.214449
   3 O :   -0.487392
   4 O :   -0.490795
   5 O :   -0.501121
   6 H :    0.154668
   7 H :    0.148599
   8 H :    0.158236
   9 H :    0.165456
  10 H :    0.152682
  11 H :    0.352256
  12 H :    0.352471
  13 H :    0.351686
Sum of atomic charges:    0.0000000

LOEWDIN ATOMIC CHARGES
----------------------
   0 C :    0.017985
   1 C :    0.065618
   2 C :    0.019237
   3 O :   -0.629844
   4 O :   -0.609321
   5 O :   -0.640499
   6 H :    0.187609
   7 H :    0.170571
   8 H :    0.191778
   9 H :    0.188451
  10 H :    0.175950
  11 H :    0.285801
  12 H :    0.289422
  13 H :    0.287242

  Mayer bond orders larger than 0.100000
B(  0-C ,  1-C ) :   0.9441 B(  0-C ,  5-O ) :   0.9379 B(  0-C ,  6-H ) :   0.9581
B(  0-C ,  7-H ) :   0.9639 B(  1-C ,  2-C ) :   0.9539 B(  1-C ,  4-O ) :   0.9352
B(  1-C ,  8-H ) :   0.9352 B(  2-C ,  3-O ) :   0.9569 B(  2-C ,  9-H ) :   0.9655
B(  2-C , 10-H ) :   0.9609 B(  3-O , 11-H ) :   0.8672 B(  4-O , 12-H ) :   0.8676
B(  5-O , 13-H ) :   0.8529

Dispersion correction           -0.002997109
FINAL SINGLE POINT ENERGY      -344.745613427525

DIPOLE MOMENT
-------------

Method             : SCF
Type of density    : Electron Density
Multiplicity       :   1
Irrep              :   0
Energy             :  -344.7531169606504591 Eh
Relativity type    :
Basis              : AO
                                X                 Y                 Z
Electronic contribution:      0.401856378       1.628258887       1.102746172
Nuclear contribution   :     -0.063784615      -2.066412379      -1.468207054
                        -----------------------------------------
Total Dipole Moment    :      0.338071763      -0.438153492      -0.365460883
                        -----------------------------------------
Magnitude (a.u.)       :      0.663198806
Magnitude (Debye)      :      1.685717398

Rotational constants in cm-1:             0.264722             0.065139             0.056248
Rotational constants in MHz :          7936.156722          1952.832498          1686.283308

                             ****ORCA TERMINATED NORMALLY****
TOTAL RUN TIME: 0 days 0 hours 0 minutes 23 seconds 394 msec
