                         Program Version 6.0.0  -   RELEASE  -
|  1> ! pbe def2-sv(p) def2/J RI DEFGRID1 loosescf d4 GCP(DFT/SV(P)) printgap
|  2> %output
|  3>     printlevel normal
|  4> end
|  5> * xyz 0 1
|  6> C -1.2118582959 0.2498854474 -0.4566126944
|  7> C -0.0448795731 0.5477819523 0.5014927641
|  8> C 0.910363956 -0.6509686207 0.6233692045
|  9> O 1.6169813602 -0.8754080926 -0.5779889456
| 10> O 0.6513070408 1.6982033341 0.0813878219
| 11> O -1.9161258386 -0.8748529485 0.0209049314
| 12> H -0.8190898325 0.0671709745 -1.4662868076
| 13> H -1.8518667389 1.1391939337 -0.492665702
| 14> H -0.4587321255 0.7670130821 1.4912315974
| 15> H 0.3436745933 -1.5319116223 0.9349132472
| 16> H 1.6663925038 -0.422228164 1.3779245566
| 17> H 1.0541183765 -1.3621513764 -1.194550628
| 18> H 1.3236476289 1.4156637024 -0.5605764879
| 19> H -2.7207163291 -0.9944991141 -0.5020274363
| 20> *
| 21>
| 22>                          ****END OF INPUT****

CARTESIAN COORDINATES (ANGSTROEM)
---------------------------------
  C     -1.211858    0.249885   -0.456613
  C     -0.044880    0.547782    0.501493
  C      0.910364   -0.650969    0.623369
  O      1.616981   -0.875408   -0.577989
  O      0.651307    1.698203    0.081388
  O     -1.916126   -0.874853    0.020905
  H     -0.819090    0.067171   -1.466287
  H     -1.851867    1.139194   -0.492666
  H     -0.458732    0.767013    1.491232
  H      0.343675   -1.531912    0.934913
  H      1.666393   -0.422228    1.377925
  H      1.054118   -1.362151   -1.194551
  H      1.323648    1.415664   -0.560576
  H     -2.720716   -0.994499   -0.502027

 Total Charge           Charge          ....    0
 Multiplicity           Mult            ....    1
 Number of Electrons    NEL             ....   50
 Basis Dimension        Dim             ....  100

ORBITAL ENERGIES
----------------

  NO   OCC          E(Eh)            E(eV)
   0   2.0000     -18.759017      -510.4588
   1   2.0000     -18.756083      -510.3790
   2   2.0000     -18.739000      -509.9141
   3   2.0000      -9.932732      -270.2834
   4   2.0000      -9.932215      -270.2693
   5   2.0000      -9.928024      -270.1553
   6   2.0000      -0.940954       -25.6047
   7   2.0000      -0.927852       -25.2481
   8   2.0000      -0.909344       -24.7445
   9   2.0000      -0.674730       -18.3603
  10   2.0000      -0.611501       -16.6398
  11   2.0000      -0.536716       -14.6048
  12   2.0000      -0.484747       -13.1906
  13   2.0000      -0.456999       -12.4356
  14   2.0000      -0.438598       -11.9349
  15   2.0000      -0.411017       -11.1843
  16   2.0000      -0.405170       -11.0252
  17   2.0000      -0.358706        -9.7609
  18   2.0000      -0.349973        -9.5232
  19   2.0000      -0.297061        -8.0834
  20   2.0000      -0.284284        -7.7357
  21   2.0000      -0.279845        -7.6150
  22   2.0000      -0.237697        -6.4681
  23   2.0000      -0.224749        -6.1157
  24   2.0000      -0.207322        -5.6415
  25   0.0000       0.008827         0.2402
  26   0.0000       0.029546         0.8040
  27   0.0000       0.066125         1.7994
  28   0.0000       0.078430         2.1342
  29   0.0000       0.092338         2.5126

MULLIKEN ATOMIC CHARGES
-----------------------
   0 C :   -0.003290
   1 C :    0.020966
   2 C :   -0.009478
   3 O :   -0.445950
   4 O :   -0.433885
   5 O :   -0.437541
   6 H :    0.043603
   7 H :    0.088285
   8 H :    0.074613
   9 H :    0.097346
  10 H :    0.097816
  11 H :    0.306263
  12 H :    0.297320
  13 H :    0.303931
Sum of atomic charges:    0.0000000

LOEWDIN ATOMIC CHARGES
----------------------
   0 C :   -0.143839
   1 C :   -0.088368
   2 C :   -0.140955
   3 O :   -0.335123
   4 O :   -0.324782
   5 O :   -0.348473
   6 H :    0.081315
   7 H :    0.103832
   8 H :    0.116037
   9 H :    0.109831
  10 H :    0.115868
  11 H :    0.288394
  12 H :    0.277501
  13 H :    0.288762

  Mayer bond orders larger than 0.100000
B(  0-C ,  1-C ) :   1.0361 B(  0-C ,  5-O ) :   1.0721 B(  0-C ,  6-H ) :   0.9036
B(  0-C ,  7-H ) :   0.9239 B(  1-C ,  2-C ) :   1.0464 B(  1-C ,  4-O ) :   1.0546
B(  1-C ,  8-H ) :   0.8907 B(  2-C ,  3-O ) :   1.0441 B(  2-C ,  9-H ) :   0.9164
B(  2-C , 10-H ) :   0.9263 B(  3-O , 11-H ) :   0.8483 B(  4-O , 12-H ) :   0.8330
B(  5-O , 13-H ) :   0.8497

Dispersion correction           -0.009326086
FINAL SINGLE POINT ENERGY      -344.009929543891

DIPOLE MOMENT
-------------

Method             : SCF
Type of density    : Electron Density
Multiplicity       :   1
Irrep              :   0
Energy             :  -344.0837790774534710 Eh
Relativity type    :
Basis              : AO
                                X                 Y                 Z
Electronic contribution:      0.681825692       0.312903664      -0.250825063
Nuclear contribution   :     -1.366915955      -0.865533107      -0.393627486
                        -----------------------------------------
Total Dipole Moment    :     -0.685090263      -0.552629444      -0.644452549
                        -----------------------------------------
Magnitude (a.u.)       :      1.090901948
Magnitude (Debye)      :      2.772852388

Rotational constants in cm-1:             0.149370             0.094366             0.069446
Rotational constants in MHz :          4477.990795          2829.018405          2081.926143

                             ****ORCA TERMINATED NORMALLY****
TOTAL RUN TIME: 0 days 0 hours 0 minutes 6 seconds 581 msec
