                         Program Version 6.0.0  -   RELEASE  -
|  1> ! r2scan-3c def2/J RI DEFGRID2 scfconv6 printgap
|  2> %output
|  3>     printlevel normal
|  4> end
|  5> * xyz 0 1
|  6> C -2.509940639 -0.0184578286 -0.2221634222
|  7> C -1.204802909 0.0141284859 0.5623496891
|  8> C 0.0066776828 -0.0124999648 -0.3621916341
|  9> O 1.1826991691 0.0213901162 0.4259607392
| 10> C 2.3656594838 -0.0029234494 -0.3404699806
| 11> H -2.5786912543 0.8417239232 -0.8835900866
| 12> H -2.5698452351 -0.9215506012 -0.8245678419
| 13> H -3.3560612216 0.000211284 0.4585482131
| 14> H -1.1439257856 -0.8439433049 1.2332022931
| 15> H -1.1513148898 0.9167132178 1.1726723097
| 16> H -0.0003798154 -0.9256997134 -0.9773041095
| 17> H -0.0093709759 0.8547577016 -1.0404525542
| 18> H 2.4244533228 -0.9175315516 -0.9414682946
| 19> H 3.1893591407 0.0259705668 0.3682389197
| 20> H 2.4186349149 0.8651915782 -1.0074091761
| 21> *
| 22>
| 23>                          ****END OF INPUT****

CARTESIAN COORDINATES (ANGSTROEM)
---------------------------------
  C     -2.509941   -0.018458   -0.222163
  C     -1.204803    0.014128    0.562350
  C      0.006678   -0.012500   -0.362192
  O      1.182699    0.021390    0.425961
  C      2.365659   -0.002923   -0.340470
  H     -2.578691    0.841724   -0.883590
  H     -2.569845   -0.921551   -0.824568
  H     -3.356061    0.000211    0.458548
  H     -1.143926   -0.843943    1.233202
  H     -1.151315    0.916713    1.172672
  H     -0.000380   -0.925700   -0.977304
  H     -0.009371    0.854758   -1.040453
  H      2.424453   -0.917532   -0.941468
  H      3.189359    0.025971    0.368239
  H      2.418635    0.865192   -1.007409

 Total Charge           Charge          ....    0
 Multiplicity           Mult            ....    1
 Number of Electrons    NEL             ....   42
 Basis Dimension        Dim             ....  150

ORBITAL ENERGIES
----------------

  NO   OCC          E(Eh)            E(eV)
   0   2.0000     -18.947607      -515.5906
   1   2.0000     -10.071825      -274.0683
   2   2.0000     -10.067373      -273.9471
   3   2.0000     -10.024858      -272.7903
   4   2.0000     -10.020240      -272.6646
   5   2.0000      -0.993018       -27.0214
   6   2.0000      -0.751024       -20.4364
   7   2.0000      -0.671225       -18.2650
   8   2.0000      -0.605760       -16.4836
   9   2.0000      -0.554339       -15.0843
  10   2.0000      -0.451594       -12.2885
  11   2.0000      -0.450471       -12.2580
  12   2.0000      -0.420735       -11.4488
  13   2.0000      -0.405327       -11.0295
  14   2.0000      -0.376943       -10.2571
  15   2.0000      -0.355308        -9.6684
  16   2.0000      -0.330589        -8.9958
  17   2.0000      -0.310360        -8.4453
  18   2.0000      -0.302679        -8.2363
  19   2.0000      -0.280940        -7.6448
  20   2.0000      -0.218695        -5.9510
  21   0.0000       0.071319         1.9407
  22   0.0000       0.100643         2.7386
  23   0.0000       0.116575         3.1722
  24   0.0000       0.137680         3.7465
  25   0.0000       0.143423         3.9027

MULLIKEN ATOMIC CHARGES
-----------------------
   0 C :   -0.463478
   1 C :   -0.215971
   2 C :   -0.158266
   3 O :   -0.235826
   4 C :   -0.286885
   5 H :    0.140298
   6 H :    0.140210
   7 H :    0.148530
   8 H :    0.144560
   9 H :    0.144648
  10 H :    0.118824
  11 H :    0.118887
  12 H :    0.128861
  13 H :    0.146727
  14 H :    0.128882
Sum of atomic charges:   -0.0000000

LOEWDIN ATOMIC CHARGES
----------------------
   0 C :   -0.421731
   1 C :   -0.285070
   2 C :    0.009973
   3 O :   -0.799244
   4 C :   -0.075206
   5 H :    0.150350
   6 H :    0.150348
   7 H :    0.152954
   8 H :    0.159116
   9 H :    0.159164
  10 H :    0.159083
  11 H :    0.159080
  12 H :    0.153655
  13 H :    0.173881
  14 H :    0.153647

  Mayer bond orders larger than 0.100000
B(  0-C ,  1-C ) :   0.8957 B(  0-C ,  5-H ) :   0.9787 B(  0-C ,  6-H ) :   0.9787
B(  0-C ,  7-H ) :   0.9700 B(  1-C ,  2-C ) :   0.9510 B(  1-C ,  8-H ) :   0.9691
B(  1-C ,  9-H ) :   0.9692 B(  2-C ,  3-O ) :   0.9048 B(  2-C , 10-H ) :   0.9553
B(  2-C , 11-H ) :   0.9553 B(  3-O ,  4-C ) :   0.8978 B(  4-C , 12-H ) :   0.9671
B(  4-C , 13-H ) :   0.9735 B(  4-C , 14-H ) :   0.9671

Dispersion correction           -0.002886069
FINAL SINGLE POINT ENERGY      -233.582830702475

DIPOLE MOMENT
-------------

Method             : SCF
Type of density    : Electron Density
Multiplicity       :   1
Irrep              :   0
Energy             :  -233.5899304113772246 Eh
Relativity type    :
Basis              : AO
                                X                 Y                 Z
Electronic contribution:      2.536615018       0.080854440       1.856514337
Nuclear contribution   :     -2.587831138      -0.097398660      -2.284797074
                        -----------------------------------------
Total Dipole Moment    :     -0.051216120      -0.016544220      -0.428282738
                        -----------------------------------------
Magnitude (a.u.)       :      0.431651370
Magnitude (Debye)      :      1.097170590

Rotational constants in cm-1:             0.670966             0.070628             0.067126
Rotational constants in MHz :         20115.068600          2117.376055          2012.399271

                             ****ORCA TERMINATED NORMALLY****
TOTAL RUN TIME: 0 days 0 hours 0 minutes 15 seconds 77 msec
