                         Program Version 6.0.0  -   RELEASE  -
|  1> ! r2scan-3c def2/J RI DEFGRID2 scfconv6 printgap
|  2> %output
|  3>     printlevel normal
|  4> end
|  5> %cpcm
|  6>     smd true
|  7>     smdsolvent "water"
|  8> end
|  9> * xyz 0 1
| 10> C -2.509940639 -0.0184578286 -0.2221634222
| 11> C -1.204802909 0.0141284859 0.5623496891
| 12> C 0.0066776828 -0.0124999648 -0.3621916341
| 13> O 1.1826991691 0.0213901162 0.4259607392
| 14> C 2.3656594838 -0.0029234494 -0.3404699806
| 15> H -2.5786912543 0.8417239232 -0.8835900866
| 16> H -2.5698452351 -0.9215506012 -0.8245678419
| 17> H -3.3560612216 0.000211284 0.4585482131
| 18> H -1.1439257856 -0.8439433049 1.2332022931
| 19> H -1.1513148898 0.9167132178 1.1726723097
| 20> H -0.0003798154 -0.9256997134 -0.9773041095
| 21> H -0.0093709759 0.8547577016 -1.0404525542
| 22> H 2.4244533228 -0.9175315516 -0.9414682946
| 23> H 3.1893591407 0.0259705668 0.3682389197
| 24> H 2.4186349149 0.8651915782 -1.0074091761
| 25> *
| 26>
| 27>                          ****END OF INPUT****

CARTESIAN COORDINATES (ANGSTROEM)
---------------------------------
  C     -2.509941   -0.018458   -0.222163
  C     -1.204803    0.014128    0.562350
  C      0.006678   -0.012500   -0.362192
  O      1.182699    0.021390    0.425961
  C      2.365659   -0.002923   -0.340470
  H     -2.578691    0.841724   -0.883590
  H     -2.569845   -0.921551   -0.824568
  H     -3.356061    0.000211    0.458548
  H     -1.143926   -0.843943    1.233202
  H     -1.151315    0.916713    1.172672
  H     -0.000380   -0.925700   -0.977304
  H     -0.009371    0.854758   -1.040453
  H      2.424453   -0.917532   -0.941468
  H      3.189359    0.025971    0.368239
  H      2.418635    0.865192   -1.007409

 Total Charge           Charge          ....    0
 Multiplicity           Mult            ....    1
 Number of Electrons    NEL             ....   42
 Basis Dimension        Dim             ....  150

ORBITAL ENERGIES
----------------

  NO   OCC          E(Eh)            E(eV)
   0   2.0000     -18.954855      -515.7878
   1   2.0000     -10.066997      -273.9369
   2   2.0000     -10.061906      -273.7984
   3   2.0000     -10.020550      -272.6730
   4   2.0000     -10.011947      -272.4389
   5   2.0000      -0.998782       -27.1782
   6   2.0000      -0.746329       -20.3086
   7   2.0000      -0.667400       -18.1609
   8   2.0000      -0.600725       -16.3466
   9   2.0000      -0.550395       -14.9770
  10   2.0000      -0.449347       -12.2274
  11   2.0000      -0.448642       -12.2082
  12   2.0000      -0.419685       -11.4202
  13   2.0000      -0.400616       -10.9013
  14   2.0000      -0.369762       -10.0617
  15   2.0000      -0.348133        -9.4732
  16   2.0000      -0.325868        -8.8673
  17   2.0000      -0.306463        -8.3393
  18   2.0000      -0.296699        -8.0736
  19   2.0000      -0.284991        -7.7550
  20   2.0000      -0.223983        -6.0949
  21   0.0000       0.073125         1.9898
  22   0.0000       0.107719         2.9312
  23   0.0000       0.125790         3.4229
  24   0.0000       0.145189         3.9508
  25   0.0000       0.147026         4.0008

MULLIKEN ATOMIC CHARGES
-----------------------
   0 C :   -0.504545
   1 C :   -0.225375
   2 C :   -0.162390
   3 O :   -0.308317
   4 C :   -0.306573
   5 H :    0.154740
   6 H :    0.154743
   7 H :    0.160053
   8 H :    0.149147
   9 H :    0.149181
  10 H :    0.139865
  11 H :    0.139831
  12 H :    0.149168
  13 H :    0.161350
  14 H :    0.149122
Sum of atomic charges:   -0.0000000

LOEWDIN ATOMIC CHARGES
----------------------
   0 C :   -0.426378
   1 C :   -0.289762
   2 C :    0.010161
   3 O :   -0.841681
   4 C :   -0.076541
   5 H :    0.154737
   6 H :    0.154761
   7 H :    0.156060
   8 H :    0.159180
   9 H :    0.159223
  10 H :    0.167962
  11 H :    0.167915
  12 H :    0.162860
  13 H :    0.178675
  14 H :    0.162829

  Mayer bond orders larger than 0.100000
B(  0-C ,  1-C ) :   0.9004 B(  0-C ,  5-H ) :   0.9762 B(  0-C ,  6-H ) :   0.9762
B(  0-C ,  7-H ) :   0.9667 B(  1-C ,  2-C ) :   0.9413 B(  1-C ,  8-H ) :   0.9661
B(  1-C ,  9-H ) :   0.9661 B(  2-C ,  3-O ) :   0.8941 B(  2-C , 10-H ) :   0.9510
B(  2-C , 11-H ) :   0.9511 B(  3-O ,  4-C ) :   0.8883 B(  4-C , 12-H ) :   0.9619
B(  4-C , 13-H ) :   0.9668 B(  4-C , 14-H ) :   0.9619

Dispersion correction           -0.002886069
FINAL SINGLE POINT ENERGY      -233.584688290892

DIPOLE MOMENT
-------------

Method             : SCF
Type of density    : Electron Density
Multiplicity       :   1
Irrep              :   0
Energy             :  -233.5917879997939224 Eh
Relativity type    :
Basis              : AO
                                X                 Y                 Z
Electronic contribution:      2.512192365       0.070903141       1.592786730
Nuclear contribution   :     -2.587831138      -0.097398660      -2.284797074
                        -----------------------------------------
Total Dipole Moment    :     -0.075638773      -0.026495520      -0.692010345
                        -----------------------------------------
Magnitude (a.u.)       :      0.696635883
Magnitude (Debye)      :      1.770707695

Rotational constants in cm-1:             0.670966             0.070628             0.067126
Rotational constants in MHz :         20115.068600          2117.376055          2012.399271

                             ****ORCA TERMINATED NORMALLY****
TOTAL RUN TIME: 0 days 0 hours 0 minutes 19 seconds 655 msec
