                         Program Version 6.0.0  -   RELEASE  -
|  1> ! pbe def2-sv(p) def2/J RI DEFGRID1 loosescf d4 GCP(DFT/SV(P)) printgap
|  2> %output
|  3>     printlevel normal
|  4> end
|  5> * xyz 0 1
|  6> C -2.0624505027 0.5685380165 -0.6878962597
|  7> C -1.3809060815 0.3467451526 0.6574768648
|  8> C 0.0388297198 -0.2215374516 0.5324111886
|  9> C 0.9651259003 0.6849874497 -0.2898553946
| 10> C 2.4404150213 0.3385571034 -0.1127800671
| 11> O -0.0754031253 -1.5189379208 -0.0303228373
| 12> H -1.5819105953 1.369682491 -1.2425811894
| 13> H -2.0167543724 -0.3445730726 -1.2757672573
| 14> H -3.105658726 0.8330907878 -0.5363382342
| 15> H -1.3334541873 1.2828359794 1.2155727169
| 16> H -1.9665110575 -0.3685177837 1.2382987563
| 17> H 0.4527971748 -0.3117277568 1.5522700212
| 18> H 0.6929912508 0.5986128356 -1.3425909987
| 19> H 0.7986110053 1.7160840529 0.0245979455
| 20> H 2.6588756133 -0.6623873559 -0.4780225144
| 21> H 3.0567039968 1.0391452778 -0.6702523147
| 22> H 2.7217854454 0.3934457867 0.9368949441
| 23> H 0.8073889437 -1.8987799118 -0.1247524785
| 24> *
| 25>
| 26>                          ****END OF INPUT****

CARTESIAN COORDINATES (ANGSTROEM)
---------------------------------
  C     -2.062451    0.568538   -0.687896
  C     -1.380906    0.346745    0.657477
  C      0.038830   -0.221537    0.532411
  C      0.965126    0.684987   -0.289855
  C      2.440415    0.338557   -0.112780
  O     -0.075403   -1.518938   -0.030323
  H     -1.581911    1.369682   -1.242581
  H     -2.016754   -0.344573   -1.275767
  H     -3.105659    0.833091   -0.536338
  H     -1.333454    1.282836    1.215573
  H     -1.966511   -0.368518    1.238299
  H      0.452797   -0.311728    1.552270
  H      0.692991    0.598613   -1.342591
  H      0.798611    1.716084    0.024598
  H      2.658876   -0.662387   -0.478023
  H      3.056704    1.039145   -0.670252
  H      2.721785    0.393446    0.936895
  H      0.807389   -1.898780   -0.124752

 Total Charge           Charge          ....    0
 Multiplicity           Mult            ....    1
 Number of Electrons    NEL             ....   50
 Basis Dimension        Dim             ....  108

ORBITAL ENERGIES
----------------

  NO   OCC          E(Eh)            E(eV)
   0   2.0000     -18.738413      -509.8981
   1   2.0000      -9.931930      -270.2615
   2   2.0000      -9.883345      -268.9395
   3   2.0000      -9.881871      -268.8994
   4   2.0000      -9.877644      -268.7844
   5   2.0000      -9.864672      -268.4314
   6   2.0000      -0.915845       -24.9214
   7   2.0000      -0.712130       -19.3780
   8   2.0000      -0.675892       -18.3919
   9   2.0000      -0.600319       -16.3355
  10   2.0000      -0.548418       -14.9232
  11   2.0000      -0.501541       -13.6476
  12   2.0000      -0.459465       -12.5027
  13   2.0000      -0.409927       -11.1547
  14   2.0000      -0.399570       -10.8729
  15   2.0000      -0.376884       -10.2555
  16   2.0000      -0.372744       -10.1429
  17   2.0000      -0.334675        -9.1070
  18   2.0000      -0.327609        -8.9147
  19   2.0000      -0.313686        -8.5358
  20   2.0000      -0.307651        -8.3716
  21   2.0000      -0.294145        -8.0041
  22   2.0000      -0.284338        -7.7372
  23   2.0000      -0.260590        -7.0910
  24   2.0000      -0.209985        -5.7140
  25   0.0000       0.019898         0.5415
  26   0.0000       0.054895         1.4938
  27   0.0000       0.067349         1.8327
  28   0.0000       0.070877         1.9287
  29   0.0000       0.090354         2.4587

MULLIKEN ATOMIC CHARGES
-----------------------
   0 C :   -0.295734
   1 C :   -0.142376
   2 C :    0.026829
   3 C :   -0.198668
   4 C :   -0.272459
   5 O :   -0.427435
   6 H :    0.100656
   7 H :    0.115655
   8 H :    0.099816
   9 H :    0.081353
  10 H :    0.087542
  11 H :    0.051844
  12 H :    0.097991
  13 H :    0.083626
  14 H :    0.084372
  15 H :    0.109821
  16 H :    0.101923
  17 H :    0.295245
Sum of atomic charges:   -0.0000000

LOEWDIN ATOMIC CHARGES
----------------------
   0 C :   -0.344945
   1 C :   -0.234597
   2 C :   -0.051106
   3 C :   -0.251372
   4 C :   -0.343887
   5 O :   -0.331900
   6 H :    0.114487
   7 H :    0.123859
   8 H :    0.118621
   9 H :    0.115962
  10 H :    0.120490
  11 H :    0.092827
  12 H :    0.121043
  13 H :    0.120267
  14 H :    0.108503
  15 H :    0.123767
  16 H :    0.117999
  17 H :    0.279979

  Mayer bond orders larger than 0.100000
B(  0-C ,  1-C ) :   1.1501 B(  0-C ,  6-H ) :   0.9505 B(  0-C ,  7-H ) :   0.9494
B(  0-C ,  8-H ) :   0.9520 B(  1-C ,  2-C ) :   1.0856 B(  1-C ,  9-H ) :   0.9222
B(  1-C , 10-H ) :   0.9186 B(  2-C ,  3-C ) :   1.0603 B(  2-C ,  5-O ) :   1.0497
B(  2-C , 11-H ) :   0.9063 B(  3-C ,  4-C ) :   1.1482 B(  3-C , 12-H ) :   0.9089
B(  3-C , 13-H ) :   0.9140 B(  4-C , 14-H ) :   0.9453 B(  4-C , 15-H ) :   0.9519
B(  4-C , 16-H ) :   0.9531 B(  5-O , 17-H ) :   0.8487

Dispersion correction           -0.012833277
FINAL SINGLE POINT ENERGY      -272.304590555875

DIPOLE MOMENT
-------------

Method             : SCF
Type of density    : Electron Density
Multiplicity       :   1
Irrep              :   0
Energy             :  -272.3745443703055571 Eh
Relativity type    :
Basis              : AO
                                X                 Y                 Z
Electronic contribution:     -0.561933700      -3.188017456       0.753055124
Nuclear contribution   :      1.110477754       3.398857841      -0.659670007
                        -----------------------------------------
Total Dipole Moment    :      0.548544054       0.210840385       0.093385117
                        -----------------------------------------
Magnitude (a.u.)       :      0.595042038
Magnitude (Debye)      :      1.512476662

Rotational constants in cm-1:             0.185560             0.072868             0.062588
Rotational constants in MHz :          5562.949161          2184.526946          1876.353113

                             ****ORCA TERMINATED NORMALLY****
TOTAL RUN TIME: 0 days 0 hours 0 minutes 8 seconds 105 msec
