                         Program Version 6.0.0  -   RELEASE  -
|  1> ! r2scan-3c def2/J RI DEFGRID2 scfconv6 printgap
|  2> %output
|  3>     printlevel normal
|  4> end
|  5> * xyz 0 1
|  6> C -2.8939568497 0.9739563695 1.054123424
|  7> C -2.9349030433 -0.385492518 0.3678960674
|  8> C -2.0605678141 -0.4237049348 -0.89325413
|  9> C -0.6058448884 -0.2511738189 -0.5612077133
| 10> C 0.124448793 -1.3081032847 -0.0285744262
| 11> C 1.4523474748 -1.1579670264 0.3154803822
| 12> C 2.0850289882 0.0681146455 0.1319537903
| 13> C 1.3673750176 1.1306808949 -0.4012839319
| 14> C 0.0363137765 0.9655594833 -0.7413530181
| 15> O 3.3977732184 0.1739398578 0.4851080331
| 16> H -3.5229389482 0.9711219727 1.9409952383
| 17> H -1.8768735506 1.2176348575 1.3531691963
| 18> H -3.2509523844 1.7510388446 0.381832819
| 19> H -3.9644705765 -0.6206277458 0.0903340685
| 20> H -2.5906981237 -1.1528392764 1.0642946575
| 21> H -2.3809154611 0.3673117397 -1.5735213085
| 22> H -2.2068611302 -1.3841159359 -1.3922551918
| 23> H -0.3536357209 -2.2658304151 0.1165846176
| 24> H 2.0208832749 -1.9772913311 0.7272101613
| 25> H 1.8471563889 2.0874739087 -0.5511686201
| 26> H -0.5088897885 1.8012573783 -1.1551719077
| 27> H 3.7239010073 1.0690373937 0.3088537451
| 28> *
| 29>
| 30>                          ****END OF INPUT****

CARTESIAN COORDINATES (ANGSTROEM)
---------------------------------
  C     -2.893957    0.973956    1.054123
  C     -2.934903   -0.385493    0.367896
  C     -2.060568   -0.423705   -0.893254
  C     -0.605845   -0.251174   -0.561208
  C      0.124449   -1.308103   -0.028574
  C      1.452347   -1.157967    0.315480
  C      2.085029    0.068115    0.131954
  C      1.367375    1.130681   -0.401284
  C      0.036314    0.965559   -0.741353
  O      3.397773    0.173940    0.485108
  H     -3.522939    0.971122    1.940995
  H     -1.876874    1.217635    1.353169
  H     -3.250952    1.751039    0.381833
  H     -3.964471   -0.620628    0.090334
  H     -2.590698   -1.152839    1.064295
  H     -2.380915    0.367312   -1.573521
  H     -2.206861   -1.384116   -1.392255
  H     -0.353636   -2.265830    0.116585
  H      2.020883   -1.977291    0.727210
  H      1.847156    2.087474   -0.551169
  H     -0.508890    1.801257   -1.155172
  H      3.723901    1.069037    0.308854

 Total Charge           Charge          ....    0
 Multiplicity           Mult            ....    1
 Number of Electrons    NEL             ....   74
 Basis Dimension        Dim             ....  255

ORBITAL ENERGIES
----------------

  NO   OCC          E(Eh)            E(eV)
   0   2.0000     -18.983505      -516.5674
   1   2.0000     -10.093632      -274.6617
   2   2.0000     -10.033207      -273.0175
   3   2.0000     -10.032615      -273.0013
   4   2.0000     -10.032036      -272.9856
   5   2.0000     -10.031598      -272.9737
   6   2.0000     -10.028706      -272.8950
   7   2.0000     -10.028553      -272.8908
   8   2.0000     -10.026061      -272.8230
   9   2.0000     -10.012424      -272.4519
  10   2.0000      -1.026429       -27.9305
  11   2.0000      -0.825764       -22.4702
  12   2.0000      -0.762425       -20.7466
  13   2.0000      -0.718141       -19.5416
  14   2.0000      -0.706632       -19.2284
  15   2.0000      -0.644178       -17.5290
  16   2.0000      -0.594639       -16.1809
  17   2.0000      -0.569762       -15.5040
  18   2.0000      -0.541049       -14.7227
  19   2.0000      -0.516083       -14.0433
  20   2.0000      -0.452777       -12.3207
  21   2.0000      -0.445381       -12.1194
  22   2.0000      -0.415096       -11.2953
  23   2.0000      -0.412006       -11.2113
  24   2.0000      -0.394304       -10.7296
  25   2.0000      -0.389240       -10.5918
  26   2.0000      -0.379176       -10.3179
  27   2.0000      -0.370772       -10.0892
  28   2.0000      -0.344543        -9.3755
  29   2.0000      -0.335216        -9.1217
  30   2.0000      -0.322152        -8.7662
  31   2.0000      -0.308110        -8.3841
  32   2.0000      -0.298546        -8.1238
  33   2.0000      -0.293891        -7.9972
  34   2.0000      -0.293674        -7.9913
  35   2.0000      -0.236734        -6.4419
  36   2.0000      -0.198019        -5.3884
  37   0.0000      -0.032572        -0.8863
  38   0.0000      -0.013398        -0.3646
  39   0.0000       0.057458         1.5635
  40   0.0000       0.077119         2.0985
  41   0.0000       0.096867         2.6359

MULLIKEN ATOMIC CHARGES
-----------------------
   0 C :   -0.506228
   1 C :   -0.214448
   2 C :   -0.343411
   3 C :    0.132218
   4 C :   -0.182213
   5 C :   -0.315942
   6 C :    0.433242
   7 C :   -0.350668
   8 C :   -0.189141
   9 O :   -0.416679
  10 H :    0.144808
  11 H :    0.167368
  12 H :    0.141723
  13 H :    0.141035
  14 H :    0.147972
  15 H :    0.154189
  16 H :    0.154268
  17 H :    0.149810
  18 H :    0.155326
  19 H :    0.136653
  20 H :    0.150206
  21 H :    0.309911
Sum of atomic charges:   -0.0000000

LOEWDIN ATOMIC CHARGES
----------------------
   0 C :   -0.423254
   1 C :   -0.302724
   2 C :   -0.282890
   3 C :   -0.116382
   4 C :   -0.147565
   5 C :   -0.139809
   6 C :    0.177993
   7 C :   -0.172177
   8 C :   -0.154823
   9 O :   -0.499894
  10 H :    0.150444
  11 H :    0.159119
  12 H :    0.148671
  13 H :    0.150387
  14 H :    0.154450
  15 H :    0.161929
  16 H :    0.164928
  17 H :    0.170698
  18 H :    0.179480
  19 H :    0.167911
  20 H :    0.170096
  21 H :    0.283413

  Mayer bond orders larger than 0.100000
B(  0-C ,  1-C ) :   0.8787 B(  0-C , 10-H ) :   0.9674 B(  0-C , 11-H ) :   0.9788
B(  0-C , 12-H ) :   0.9789 B(  1-C ,  2-C ) :   0.9049 B(  1-C , 13-H ) :   0.9623
B(  1-C , 14-H ) :   0.9903 B(  2-C ,  3-C ) :   0.7847 B(  2-C , 15-H ) :   1.0173
B(  2-C , 16-H ) :   0.9819 B(  3-C ,  4-C ) :   1.3892 B(  3-C ,  8-C ) :   1.4288
B(  4-C ,  5-C ) :   1.4255 B(  4-C , 17-H ) :   0.9425 B(  5-C ,  6-C ) :   1.4255
B(  5-C , 18-H ) :   0.9492 B(  6-C ,  7-C ) :   1.3535 B(  6-C ,  9-O ) :   0.9157
B(  7-C ,  8-C ) :   1.4281 B(  7-C , 19-H ) :   0.9310 B(  8-C , 20-H ) :   0.9324
B(  9-O , 21-H ) :   0.8841

Dispersion correction           -0.007466217
FINAL SINGLE POINT ENERGY      -425.300804801268

DIPOLE MOMENT
-------------

Method             : SCF
Type of density    : Electron Density
Multiplicity       :   1
Irrep              :   0
Energy             :  -425.3013275163519324 Eh
Relativity type    :
Basis              : AO
                                X                 Y                 Z
Electronic contribution:     12.092999968      -1.304721654      -1.360381077
Nuclear contribution   :    -12.206142168       1.751484412       1.237276637
                        -----------------------------------------
Total Dipole Moment    :     -0.113142200       0.446762758      -0.123104440
                        -----------------------------------------
Magnitude (a.u.)       :      0.477024971
Magnitude (Debye)      :      1.212501116

Rotational constants in cm-1:             0.103521             0.024719             0.022987
Rotational constants in MHz :          3103.485299           741.049269           689.142178

                             ****ORCA TERMINATED NORMALLY****
TOTAL RUN TIME: 0 days 0 hours 0 minutes 36 seconds 606 msec
