                         Program Version 6.0.0  -   RELEASE  -
|  1> ! r2scan-3c def2/J RI DEFGRID2 scfconv6 printgap
|  2> %output
|  3>     printlevel normal
|  4> end
|  5> %cpcm
|  6>     smd true
|  7>     smdsolvent "water"
|  8> end
|  9> * xyz 0 1
| 10> C -2.8939568497 0.9739563695 1.054123424
| 11> C -2.9349030433 -0.385492518 0.3678960674
| 12> C -2.0605678141 -0.4237049348 -0.89325413
| 13> C -0.6058448884 -0.2511738189 -0.5612077133
| 14> C 0.124448793 -1.3081032847 -0.0285744262
| 15> C 1.4523474748 -1.1579670264 0.3154803822
| 16> C 2.0850289882 0.0681146455 0.1319537903
| 17> C 1.3673750176 1.1306808949 -0.4012839319
| 18> C 0.0363137765 0.9655594833 -0.7413530181
| 19> O 3.3977732184 0.1739398578 0.4851080331
| 20> H -3.5229389482 0.9711219727 1.9409952383
| 21> H -1.8768735506 1.2176348575 1.3531691963
| 22> H -3.2509523844 1.7510388446 0.381832819
| 23> H -3.9644705765 -0.6206277458 0.0903340685
| 24> H -2.5906981237 -1.1528392764 1.0642946575
| 25> H -2.3809154611 0.3673117397 -1.5735213085
| 26> H -2.2068611302 -1.3841159359 -1.3922551918
| 27> H -0.3536357209 -2.2658304151 0.1165846176
| 28> H 2.0208832749 -1.9772913311 0.7272101613
| 29> H 1.8471563889 2.0874739087 -0.5511686201
| 30> H -0.5088897885 1.8012573783 -1.1551719077
| 31> H 3.7239010073 1.0690373937 0.3088537451
| 32> *
| 33>
| 34>                          ****END OF INPUT****

CARTESIAN COORDINATES (ANGSTROEM)
---------------------------------
  C     -2.893957    0.973956    1.054123
  C     -2.934903   -0.385493    0.367896
  C     -2.060568   -0.423705   -0.893254
  C     -0.605845   -0.251174   -0.561208
  C      0.124449   -1.308103   -0.028574
  C      1.452347   -1.157967    0.315480
  C      2.085029    0.068115    0.131954
  C      1.367375    1.130681   -0.401284
  C      0.036314    0.965559   -0.741353
  O      3.397773    0.173940    0.485108
  H     -3.522939    0.971122    1.940995
  H     -1.876874    1.217635    1.353169
  H     -3.250952    1.751039    0.381833
  H     -3.964471   -0.620628    0.090334
  H     -2.590698   -1.152839    1.064295
  H     -2.380915    0.367312   -1.573521
  H     -2.206861   -1.384116   -1.392255
  H     -0.353636   -2.265830    0.116585
  H      2.020883   -1.977291    0.727210
  H      1.847156    2.087474   -0.551169
  H     -0.508890    1.801257   -1.155172
  H      3.723901    1.069037    0.308854

 Total Charge           Charge          ....    0
 Multiplicity           Mult            ....    1
 Number of Electrons    NEL             ....   74
 Basis Dimension        Dim             ....  255

ORBITAL ENERGIES
----------------

  NO   OCC          E(Eh)            E(eV)
   0   2.0000     -18.981019      -516.4998
   1   2.0000     -10.093333      -274.6536
   2   2.0000     -10.030839      -272.9530
   3   2.0000     -10.030229      -272.9364
   4   2.0000     -10.029732      -272.9229
   5   2.0000     -10.028872      -272.8995
   6   2.0000     -10.028700      -272.8948
   7   2.0000     -10.021184      -272.6903
   8   2.0000     -10.019462      -272.6434
   9   2.0000     -10.007144      -272.3082
  10   2.0000      -1.023928       -27.8625
  11   2.0000      -0.825346       -22.4588
  12   2.0000      -0.757817       -20.6213
  13   2.0000      -0.716783       -19.5047
  14   2.0000      -0.703664       -19.1477
  15   2.0000      -0.639698       -17.4071
  16   2.0000      -0.590790       -16.0762
  17   2.0000      -0.566518       -15.4157
  18   2.0000      -0.535710       -14.5774
  19   2.0000      -0.511551       -13.9200
  20   2.0000      -0.449599       -12.2342
  21   2.0000      -0.440984       -11.9998
  22   2.0000      -0.409336       -11.1386
  23   2.0000      -0.406954       -11.0738
  24   2.0000      -0.390164       -10.6169
  25   2.0000      -0.384985       -10.4760
  26   2.0000      -0.381111       -10.3706
  27   2.0000      -0.367286        -9.9944
  28   2.0000      -0.342345        -9.3157
  29   2.0000      -0.330872        -9.0035
  30   2.0000      -0.320015        -8.7080
  31   2.0000      -0.303819        -8.2673
  32   2.0000      -0.292237        -7.9522
  33   2.0000      -0.291775        -7.9396
  34   2.0000      -0.288655        -7.8547
  35   2.0000      -0.238780        -6.4975
  36   2.0000      -0.199534        -5.4296
  37   0.0000      -0.033320        -0.9067
  38   0.0000      -0.014653        -0.3987
  39   0.0000       0.079364         2.1596
  40   0.0000       0.089014         2.4222
  41   0.0000       0.103030         2.8036

MULLIKEN ATOMIC CHARGES
-----------------------
   0 C :   -0.535557
   1 C :   -0.238976
   2 C :   -0.312407
   3 C :    0.078208
   4 C :   -0.213440
   5 C :   -0.357003
   6 C :    0.385736
   7 C :   -0.354595
   8 C :   -0.205096
   9 O :   -0.463949
  10 H :    0.156526
  11 H :    0.163656
  12 H :    0.156916
  13 H :    0.152603
  14 H :    0.158633
  15 H :    0.168907
  16 H :    0.164555
  17 H :    0.180972
  18 H :    0.181973
  19 H :    0.182199
  20 H :    0.180834
  21 H :    0.369304
Sum of atomic charges:   -0.0000000

LOEWDIN ATOMIC CHARGES
----------------------
   0 C :   -0.430293
   1 C :   -0.303458
   2 C :   -0.284179
   3 C :   -0.124863
   4 C :   -0.158172
   5 C :   -0.158932
   6 C :    0.163533
   7 C :   -0.170230
   8 C :   -0.163831
   9 O :   -0.519088
  10 H :    0.152996
  11 H :    0.156133
  12 H :    0.153370
  13 H :    0.154492
  14 H :    0.156326
  15 H :    0.167436
  16 H :    0.169189
  17 H :    0.181504
  18 H :    0.186818
  19 H :    0.185493
  20 H :    0.180691
  21 H :    0.305064

  Mayer bond orders larger than 0.100000
B(  0-C ,  1-C ) :   0.8742 B(  0-C , 10-H ) :   0.9660 B(  0-C , 11-H ) :   0.9787
B(  0-C , 12-H ) :   0.9744 B(  1-C ,  2-C ) :   0.8972 B(  1-C , 13-H ) :   0.9606
B(  1-C , 14-H ) :   0.9940 B(  2-C ,  3-C ) :   0.7994 B(  2-C , 15-H ) :   1.0099
B(  2-C , 16-H ) :   0.9750 B(  3-C ,  4-C ) :   1.3692 B(  3-C ,  8-C ) :   1.3854
B(  4-C ,  5-C ) :   1.4084 B(  4-C , 17-H ) :   0.9492 B(  5-C ,  6-C ) :   1.3652
B(  5-C , 18-H ) :   0.9588 B(  6-C ,  7-C ) :   1.3454 B(  6-C ,  9-O ) :   0.9210
B(  7-C ,  8-C ) :   1.3812 B(  7-C , 19-H ) :   0.9523 B(  8-C , 20-H ) :   0.9481
B(  9-O , 21-H ) :   0.8525

Dispersion correction           -0.007466217
FINAL SINGLE POINT ENERGY      -425.308772086927

DIPOLE MOMENT
-------------

Method             : SCF
Type of density    : Electron Density
Multiplicity       :   1
Irrep              :   0
Energy             :  -425.3092948020116069 Eh
Relativity type    :
Basis              : AO
                                X                 Y                 Z
Electronic contribution:     11.990052318      -1.066168812      -1.451108003
Nuclear contribution   :    -12.206142168       1.751484412       1.237276637
                        -----------------------------------------
Total Dipole Moment    :     -0.216089849       0.685315601      -0.213831366
                        -----------------------------------------
Magnitude (a.u.)       :      0.749717379
Magnitude (Debye)      :      1.905630135

Rotational constants in cm-1:             0.103521             0.024719             0.022987
Rotational constants in MHz :          3103.485299           741.049269           689.142178

                             ****ORCA TERMINATED NORMALLY****
TOTAL RUN TIME: 0 days 0 hours 0 minutes 44 seconds 752 msec
