                         Program Version 6.0.0  -   RELEASE  -
|  1> ! pbe def2-sv(p) def2/J RI DEFGRID1 loosescf d4 GCP(DFT/SV(P)) printgap
|  2> %output
|  3>     printlevel normal
|  4> end
|  5> * xyz 0 1
|  6> C -2.231130166 0.8372032249 0.746078992
|  7> C -1.803447152 0.4029939057 -0.6505349951
|  8> C -0.9053137216 -0.8410144356 -0.6106463227
|  9> C 0.4072001608 -0.5358090908 0.0614574486
| 10> O 0.7793594377 -1.0016725779 1.1185271003
| 11> O 1.1325620003 0.3241767773 -0.6454943416
| 12> C 2.3992837202 0.7159608139 -0.1131764199
| 13> H -1.3628853503 1.057435782 1.3644688369
| 14> H -2.8518498551 1.7276195199 0.6934642939
| 15> H -2.7985125172 0.0479155046 1.2335278165
| 16> H -1.2627318691 1.2128451335 -1.1424829896
| 17> H -2.6877385188 0.1719610992 -1.2451786595
| 18> H -0.6935724654 -1.1662276918 -1.6294259309
| 19> H -1.3922620405 -1.6457903555 -0.060397409
| 20> H 3.0156986945 -0.1649667173 0.0703024179
| 21> H 2.2601521589 1.2520521597 0.8264742089
| 22> H 2.8473772542 1.3578754947 -0.8649441909
| 23> *
| 24>
| 25>                          ****END OF INPUT****

CARTESIAN COORDINATES (ANGSTROEM)
---------------------------------
  C     -2.231130    0.837203    0.746079
  C     -1.803447    0.402994   -0.650535
  C     -0.905314   -0.841014   -0.610646
  C      0.407200   -0.535809    0.061457
  O      0.779359   -1.001673    1.118527
  O      1.132562    0.324177   -0.645494
  C      2.399284    0.715961   -0.113176
  H     -1.362885    1.057436    1.364469
  H     -2.851850    1.727620    0.693464
  H     -2.798513    0.047916    1.233528
  H     -1.262732    1.212845   -1.142483
  H     -2.687739    0.171961   -1.245179
  H     -0.693572   -1.166228   -1.629426
  H     -1.392262   -1.645790   -0.060397
  H      3.015699   -0.164967    0.070302
  H      2.260152    1.252052    0.826474
  H      2.847377    1.357875   -0.864944

 Total Charge           Charge          ....    0
 Multiplicity           Mult            ....    1
 Number of Electrons    NEL             ....   56
 Basis Dimension        Dim             ....  118

ORBITAL ENERGIES
----------------

  NO   OCC          E(Eh)            E(eV)
   0   2.0000     -18.799697      -511.5658
   1   2.0000     -18.731017      -509.6969
   2   2.0000     -10.003961      -272.2216
   3   2.0000      -9.942422      -270.5471
   4   2.0000      -9.896793      -269.3054
   5   2.0000      -9.894576      -269.2451
   6   2.0000      -9.877561      -268.7821
   7   2.0000      -1.005697       -27.3664
   8   2.0000      -0.907423       -24.6922
   9   2.0000      -0.728218       -19.8158
  10   2.0000      -0.669544       -18.2192
  11   2.0000      -0.620631       -16.8882
  12   2.0000      -0.540181       -14.6991
  13   2.0000      -0.506846       -13.7920
  14   2.0000      -0.450906       -12.2698
  15   2.0000      -0.437013       -11.8917
  16   2.0000      -0.413225       -11.2444
  17   2.0000      -0.399945       -10.8831
  18   2.0000      -0.396830       -10.7983
  19   2.0000      -0.365749        -9.9525
  20   2.0000      -0.349867        -9.5204
  21   2.0000      -0.343013        -9.3339
  22   2.0000      -0.315962        -8.5978
  23   2.0000      -0.300854        -8.1867
  24   2.0000      -0.299229        -8.1424
  25   2.0000      -0.297347        -8.0912
  26   2.0000      -0.257629        -7.0105
  27   2.0000      -0.213880        -5.8200
  28   0.0000      -0.020331        -0.5532
  29   0.0000       0.039053         1.0627
  30   0.0000       0.058599         1.5946
  31   0.0000       0.078018         2.1230
  32   0.0000       0.083491         2.2719

MULLIKEN ATOMIC CHARGES
-----------------------
   0 C :   -0.285865
   1 C :   -0.217989
   2 C :   -0.099979
   3 C :    0.076403
   4 O :   -0.206673
   5 O :   -0.244359
   6 C :   -0.107534
   7 H :    0.118519
   8 H :    0.106148
   9 H :    0.103029
  10 H :    0.102580
  11 H :    0.094985
  12 H :    0.105379
  13 H :    0.097506
  14 H :    0.120142
  15 H :    0.117195
  16 H :    0.120514
Sum of atomic charges:    0.0000000

LOEWDIN ATOMIC CHARGES
----------------------
   0 C :   -0.342435
   1 C :   -0.228687
   2 C :   -0.242078
   3 C :    0.031834
   4 O :   -0.167253
   5 O :   -0.076165
   6 C :   -0.203052
   7 H :    0.120965
   8 H :    0.120695
   9 H :    0.120522
  10 H :    0.119530
  11 H :    0.118746
  12 H :    0.136640
  13 H :    0.132193
  14 H :    0.119914
  15 H :    0.118593
  16 H :    0.120038

  Mayer bond orders larger than 0.100000
B(  0-C ,  1-C ) :   1.1523 B(  0-C ,  7-H ) :   0.9485 B(  0-C ,  8-H ) :   0.9515
B(  0-C ,  9-H ) :   0.9534 B(  1-C ,  2-C ) :   1.1091 B(  1-C , 10-H ) :   0.9252
B(  1-C , 11-H ) :   0.9274 B(  2-C ,  3-C ) :   1.0332 B(  2-C , 12-H ) :   0.8954
B(  2-C , 13-H ) :   0.9105 B(  3-C ,  4-O ) :   2.0624 B(  3-C ,  5-O ) :   1.1940
B(  5-O ,  6-C ) :   0.9422 B(  6-C , 14-H ) :   0.9509 B(  6-C , 15-H ) :   0.9532
B(  6-C , 16-H ) :   0.9589

Dispersion correction           -0.012453661
FINAL SINGLE POINT ENERGY      -346.239513833814

DIPOLE MOMENT
-------------

Method             : SCF
Type of density    : Electron Density
Multiplicity       :   1
Irrep              :   0
Energy             :  -346.3040705622553332 Eh
Relativity type    :
Basis              : AO
                                X                 Y                 Z
Electronic contribution:      4.624887123      -3.116572185       0.120026442
Nuclear contribution   :     -4.593369631       3.602574481      -0.700544570
                        -----------------------------------------
Total Dipole Moment    :      0.031517492       0.486002295      -0.580518128
                        -----------------------------------------
Magnitude (a.u.)       :      0.757755159
Magnitude (Debye)      :      1.926060547

Rotational constants in cm-1:             0.149222             0.054506             0.051339
Rotational constants in MHz :          4473.549997          1634.047961          1539.098884

                             ****ORCA TERMINATED NORMALLY****
TOTAL RUN TIME: 0 days 0 hours 0 minutes 10 seconds 100 msec
