                         Program Version 6.0.0  -   RELEASE  -
|  1> ! r2scan-3c def2/J RI DEFGRID2 scfconv6 printgap
|  2> %output
|  3>     printlevel normal
|  4> end
|  5> %cpcm
|  6>     smd true
|  7>     smdsolvent "water"
|  8> end
|  9> * xyz 0 1
| 10> C -2.289057254 1.09484417 0.1884637853
| 11> C -1.8100100903 -0.3521413765 0.1594140279
| 12> C -0.5587588153 -0.6084231837 -0.6864400916
| 13> C 0.7872047434 -0.1485730581 -0.0832838351
| 14> C 1.0621841861 1.3381305845 -0.3441538825
| 15> C 1.915335088 -0.9738133902 -0.7233555727
| 16> O 0.7387162957 -0.4069695682 1.3159230284
| 17> H -2.3231449633 1.5094897859 -0.8166256353
| 18> H -1.6390066677 1.7121246858 0.801365103
| 19> H -3.2890354982 1.1431408357 0.6140949094
| 20> H -1.6180828745 -0.6934219585 1.1773071596
| 21> H -2.6099026478 -0.9707954528 -0.2549330174
| 22> H -0.4925572879 -1.6883804929 -0.8351964483
| 23> H -0.6756993188 -0.1429525332 -1.6660317288
| 24> H 2.0563925569 1.6027464056 0.0117692246
| 25> H 0.3377336873 1.9611003867 0.1692017443
| 26> H 1.0118887849 1.5454816716 -1.408864199
| 27> H 2.8875579459 -0.6251711066 -0.3808991802
| 28> H 1.8760348283 -0.8842085602 -1.8049897886
| 29> H 1.8074562146 -2.0217472266 -0.4526735332
| 30> H 1.5869564954 -0.1583562404 1.7059563249
| 31> *
| 32>
| 33>                          ****END OF INPUT****

CARTESIAN COORDINATES (ANGSTROEM)
---------------------------------
  C     -2.289057    1.094844    0.188464
  C     -1.810010   -0.352141    0.159414
  C     -0.558759   -0.608423   -0.686440
  C      0.787205   -0.148573   -0.083284
  C      1.062184    1.338131   -0.344154
  C      1.915335   -0.973813   -0.723356
  O      0.738716   -0.406970    1.315923
  H     -2.323145    1.509490   -0.816626
  H     -1.639007    1.712125    0.801365
  H     -3.289035    1.143141    0.614095
  H     -1.618083   -0.693422    1.177307
  H     -2.609903   -0.970795   -0.254933
  H     -0.492557   -1.688380   -0.835196
  H     -0.675699   -0.142953   -1.666032
  H      2.056393    1.602746    0.011769
  H      0.337734    1.961100    0.169202
  H      1.011889    1.545482   -1.408864
  H      2.887558   -0.625171   -0.380899
  H      1.876035   -0.884209   -1.804990
  H      1.807456   -2.021747   -0.452674
  H      1.586956   -0.158356    1.705956

 Total Charge           Charge          ....    0
 Multiplicity           Mult            ....    1
 Number of Electrons    NEL             ....   58
 Basis Dimension        Dim             ....  208

ORBITAL ENERGIES
----------------

  NO   OCC          E(Eh)            E(eV)
   0   2.0000     -18.946115      -515.5500
   1   2.0000     -10.082981      -274.3719
   2   2.0000     -10.014986      -272.5216
   3   2.0000     -10.014553      -272.5098
   4   2.0000     -10.007084      -272.3066
   5   2.0000     -10.006059      -272.2787
   6   2.0000     -10.005994      -272.2769
   7   2.0000      -0.984954       -26.8020
   8   2.0000      -0.760424       -20.6922
   9   2.0000      -0.717543       -19.5253
  10   2.0000      -0.649865       -17.6837
  11   2.0000      -0.639836       -17.4108
  12   2.0000      -0.559343       -15.2205
  13   2.0000      -0.525130       -14.2895
  14   2.0000      -0.449368       -12.2279
  15   2.0000      -0.423080       -11.5126
  16   2.0000      -0.416408       -11.3310
  17   2.0000      -0.393550       -10.7090
  18   2.0000      -0.374495       -10.1905
  19   2.0000      -0.371634       -10.1127
  20   2.0000      -0.352310        -9.5868
  21   2.0000      -0.343438        -9.3454
  22   2.0000      -0.331390        -9.0176
  23   2.0000      -0.316077        -8.6009
  24   2.0000      -0.306552        -8.3417
  25   2.0000      -0.290127        -7.8948
  26   2.0000      -0.288336        -7.8460
  27   2.0000      -0.266139        -7.2420
  28   2.0000      -0.235379        -6.4050
  29   0.0000       0.071410         1.9432
  30   0.0000       0.113679         3.0934
  31   0.0000       0.118065         3.2127
  32   0.0000       0.125435         3.4133
  33   0.0000       0.138349         3.7647

MULLIKEN ATOMIC CHARGES
-----------------------
   0 C :   -0.542953
   1 C :   -0.260312
   2 C :   -0.298771
   3 C :    0.231996
   4 C :   -0.548415
   5 C :   -0.524857
   6 O :   -0.502349
   7 H :    0.158958
   8 H :    0.159923
   9 H :    0.153835
  10 H :    0.160151
  11 H :    0.150220
  12 H :    0.160822
  13 H :    0.164493
  14 H :    0.162148
  15 H :    0.162207
  16 H :    0.176601
  17 H :    0.162607
  18 H :    0.167536
  19 H :    0.166107
  20 H :    0.340053
Sum of atomic charges:   -0.0000000

LOEWDIN ATOMIC CHARGES
----------------------
   0 C :   -0.433816
   1 C :   -0.307612
   2 C :   -0.268440
   3 C :    0.064699
   4 C :   -0.395104
   5 C :   -0.396749
   6 O :   -0.643792
   7 H :    0.152845
   8 H :    0.150358
   9 H :    0.152068
  10 H :    0.164994
  11 H :    0.154113
  12 H :    0.167618
  13 H :    0.169323
  14 H :    0.161239
  15 H :    0.163185
  16 H :    0.166176
  17 H :    0.160509
  18 H :    0.166554
  19 H :    0.163000
  20 H :    0.288835

  Mayer bond orders larger than 0.100000
B(  0-C ,  1-C ) :   0.8656 B(  0-C ,  7-H ) :   0.9801 B(  0-C ,  8-H ) :   0.9808
B(  0-C ,  9-H ) :   0.9684 B(  1-C ,  2-C ) :   0.8769 B(  1-C , 10-H ) :   0.9948
B(  1-C , 11-H ) :   0.9692 B(  2-C ,  3-C ) :   0.9144 B(  2-C , 12-H ) :   0.9717
B(  2-C , 13-H ) :   0.9711 B(  3-C ,  4-C ) :   0.9375 B(  3-C ,  5-C ) :   0.9310
B(  3-C ,  6-O ) :   0.8065 B(  4-C , 14-H ) :   0.9673 B(  4-C , 15-H ) :   0.9591
B(  4-C , 16-H ) :   0.9744 B(  5-C , 17-H ) :   0.9679 B(  5-C , 18-H ) :   0.9714
B(  5-C , 19-H ) :   0.9746 B(  6-O , 20-H ) :   0.8778

Dispersion correction           -0.005752487
FINAL SINGLE POINT ENERGY      -312.207840869689

DIPOLE MOMENT
-------------

Method             : SCF
Type of density    : Electron Density
Multiplicity       :   1
Irrep              :   0
Energy             :  -312.2132066020922707 Eh
Relativity type    :
Basis              : AO
                                X                 Y                 Z
Electronic contribution:      1.641800978      -1.845940898       2.470598822
Nuclear contribution   :     -1.005451469       2.141463712      -2.926791189
                        -----------------------------------------
Total Dipole Moment    :      0.636349508       0.295522814      -0.456192367
                        -----------------------------------------
Magnitude (a.u.)       :      0.836890618
Magnitude (Debye)      :      2.127206899

Rotational constants in cm-1:             0.131377             0.056544             0.053534
Rotational constants in MHz :          3938.576804          1695.144851          1604.913076

                             ****ORCA TERMINATED NORMALLY****
TOTAL RUN TIME: 0 days 0 hours 0 minutes 32 seconds 369 msec
