                         Program Version 6.0.0  -   RELEASE  -
|  1> ! pbe def2-sv(p) def2/J RI DEFGRID1 loosescf d4 GCP(DFT/SV(P)) printgap
|  2> %output
|  3>     printlevel normal
|  4> end
|  5> * xyz 0 1
|  6> C 1.8693696668 -1.23478992 -0.0065811263
|  7> O 0.9376224146 -0.4909973191 -0.8049060663
|  8> S -2.3898e-05 0.4761559348 2.63001e-05
|  9> O -0.7510224707 1.2072995613 -0.9720832066
| 10> O 0.750785594 1.207347098 0.9722396045
| 11> O -0.9372660258 -0.4915473731 0.8048037644
| 12> C -1.8694421428 -1.2347237937 0.0064701991
| 13> H 2.5809124916 -1.6684130787 -0.704537651
| 14> H 1.3378049313 -2.0070210175 0.5485551238
| 15> H 2.3579264652 -0.5512558968 0.6863843977
| 16> H -2.3623399793 -0.5498131114 -0.6820705881
| 17> H -2.577157175 -1.6733895505 0.7051108814
| 18> H -1.3374199104 -2.0029266862 -0.5538156923
| 19> *
| 20>
| 21>                          ****END OF INPUT****

CARTESIAN COORDINATES (ANGSTROEM)
---------------------------------
  C      1.869370   -1.234790   -0.006581
  O      0.937622   -0.490997   -0.804906
  S     -0.000024    0.476156    0.000026
  O     -0.751022    1.207300   -0.972083
  O      0.750786    1.207347    0.972240
  O     -0.937266   -0.491547    0.804804
  C     -1.869442   -1.234724    0.006470
  H      2.580912   -1.668413   -0.704538
  H      1.337805   -2.007021    0.548555
  H      2.357926   -0.551256    0.686384
  H     -2.362340   -0.549813   -0.682071
  H     -2.577157   -1.673390    0.705111
  H     -1.337420   -2.002927   -0.553816

 Total Charge           Charge          ....    0
 Multiplicity           Mult            ....    1
 Number of Electrons    NEL             ....   66
 Basis Dimension        Dim             ....  114

ORBITAL ENERGIES
----------------

  NO   OCC          E(Eh)            E(eV)
   0   2.0000     -88.284557     -2402.3449
   1   2.0000     -18.826139      -512.2853
   2   2.0000     -18.826101      -512.2843
   3   2.0000     -18.753223      -510.3011
   4   2.0000     -18.753185      -510.3001
   5   2.0000      -9.960813      -271.0475
   6   2.0000      -9.960781      -271.0466
   7   2.0000      -7.895524      -214.8481
   8   2.0000      -5.923505      -161.1868
   9   2.0000      -5.922067      -161.1476
  10   2.0000      -5.919779      -161.0854
  11   2.0000      -1.103732       -30.0341
  12   2.0000      -0.988451       -26.8971
  13   2.0000      -0.960111       -26.1259
  14   2.0000      -0.927332       -25.2340
  15   2.0000      -0.694974       -18.9112
  16   2.0000      -0.671481       -18.2719
  17   2.0000      -0.557826       -15.1792
  18   2.0000      -0.524999       -14.2860
  19   2.0000      -0.466809       -12.7025
  20   2.0000      -0.463966       -12.6252
  21   2.0000      -0.443073       -12.0566
  22   2.0000      -0.430101       -11.7036
  23   2.0000      -0.425957       -11.5909
  24   2.0000      -0.390069       -10.6143
  25   2.0000      -0.365627        -9.9492
  26   2.0000      -0.345077        -9.3900
  27   2.0000      -0.316644        -8.6163
  28   2.0000      -0.310006        -8.4357
  29   2.0000      -0.305672        -8.3178
  30   2.0000      -0.276043        -7.5115
  31   2.0000      -0.273301        -7.4369
  32   2.0000      -0.257561        -7.0086
  33   0.0000       0.014004         0.3811
  34   0.0000       0.041761         1.1364
  35   0.0000       0.042318         1.1515
  36   0.0000       0.063272         1.7217
  37   0.0000       0.075967         2.0672

MULLIKEN ATOMIC CHARGES
-----------------------
   0 C :   -0.128947
   1 O :   -0.369246
   2 S :    0.928865
   3 O :   -0.374019
   4 O :   -0.373947
   5 O :   -0.369289
   6 C :   -0.128855
   7 H :    0.141896
   8 H :    0.120971
   9 H :    0.144877
  10 H :    0.144860
  11 H :    0.141875
  12 H :    0.120962
Sum of atomic charges:   -0.0000000

LOEWDIN ATOMIC CHARGES
----------------------
   0 C :   -0.226716
   1 O :   -0.265300
   2 S :    1.117540
   3 O :   -0.436525
   4 O :   -0.436525
   5 O :   -0.265312
   6 C :   -0.226693
   7 H :    0.131355
   8 H :    0.113949
   9 H :    0.124465
  10 H :    0.124476
  11 H :    0.131345
  12 H :    0.113940

  Mayer bond orders larger than 0.100000
B(  0-C ,  1-O ) :   0.9017 B(  0-C ,  7-H ) :   0.9548 B(  0-C ,  8-H ) :   0.9509
B(  0-C ,  9-H ) :   0.9393 B(  1-O ,  2-S ) :   1.0313 B(  2-S ,  3-O ) :   1.8158
B(  2-S ,  4-O ) :   1.8159 B(  2-S ,  5-O ) :   1.0311 B(  5-O ,  6-C ) :   0.9017
B(  6-C , 10-H ) :   0.9395 B(  6-C , 11-H ) :   0.9548 B(  6-C , 12-H ) :   0.9509

Dispersion correction           -0.011883562
FINAL SINGLE POINT ENERGY      -777.744576986809

DIPOLE MOMENT
-------------

Method             : SCF
Type of density    : Electron Density
Multiplicity       :   1
Irrep              :   0
Energy             :  -777.8041395684136887 Eh
Relativity type    :
Basis              : AO
                                X                 Y                 Z
Electronic contribution:      0.000190788       6.169470628       0.000343317
Nuclear contribution   :     -0.000253830      -7.922660299      -0.000350388
                        -----------------------------------------
Total Dipole Moment    :     -0.000063042      -1.753189672      -0.000007071
                        -----------------------------------------
Magnitude (a.u.)       :      1.753189673
Magnitude (Debye)      :      4.456254004

Rotational constants in cm-1:             0.101473             0.079560             0.062215
Rotational constants in MHz :          3042.089980          2385.155091          1865.156759

                             ****ORCA TERMINATED NORMALLY****
TOTAL RUN TIME: 0 days 0 hours 0 minutes 6 seconds 971 msec
