                         Program Version 6.0.0  -   RELEASE  -
|  1> ! pbe def2-sv(p) def2/J RI DEFGRID1 loosescf d4 GCP(DFT/SV(P)) printgap
|  2> %output
|  3>     printlevel normal
|  4> end
|  5> * xyz 0 1
|  6> C -2.7807686988 0.8803410071 0.0760320594
|  7> C -1.5333903423 0.0302704328 0.2992075541
|  8> C -1.8939409372 -1.4473575702 0.4310057631
|  9> C -0.554773617 0.239330047 -0.8607663135
| 10> O 0.6798772973 -0.4530958606 -0.6406581593
| 11> C 1.64113224 0.1659391885 0.0353427323
| 12> O 1.5427958676 1.3015334602 0.4541828787
| 13> C 2.8452232961 -0.71051973 0.2087297797
| 14> H -3.478168671 0.7391268666 0.8968357003
| 15> H -3.2722932067 0.593034815 -0.8500868846
| 16> H -2.5221793118 1.934681238 0.020111618
| 17> H -1.0337500788 0.3630062185 1.2165915457
| 18> H -0.995061328 -2.0507913748 0.530589966
| 19> H -2.4378956557 -1.7799005887 -0.4497677421
| 20> H -2.5185348873 -1.6061581411 1.3058196206
| 21> H -0.9533711683 -0.1790742973 -1.7859646977
| 22> H -0.3406222154 1.3052825194 -0.9875094974
| 23> H 3.7458968951 -0.1198407085 0.0713838682
| 24> H 2.8061229084 -1.5367924375 -0.4925974755
| 25> H 2.8460928279 -1.0967154635 1.2258427517
| 26> *
| 27>
| 28>                          ****END OF INPUT****

CARTESIAN COORDINATES (ANGSTROEM)
---------------------------------
  C     -2.780769    0.880341    0.076032
  C     -1.533390    0.030270    0.299208
  C     -1.893941   -1.447358    0.431006
  C     -0.554774    0.239330   -0.860766
  O      0.679877   -0.453096   -0.640658
  C      1.641132    0.165939    0.035343
  O      1.542796    1.301533    0.454183
  C      2.845223   -0.710520    0.208730
  H     -3.478169    0.739127    0.896836
  H     -3.272293    0.593035   -0.850087
  H     -2.522179    1.934681    0.020112
  H     -1.033750    0.363006    1.216592
  H     -0.995061   -2.050791    0.530590
  H     -2.437896   -1.779901   -0.449768
  H     -2.518535   -1.606158    1.305820
  H     -0.953371   -0.179074   -1.785965
  H     -0.340622    1.305283   -0.987509
  H      3.745897   -0.119841    0.071384
  H      2.806123   -1.536792   -0.492597
  H      2.846093   -1.096715    1.225843

 Total Charge           Charge          ....    0
 Multiplicity           Mult            ....    1
 Number of Electrons    NEL             ....   64
 Basis Dimension        Dim             ....  136

ORBITAL ENERGIES
----------------

  NO   OCC          E(Eh)            E(eV)
   0   2.0000     -18.798026      -511.5203
   1   2.0000     -18.730139      -509.6730
   2   2.0000     -10.008134      -272.3352
   3   2.0000      -9.941101      -270.5111
   4   2.0000      -9.901587      -269.4359
   5   2.0000      -9.893706      -269.2214
   6   2.0000      -9.881765      -268.8965
   7   2.0000      -9.877575      -268.7825
   8   2.0000      -1.004827       -27.3427
   9   2.0000      -0.908033       -24.7088
  10   2.0000      -0.737406       -20.0659
  11   2.0000      -0.685208       -18.6454
  12   2.0000      -0.624253       -16.9868
  13   2.0000      -0.617459       -16.8019
  14   2.0000      -0.532938       -14.5020
  15   2.0000      -0.490505       -13.3473
  16   2.0000      -0.449807       -12.2399
  17   2.0000      -0.428408       -11.6576
  18   2.0000      -0.421619       -11.4728
  19   2.0000      -0.402257       -10.9460
  20   2.0000      -0.394657       -10.7392
  21   2.0000      -0.368283       -10.0215
  22   2.0000      -0.356567        -9.7027
  23   2.0000      -0.355052        -9.6615
  24   2.0000      -0.345690        -9.4067
  25   2.0000      -0.341276        -9.2866
  26   2.0000      -0.311015        -8.4632
  27   2.0000      -0.302876        -8.2417
  28   2.0000      -0.296032        -8.0554
  29   2.0000      -0.284753        -7.7485
  30   2.0000      -0.251522        -6.8443
  31   2.0000      -0.217335        -5.9140
  32   0.0000      -0.019793        -0.5386
  33   0.0000       0.035972         0.9788
  34   0.0000       0.050113         1.3636
  35   0.0000       0.065917         1.7937
  36   0.0000       0.085834         2.3357

MULLIKEN ATOMIC CHARGES
-----------------------
   0 C :   -0.252749
   1 C :   -0.210758
   2 C :   -0.244617
   3 C :    0.046643
   4 O :   -0.235400
   5 C :    0.084040
   6 O :   -0.214746
   7 C :   -0.249780
   8 H :    0.106797
   9 H :    0.095375
  10 H :    0.110066
  11 H :    0.093407
  12 H :    0.106527
  13 H :    0.090587
  14 H :    0.103168
  15 H :    0.086179
  16 H :    0.101885
  17 H :    0.129846
  18 H :    0.118356
  19 H :    0.135175
Sum of atomic charges:    0.0000000

LOEWDIN ATOMIC CHARGES
----------------------
   0 C :   -0.327128
   1 C :   -0.172808
   2 C :   -0.332208
   3 C :   -0.101544
   4 O :   -0.064335
   5 C :    0.030545
   6 O :   -0.175322
   7 C :   -0.359477
   8 H :    0.122843
   9 H :    0.117240
  10 H :    0.122328
  11 H :    0.124228
  12 H :    0.118718
  13 H :    0.115964
  14 H :    0.119497
  15 H :    0.115067
  16 H :    0.117732
  17 H :    0.144402
  18 H :    0.134977
  19 H :    0.149282

  Mayer bond orders larger than 0.100000
B(  0-C ,  1-C ) :   1.1096 B(  0-C ,  8-H ) :   0.9507 B(  0-C ,  9-H ) :   0.9487
B(  0-C , 10-H ) :   0.9495 B(  1-C ,  2-C ) :   1.0990 B(  1-C ,  3-C ) :   1.0870
B(  1-C , 11-H ) :   0.8966 B(  2-C , 12-H ) :   0.9478 B(  2-C , 13-H ) :   0.9500
B(  2-C , 14-H ) :   0.9528 B(  3-C ,  4-O ) :   0.9333 B(  3-C , 15-H ) :   0.9234
B(  3-C , 16-H ) :   0.9069 B(  4-O ,  5-C ) :   1.2016 B(  5-C ,  6-O ) :   2.0404
B(  5-C ,  7-C ) :   1.0817 B(  7-C , 17-H ) :   0.9350 B(  7-C , 18-H ) :   0.9372
B(  7-C , 19-H ) :   0.9263

Dispersion correction           -0.015506193
FINAL SINGLE POINT ENERGY      -385.458748096695

DIPOLE MOMENT
-------------

Method             : SCF
Type of density    : Electron Density
Multiplicity       :   1
Irrep              :   0
Energy             :  -385.5335903860847111 Eh
Relativity type    :
Basis              : AO
                                X                 Y                 Z
Electronic contribution:      7.358838646       2.621574975      -0.843747932
Nuclear contribution   :     -7.616631585      -3.209216283       0.655123160
                        -----------------------------------------
Total Dipole Moment    :     -0.257792938      -0.587641308      -0.188624773
                        -----------------------------------------
Magnitude (a.u.)       :      0.668848870
Magnitude (Debye)      :      1.700078719

Rotational constants in cm-1:             0.133757             0.037298             0.033038
Rotational constants in MHz :          4009.928021          1118.151010           990.458843

                             ****ORCA TERMINATED NORMALLY****
TOTAL RUN TIME: 0 days 0 hours 0 minutes 11 seconds 984 msec
