                         Program Version 6.0.0  -   RELEASE  -
|  1> ! pbe def2-sv(p) def2/J RI DEFGRID1 loosescf d4 GCP(DFT/SV(P)) printgap
|  2> %output
|  3>     printlevel normal
|  4> end
|  5> * xyz 0 1
|  6> C -1.0763586596 -0.3484338736 -0.3900456067
|  7> C 0.1319841995 0.3475724535 0.2522044117
|  8> C 1.4535152908 -0.1295421008 -0.3875327789
|  9> O 1.8463825308 -1.4087943983 0.0478067483
| 10> O -0.039715721 1.7370710299 0.0749087707
| 11> O -2.277822413 -0.1590367651 0.313475694
| 12> H -0.8668794461 -1.4206797721 -0.4977198402
| 13> H -1.2422043566 0.087492257 -1.3775588234
| 14> H 0.1622849441 0.0985915399 1.3250269866
| 15> H 2.2584628482 0.541408399 -0.0763057045
| 16> H 1.3685885322 -0.083927534 -1.4792702486
| 17> H 1.2768222953 -2.0835623027 -0.3449739651
| 18> H 0.6354504108 2.2208061218 0.5703843231
| 19> H -2.1806830922 -0.4926306954 1.2170134065
| 20> *
| 21>
| 22>                          ****END OF INPUT****

CARTESIAN COORDINATES (ANGSTROEM)
---------------------------------
  C     -1.076359   -0.348434   -0.390046
  C      0.131984    0.347572    0.252204
  C      1.453515   -0.129542   -0.387533
  O      1.846383   -1.408794    0.047807
  O     -0.039716    1.737071    0.074909
  O     -2.277822   -0.159037    0.313476
  H     -0.866879   -1.420680   -0.497720
  H     -1.242204    0.087492   -1.377559
  H      0.162285    0.098592    1.325027
  H      2.258463    0.541408   -0.076306
  H      1.368589   -0.083928   -1.479270
  H      1.276822   -2.083562   -0.344974
  H      0.635450    2.220806    0.570384
  H     -2.180683   -0.492631    1.217013

 Total Charge           Charge          ....    0
 Multiplicity           Mult            ....    1
 Number of Electrons    NEL             ....   50
 Basis Dimension        Dim             ....  100

ORBITAL ENERGIES
----------------

  NO   OCC          E(Eh)            E(eV)
   0   2.0000     -18.754150      -510.3264
   1   2.0000     -18.750687      -510.2321
   2   2.0000     -18.743572      -510.0385
   3   2.0000      -9.940140      -270.4850
   4   2.0000      -9.935229      -270.3513
   5   2.0000      -9.935084      -270.3474
   6   2.0000      -0.937450       -25.5093
   7   2.0000      -0.925779       -25.1917
   8   2.0000      -0.914447       -24.8834
   9   2.0000      -0.681525       -18.5452
  10   2.0000      -0.611538       -16.6408
  11   2.0000      -0.546082       -14.8597
  12   2.0000      -0.483692       -13.1619
  13   2.0000      -0.476119       -12.9559
  14   2.0000      -0.444461       -12.0944
  15   2.0000      -0.401314       -10.9203
  16   2.0000      -0.391643       -10.6571
  17   2.0000      -0.369117       -10.0442
  18   2.0000      -0.351663        -9.5692
  19   2.0000      -0.305651        -8.3172
  20   2.0000      -0.290452        -7.9036
  21   2.0000      -0.270494        -7.3605
  22   2.0000      -0.244978        -6.6662
  23   2.0000      -0.216871        -5.9014
  24   2.0000      -0.206399        -5.6164
  25   0.0000       0.014111         0.3840
  26   0.0000       0.021722         0.5911
  27   0.0000       0.034358         0.9349
  28   0.0000       0.075280         2.0485
  29   0.0000       0.080505         2.1907

MULLIKEN ATOMIC CHARGES
-----------------------
   0 C :    0.046610
   1 C :   -0.020820
   2 C :    0.005735
   3 O :   -0.431678
   4 O :   -0.414781
   5 O :   -0.426576
   6 H :    0.047468
   7 H :    0.093872
   8 H :    0.051430
   9 H :    0.075900
  10 H :    0.080529
  11 H :    0.299107
  12 H :    0.299560
  13 H :    0.293642
Sum of atomic charges:    0.0000000

LOEWDIN ATOMIC CHARGES
----------------------
   0 C :   -0.128723
   1 C :   -0.101559
   2 C :   -0.138411
   3 O :   -0.336058
   4 O :   -0.321369
   5 O :   -0.330345
   6 H :    0.084376
   7 H :    0.122068
   8 H :    0.092517
   9 H :    0.108935
  10 H :    0.102008
  11 H :    0.279721
  12 H :    0.285381
  13 H :    0.281456

  Mayer bond orders larger than 0.100000
B(  0-C ,  1-C ) :   1.0285 B(  0-C ,  5-O ) :   1.0844 B(  0-C ,  6-H ) :   0.9177
B(  0-C ,  7-H ) :   0.9066 B(  1-C ,  2-C ) :   0.9969 B(  1-C ,  4-O ) :   1.0613
B(  1-C ,  8-H ) :   0.8969 B(  2-C ,  3-O ) :   1.0634 B(  2-C ,  9-H ) :   0.9239
B(  2-C , 10-H ) :   0.9184 B(  3-O , 11-H ) :   0.8473 B(  4-O , 12-H ) :   0.8491
B(  5-O , 13-H ) :   0.8533

Dispersion correction           -0.008976555
FINAL SINGLE POINT ENERGY      -344.002437550421

DIPOLE MOMENT
-------------

Method             : SCF
Type of density    : Electron Density
Multiplicity       :   1
Irrep              :   0
Energy             :  -344.0749869185602279 Eh
Relativity type    :
Basis              : AO
                                X                 Y                 Z
Electronic contribution:     -0.895322994       0.726033348       0.900143306
Nuclear contribution   :      1.317555414      -1.059969774      -0.615909823
                        -----------------------------------------
Total Dipole Moment    :      0.422232420      -0.333936426       0.284233482
                        -----------------------------------------
Magnitude (a.u.)       :      0.608754816
Magnitude (Debye)      :      1.547331773

Rotational constants in cm-1:             0.170420             0.077684             0.058130
Rotational constants in MHz :          5109.056788          2328.903478          1742.690229

                             ****ORCA TERMINATED NORMALLY****
TOTAL RUN TIME: 0 days 0 hours 0 minutes 6 seconds 812 msec
