                         Program Version 6.0.0  -   RELEASE  -
|  1> ! r2scan-3c def2/J RI DEFGRID2 scfconv6 printgap
|  2> %output
|  3>     printlevel normal
|  4> end
|  5> * xyz 0 1
|  6> C 1.3448396671 -1.3921012373 0.1384483304
|  7> C 0.8407507059 0.0443308989 0.2581867474
|  8> C 2.012127189 1.0179609691 0.1407303013
|  9> C -0.2162786109 0.3565180694 -0.8089383615
| 10> C -1.5784629893 -0.2705047381 -0.5064629369
| 11> O -2.1488646694 0.192481677 0.7001075273
| 12> H 0.5315020721 -2.1029223794 0.2574983979
| 13> H 2.0863663108 -1.5960126797 0.9071847594
| 14> H 1.8051030882 -1.5517346445 -0.83456038
| 15> H 0.3745031837 0.1687392937 1.2420177013
| 16> H 2.7632957992 0.8003075166 0.8960085884
| 17> H 1.6795084707 2.0445334926 0.2758038096
| 18> H 2.4759238064 0.9318020859 -0.8396773126
| 19> H 0.1223857909 -0.0045312436 -1.7811692666
| 20> H -0.3427406414 1.4398191201 -0.8794556129
| 21> H -2.2645123544 -0.0793196988 -1.3435333275
| 22> H -1.4879121627 -1.3514778337 -0.3833241603
| 23> H -2.2682759129 1.1506261899 0.6414457695
| 24> *
| 25>
| 26>                          ****END OF INPUT****

CARTESIAN COORDINATES (ANGSTROEM)
---------------------------------
  C      1.344840   -1.392101    0.138448
  C      0.840751    0.044331    0.258187
  C      2.012127    1.017961    0.140730
  C     -0.216279    0.356518   -0.808938
  C     -1.578463   -0.270505   -0.506463
  O     -2.148865    0.192482    0.700108
  H      0.531502   -2.102922    0.257498
  H      2.086366   -1.596013    0.907185
  H      1.805103   -1.551735   -0.834560
  H      0.374503    0.168739    1.242018
  H      2.763296    0.800308    0.896009
  H      1.679508    2.044533    0.275804
  H      2.475924    0.931802   -0.839677
  H      0.122386   -0.004531   -1.781169
  H     -0.342741    1.439819   -0.879456
  H     -2.264512   -0.079320   -1.343533
  H     -1.487912   -1.351478   -0.383324
  H     -2.268276    1.150626    0.641446

 Total Charge           Charge          ....    0
 Multiplicity           Mult            ....    1
 Number of Electrons    NEL             ....   50
 Basis Dimension        Dim             ....  179

ORBITAL ENERGIES
----------------

  NO   OCC          E(Eh)            E(eV)
   0   2.0000     -18.946903      -515.5714
   1   2.0000     -10.073205      -274.1058
   2   2.0000     -10.030294      -272.9382
   3   2.0000     -10.025803      -272.8160
   4   2.0000     -10.014270      -272.5022
   5   2.0000     -10.013869      -272.4912
   6   2.0000      -0.983902       -26.7733
   7   2.0000      -0.775427       -21.1004
   8   2.0000      -0.691702       -18.8222
   9   2.0000      -0.649077       -17.6623
  10   2.0000      -0.595552       -16.2058
  11   2.0000      -0.529861       -14.4183
  12   2.0000      -0.461222       -12.5505
  13   2.0000      -0.438940       -11.9442
  14   2.0000      -0.423756       -11.5310
  15   2.0000      -0.395568       -10.7640
  16   2.0000      -0.388143       -10.5619
  17   2.0000      -0.362329        -9.8595
  18   2.0000      -0.353109        -9.6086
  19   2.0000      -0.331080        -9.0092
  20   2.0000      -0.308680        -8.3996
  21   2.0000      -0.298408        -8.1201
  22   2.0000      -0.293632        -7.9901
  23   2.0000      -0.279452        -7.6043
  24   2.0000      -0.234323        -6.3762
  25   0.0000       0.062143         1.6910
  26   0.0000       0.094599         2.5742
  27   0.0000       0.110196         2.9986
  28   0.0000       0.117368         3.1938
  29   0.0000       0.131179         3.5696

MULLIKEN ATOMIC CHARGES
-----------------------
   0 C :   -0.505849
   1 C :   -0.035674
   2 C :   -0.467762
   3 C :   -0.257000
   4 C :   -0.200109
   5 O :   -0.418269
   6 H :    0.143634
   7 H :    0.145944
   8 H :    0.149480
   9 H :    0.170443
  10 H :    0.146872
  11 H :    0.143556
  12 H :    0.142022
  13 H :    0.140961
  14 H :    0.141783
  15 H :    0.133697
  16 H :    0.133398
  17 H :    0.292874
Sum of atomic charges:    0.0000000

LOEWDIN ATOMIC CHARGES
----------------------
   0 C :   -0.414937
   1 C :   -0.248806
   2 C :   -0.416562
   3 C :   -0.295753
   4 C :    0.001463
   5 O :   -0.623336
   6 H :    0.152436
   7 H :    0.154302
   8 H :    0.151870
   9 H :    0.166589
  10 H :    0.152802
  11 H :    0.151148
  12 H :    0.153013
  13 H :    0.163596
  14 H :    0.157001
  15 H :    0.155904
  16 H :    0.175080
  17 H :    0.264190

  Mayer bond orders larger than 0.100000
B(  0-C ,  1-C ) :   0.9089 B(  0-C ,  6-H ) :   0.9713 B(  0-C ,  7-H ) :   0.9719
B(  0-C ,  8-H ) :   0.9918 B(  1-C ,  2-C ) :   0.8939 B(  1-C ,  3-C ) :   0.8633
B(  1-C ,  9-H ) :   0.9634 B(  2-C , 10-H ) :   0.9783 B(  2-C , 11-H ) :   0.9827
B(  2-C , 12-H ) :   0.9797 B(  3-C ,  4-C ) :   0.9333 B(  3-C , 13-H ) :   0.9561
B(  3-C , 14-H ) :   0.9825 B(  4-C ,  5-O ) :   0.9793 B(  4-C , 15-H ) :   0.9830
B(  4-C , 16-H ) :   0.9765 B(  5-O , 17-H ) :   0.8965

Dispersion correction           -0.004350634
FINAL SINGLE POINT ENERGY      -272.898502911029

DIPOLE MOMENT
-------------

Method             : SCF
Type of density    : Electron Density
Multiplicity       :   1
Irrep              :   0
Energy             :  -272.9040237628342993 Eh
Relativity type    :
Basis              : AO
                                X                 Y                 Z
Electronic contribution:     -4.938476438       0.504452143       1.306240020
Nuclear contribution   :      5.104694075      -0.138028250      -1.717483302
                        -----------------------------------------
Total Dipole Moment    :      0.166217637       0.366423894      -0.411243282
                        -----------------------------------------
Magnitude (a.u.)       :      0.575339734
Magnitude (Debye)      :      1.462397385

Rotational constants in cm-1:             0.186492             0.066920             0.060211
Rotational constants in MHz :          5590.889030          2006.221579          1805.075931

                             ****ORCA TERMINATED NORMALLY****
TOTAL RUN TIME: 0 days 0 hours 0 minutes 23 seconds 848 msec
