                         Program Version 6.0.0  -   RELEASE  -
|  1> ! r2scan-3c def2/J RI DEFGRID2 scfconv6 printgap
|  2> %output
|  3>     printlevel normal
|  4> end
|  5> %cpcm
|  6>     smd true
|  7>     smdsolvent "water"
|  8> end
|  9> * xyz 0 1
| 10> C 1.3448396671 -1.3921012373 0.1384483304
| 11> C 0.8407507059 0.0443308989 0.2581867474
| 12> C 2.012127189 1.0179609691 0.1407303013
| 13> C -0.2162786109 0.3565180694 -0.8089383615
| 14> C -1.5784629893 -0.2705047381 -0.5064629369
| 15> O -2.1488646694 0.192481677 0.7001075273
| 16> H 0.5315020721 -2.1029223794 0.2574983979
| 17> H 2.0863663108 -1.5960126797 0.9071847594
| 18> H 1.8051030882 -1.5517346445 -0.83456038
| 19> H 0.3745031837 0.1687392937 1.2420177013
| 20> H 2.7632957992 0.8003075166 0.8960085884
| 21> H 1.6795084707 2.0445334926 0.2758038096
| 22> H 2.4759238064 0.9318020859 -0.8396773126
| 23> H 0.1223857909 -0.0045312436 -1.7811692666
| 24> H -0.3427406414 1.4398191201 -0.8794556129
| 25> H -2.2645123544 -0.0793196988 -1.3435333275
| 26> H -1.4879121627 -1.3514778337 -0.3833241603
| 27> H -2.2682759129 1.1506261899 0.6414457695
| 28> *
| 29>
| 30>                          ****END OF INPUT****

CARTESIAN COORDINATES (ANGSTROEM)
---------------------------------
  C      1.344840   -1.392101    0.138448
  C      0.840751    0.044331    0.258187
  C      2.012127    1.017961    0.140730
  C     -0.216279    0.356518   -0.808938
  C     -1.578463   -0.270505   -0.506463
  O     -2.148865    0.192482    0.700108
  H      0.531502   -2.102922    0.257498
  H      2.086366   -1.596013    0.907185
  H      1.805103   -1.551735   -0.834560
  H      0.374503    0.168739    1.242018
  H      2.763296    0.800308    0.896009
  H      1.679508    2.044533    0.275804
  H      2.475924    0.931802   -0.839677
  H      0.122386   -0.004531   -1.781169
  H     -0.342741    1.439819   -0.879456
  H     -2.264512   -0.079320   -1.343533
  H     -1.487912   -1.351478   -0.383324
  H     -2.268276    1.150626    0.641446

 Total Charge           Charge          ....    0
 Multiplicity           Mult            ....    1
 Number of Electrons    NEL             ....   50
 Basis Dimension        Dim             ....  179

ORBITAL ENERGIES
----------------

  NO   OCC          E(Eh)            E(eV)
   0   2.0000     -18.949000      -515.6285
   1   2.0000     -10.065930      -273.9079
   2   2.0000     -10.023546      -272.7545
   3   2.0000     -10.014470      -272.5076
   4   2.0000     -10.005710      -272.2692
   5   2.0000     -10.005466      -272.2626
   6   2.0000      -0.984772       -26.7970
   7   2.0000      -0.767187       -20.8762
   8   2.0000      -0.683632       -18.6026
   9   2.0000      -0.641252       -17.4494
  10   2.0000      -0.588762       -16.0210
  11   2.0000      -0.522844       -14.2273
  12   2.0000      -0.456134       -12.4120
  13   2.0000      -0.430862       -11.7244
  14   2.0000      -0.417189       -11.3523
  15   2.0000      -0.387784       -10.5521
  16   2.0000      -0.384010       -10.4495
  17   2.0000      -0.355438        -9.6720
  18   2.0000      -0.344836        -9.3835
  19   2.0000      -0.322405        -8.7731
  20   2.0000      -0.306071        -8.3286
  21   2.0000      -0.292226        -7.9519
  22   2.0000      -0.285137        -7.7590
  23   2.0000      -0.274119        -7.4592
  24   2.0000      -0.236127        -6.4253
  25   0.0000       0.077093         2.0978
  26   0.0000       0.105808         2.8792
  27   0.0000       0.119869         3.2618
  28   0.0000       0.127519         3.4700
  29   0.0000       0.138763         3.7759

MULLIKEN ATOMIC CHARGES
-----------------------
   0 C :   -0.549372
   1 C :   -0.018373
   2 C :   -0.515094
   3 C :   -0.265339
   4 C :   -0.199485
   5 O :   -0.507550
   6 H :    0.156405
   7 H :    0.156362
   8 H :    0.162636
   9 H :    0.155227
  10 H :    0.157050
  11 H :    0.157327
  12 H :    0.154586
  13 H :    0.154439
  14 H :    0.159416
  15 H :    0.144197
  16 H :    0.148394
  17 H :    0.349172
Sum of atomic charges:    0.0000000

LOEWDIN ATOMIC CHARGES
----------------------
   0 C :   -0.424088
   1 C :   -0.247241
   2 C :   -0.424775
   3 C :   -0.294014
   4 C :    0.000835
   5 O :   -0.661191
   6 H :    0.155151
   7 H :    0.155583
   8 H :    0.155872
   9 H :    0.160917
  10 H :    0.154557
  11 H :    0.154804
  12 H :    0.156202
  13 H :    0.168699
  14 H :    0.164430
  15 H :    0.162771
  16 H :    0.178310
  17 H :    0.283180

  Mayer bond orders larger than 0.100000
B(  0-C ,  1-C ) :   0.9022 B(  0-C ,  6-H ) :   0.9685 B(  0-C ,  7-H ) :   0.9707
B(  0-C ,  8-H ) :   0.9883 B(  1-C ,  2-C ) :   0.8893 B(  1-C ,  3-C ) :   0.8635
B(  1-C ,  9-H ) :   0.9683 B(  2-C , 10-H ) :   0.9765 B(  2-C , 11-H ) :   0.9785
B(  2-C , 12-H ) :   0.9791 B(  3-C ,  4-C ) :   0.9397 B(  3-C , 13-H ) :   0.9545
B(  3-C , 14-H ) :   0.9755 B(  4-C ,  5-O ) :   0.9650 B(  4-C , 15-H ) :   0.9732
B(  4-C , 16-H ) :   0.9757 B(  5-O , 17-H ) :   0.8686

Dispersion correction           -0.004350634
FINAL SINGLE POINT ENERGY      -272.904495767210

DIPOLE MOMENT
-------------

Method             : SCF
Type of density    : Electron Density
Multiplicity       :   1
Irrep              :   0
Energy             :  -272.9100166190158916 Eh
Relativity type    :
Basis              : AO
                                X                 Y                 Z
Electronic contribution:     -4.886035768       0.669222689       1.081725465
Nuclear contribution   :      5.104694075      -0.138028250      -1.717483302
                        -----------------------------------------
Total Dipole Moment    :      0.218658307       0.531194439      -0.635757837
                        -----------------------------------------
Magnitude (a.u.)       :      0.856835465
Magnitude (Debye)      :      2.177902672

Rotational constants in cm-1:             0.186492             0.066920             0.060211
Rotational constants in MHz :          5590.889030          2006.221579          1805.075931

                             ****ORCA TERMINATED NORMALLY****
TOTAL RUN TIME: 0 days 0 hours 0 minutes 27 seconds 588 msec
