                         Program Version 6.0.0  -   RELEASE  -
|  1> ! pbe def2-sv(p) def2/J RI DEFGRID1 loosescf d4 GCP(DFT/SV(P)) printgap
|  2> %output
|  3>     printlevel normal
|  4> end
|  5> * xyz 0 1
|  6> C 2.5277700176 0.8003159506 0.1379061783
|  7> C 1.0900589528 0.5339233231 0.5726112722
|  8> C 0.2896906004 -0.2581095135 -0.4688255874
|  9> H 0.5100744136 0.1674710865 -1.4555619308
| 10> C 0.7260031941 -1.7236620602 -0.4905129528
| 11> C -1.2377486485 -0.1458900295 -0.2687555064
| 12> C -1.6847300282 -0.4521983434 1.1596611459
| 13> C -1.7604045398 1.2267060753 -0.6939641344
| 14> H 3.0812648541 -0.1270220854 0.0164405865
| 15> H 2.5463793252 1.3379973967 -0.8077640921
| 16> H 3.0396118334 1.4034181106 0.8844563463
| 17> H 0.6044503191 1.495532089 0.7459208314
| 18> H 1.0974583794 -0.0123525548 1.5173728233
| 19> H 0.1537381888 -2.2806031856 -1.2292367776
| 20> H 1.7783464018 -1.8070085673 -0.7478392746
| 21> H 0.5767007213 -2.1877474496 0.4813700901
| 22> H -1.6978350071 -0.8896545937 -0.9308465898
| 23> H -1.3170180929 -1.4211720198 1.4856070525
| 24> H -2.7712719233 -0.4689653702 1.2102904697
| 25> H -1.3257814933 0.3069674603 1.8494557184
| 26> H -1.3649435974 2.0123445413 -0.0548631285
| 27> H -2.8455437465 1.2516767691 -0.6252028659
| 28> H -1.477409143 1.4445209237 -1.7213576774
| 29> *
| 30>
| 31>                          ****END OF INPUT****

CARTESIAN COORDINATES (ANGSTROEM)
---------------------------------
  C      2.527770    0.800316    0.137906
  C      1.090059    0.533923    0.572611
  C      0.289691   -0.258110   -0.468826
  H      0.510074    0.167471   -1.455562
  C      0.726003   -1.723662   -0.490513
  C     -1.237749   -0.145890   -0.268756
  C     -1.684730   -0.452198    1.159661
  C     -1.760405    1.226706   -0.693964
  H      3.081265   -0.127022    0.016441
  H      2.546379    1.337997   -0.807764
  H      3.039612    1.403418    0.884456
  H      0.604450    1.495532    0.745921
  H      1.097458   -0.012353    1.517373
  H      0.153738   -2.280603   -1.229237
  H      1.778346   -1.807009   -0.747839
  H      0.576701   -2.187747    0.481370
  H     -1.697835   -0.889655   -0.930847
  H     -1.317018   -1.421172    1.485607
  H     -2.771272   -0.468965    1.210290
  H     -1.325781    0.306967    1.849456
  H     -1.364944    2.012345   -0.054863
  H     -2.845544    1.251677   -0.625203
  H     -1.477409    1.444521   -1.721358

 Total Charge           Charge          ....    0
 Multiplicity           Mult            ....    1
 Number of Electrons    NEL             ....   58
 Basis Dimension        Dim             ....  130

ORBITAL ENERGIES
----------------

  NO   OCC          E(Eh)            E(eV)
   0   2.0000      -9.888129      -269.0697
   1   2.0000      -9.886664      -269.0298
   2   2.0000      -9.877727      -268.7866
   3   2.0000      -9.869767      -268.5700
   4   2.0000      -9.867778      -268.5159
   5   2.0000      -9.867610      -268.5113
   6   2.0000      -9.867552      -268.5097
   7   2.0000      -0.741204       -20.1692
   8   2.0000      -0.683231       -18.5916
   9   2.0000      -0.640327       -17.4242
  10   2.0000      -0.606462       -16.5027
  11   2.0000      -0.565938       -15.4000
  12   2.0000      -0.529009       -14.3951
  13   2.0000      -0.473488       -12.8843
  14   2.0000      -0.412200       -11.2165
  15   2.0000      -0.410486       -11.1699
  16   2.0000      -0.399265       -10.8646
  17   2.0000      -0.374106       -10.1799
  18   2.0000      -0.363891        -9.9020
  19   2.0000      -0.341991        -9.3060
  20   2.0000      -0.336343        -9.1523
  21   2.0000      -0.332086        -9.0365
  22   2.0000      -0.317377        -8.6363
  23   2.0000      -0.313609        -8.5337
  24   2.0000      -0.297850        -8.1049
  25   2.0000      -0.292101        -7.9485
  26   2.0000      -0.269498        -7.3334
  27   2.0000      -0.263059        -7.1582
  28   2.0000      -0.259922        -7.0729
  29   0.0000       0.032960         0.8969
  30   0.0000       0.058550         1.5932
  31   0.0000       0.062338         1.6963
  32   0.0000       0.063629         1.7314
  33   0.0000       0.091749         2.4966

MULLIKEN ATOMIC CHARGES
-----------------------
   0 C :   -0.264120
   1 C :   -0.180420
   2 C :   -0.140014
   3 H :    0.059797
   4 C :   -0.240984
   5 C :   -0.147659
   6 C :   -0.254419
   7 C :   -0.237650
   8 H :    0.101582
   9 H :    0.096289
  10 H :    0.099430
  11 H :    0.087559
  12 H :    0.084922
  13 H :    0.094324
  14 H :    0.099919
  15 H :    0.096219
  16 H :    0.062824
  17 H :    0.099024
  18 H :    0.096525
  19 H :    0.100311
  20 H :    0.096947
  21 H :    0.095170
  22 H :    0.094425
Sum of atomic charges:    0.0000000

LOEWDIN ATOMIC CHARGES
----------------------
   0 C :   -0.338471
   1 C :   -0.226672
   2 C :   -0.143682
   3 H :    0.110886
   4 C :   -0.329790
   5 C :   -0.149403
   6 C :   -0.330648
   7 C :   -0.329717
   8 H :    0.115636
   9 H :    0.116381
  10 H :    0.118613
  11 H :    0.112941
  12 H :    0.114768
  13 H :    0.116653
  14 H :    0.116892
  15 H :    0.115409
  16 H :    0.112045
  17 H :    0.115706
  18 H :    0.118074
  19 H :    0.117213
  20 H :    0.114577
  21 H :    0.117205
  22 H :    0.115383

  Mayer bond orders larger than 0.100000
B(  0-C ,  1-C ) :   1.1568 B(  0-C ,  8-H ) :   0.9492 B(  0-C ,  9-H ) :   0.9527
B(  0-C , 10-H ) :   0.9506 B(  1-C ,  2-C ) :   1.0719 B(  1-C , 11-H ) :   0.9202
B(  1-C , 12-H ) :   0.9132 B(  2-C ,  3-H ) :   0.9003 B(  2-C ,  4-C ) :   1.1114
B(  2-C ,  5-C ) :   1.0388 B(  4-C , 13-H ) :   0.9457 B(  4-C , 14-H ) :   0.9450
B(  4-C , 15-H ) :   0.9427 B(  5-C ,  6-C ) :   1.1058 B(  5-C ,  7-C ) :   1.1154
B(  5-C , 16-H ) :   0.9009 B(  6-C , 17-H ) :   0.9487 B(  6-C , 18-H ) :   0.9484
B(  6-C , 19-H ) :   0.9420 B(  7-C , 20-H ) :   0.9421 B(  7-C , 21-H ) :   0.9492
B(  7-C , 22-H ) :   0.9482

Dispersion correction           -0.019114346
FINAL SINGLE POINT ENERGY      -275.660643471770

DIPOLE MOMENT
-------------

Method             : SCF
Type of density    : Electron Density
Multiplicity       :   1
Irrep              :   0
Energy             :  -275.7380437312339154 Eh
Relativity type    :
Basis              : AO
                                X                 Y                 Z
Electronic contribution:     -0.557450389      -0.211965244      -0.592313945
Nuclear contribution   :      0.551846665       0.211463981       0.580010410
                        -----------------------------------------
Total Dipole Moment    :     -0.005603724      -0.000501263      -0.012303535
                        -----------------------------------------
Magnitude (a.u.)       :      0.013528856
Magnitude (Debye)      :      0.034387620

Rotational constants in cm-1:             0.111314             0.056573             0.048999
Rotational constants in MHz :          3337.112203          1696.016638          1468.957570

                             ****ORCA TERMINATED NORMALLY****
TOTAL RUN TIME: 0 days 0 hours 0 minutes 9 seconds 636 msec
