                         Program Version 6.0.0  -   RELEASE  -
|  1> ! pbe def2-sv(p) def2/J RI DEFGRID1 loosescf d4 GCP(DFT/SV(P)) printgap
|  2> %output
|  3>     printlevel normal
|  4> end
|  5> * xyz 0 1
|  6> C -2.1490761469 1.0279834773 0.5439538224
|  7> C -1.4711135107 0.0207281432 -0.3766013581
|  8> C -0.0673926099 -0.3876297322 0.0957913781
|  9> C 0.9689256238 0.7176668697 -0.1395888942
| 10> C 2.3201638432 0.366132446 0.4724369626
| 11> O 0.3322732668 -1.6017535718 -0.5203444326
| 12> H -2.2053941735 0.638214883 1.5574753838
| 13> H -1.6051669241 1.9684095605 0.5663531809
| 14> H -3.158986122 1.2277569041 0.195322752
| 15> H -2.0781115758 -0.8866648077 -0.4215601655
| 16> H -1.4039251663 0.4324822208 -1.3866644235
| 17> H -0.103126287 -0.6304571248 1.1643016435
| 18> H 1.0813354385 0.8694434218 -1.2162212565
| 19> H 0.6015528271 1.646508047 0.2957409416
| 20> H 2.6550743104 -0.6032866446 0.11066018
| 21> H 3.0642385509 1.1143469113 0.2120668612
| 22> H 2.2425036408 0.3150580979 1.5559986806
| 23> H 0.3842828132 -1.4590820762 -1.4758789045
| 24> *
| 25>
| 26>                          ****END OF INPUT****

CARTESIAN COORDINATES (ANGSTROEM)
---------------------------------
  C     -2.149076    1.027983    0.543954
  C     -1.471114    0.020728   -0.376601
  C     -0.067393   -0.387630    0.095791
  C      0.968926    0.717667   -0.139589
  C      2.320164    0.366132    0.472437
  O      0.332273   -1.601754   -0.520344
  H     -2.205394    0.638215    1.557475
  H     -1.605167    1.968410    0.566353
  H     -3.158986    1.227757    0.195323
  H     -2.078112   -0.886665   -0.421560
  H     -1.403925    0.432482   -1.386664
  H     -0.103126   -0.630457    1.164302
  H      1.081335    0.869443   -1.216221
  H      0.601553    1.646508    0.295741
  H      2.655074   -0.603287    0.110660
  H      3.064239    1.114347    0.212067
  H      2.242504    0.315058    1.555999
  H      0.384283   -1.459082   -1.475879

 Total Charge           Charge          ....    0
 Multiplicity           Mult            ....    1
 Number of Electrons    NEL             ....   50
 Basis Dimension        Dim             ....  108

ORBITAL ENERGIES
----------------

  NO   OCC          E(Eh)            E(eV)
   0   2.0000     -18.737309      -509.8681
   1   2.0000      -9.932045      -270.2647
   2   2.0000      -9.883876      -268.9539
   3   2.0000      -9.882188      -268.9080
   4   2.0000      -9.877372      -268.7769
   5   2.0000      -9.869301      -268.5573
   6   2.0000      -0.915735       -24.9184
   7   2.0000      -0.713274       -19.4092
   8   2.0000      -0.676161       -18.3993
   9   2.0000      -0.598442       -16.2844
  10   2.0000      -0.543717       -14.7953
  11   2.0000      -0.527741       -14.3606
  12   2.0000      -0.434516       -11.8238
  13   2.0000      -0.415475       -11.3056
  14   2.0000      -0.396623       -10.7926
  15   2.0000      -0.393672       -10.7124
  16   2.0000      -0.361952        -9.8492
  17   2.0000      -0.340613        -9.2686
  18   2.0000      -0.326184        -8.8759
  19   2.0000      -0.318640        -8.6706
  20   2.0000      -0.306765        -8.3475
  21   2.0000      -0.297019        -8.0823
  22   2.0000      -0.287213        -7.8155
  23   2.0000      -0.261397        -7.1130
  24   2.0000      -0.210092        -5.7169
  25   0.0000       0.029620         0.8060
  26   0.0000       0.045719         1.2441
  27   0.0000       0.060787         1.6541
  28   0.0000       0.074783         2.0349
  29   0.0000       0.086180         2.3451

MULLIKEN ATOMIC CHARGES
-----------------------
   0 C :   -0.290846
   1 C :   -0.146876
   2 C :    0.024317
   3 C :   -0.189858
   4 C :   -0.249516
   5 O :   -0.425383
   6 H :    0.102691
   7 H :    0.108007
   8 H :    0.105385
   9 H :    0.090846
  10 H :    0.067398
  11 H :    0.063097
  12 H :    0.067079
  13 H :    0.087146
  14 H :    0.101736
  15 H :    0.099680
  16 H :    0.095287
  17 H :    0.289811
Sum of atomic charges:   -0.0000000

LOEWDIN ATOMIC CHARGES
----------------------
   0 C :   -0.340855
   1 C :   -0.248372
   2 C :   -0.054091
   3 C :   -0.246722
   4 C :   -0.342418
   5 O :   -0.325784
   6 H :    0.119278
   7 H :    0.116146
   8 H :    0.122169
   9 H :    0.118995
  10 H :    0.110044
  11 H :    0.110132
  12 H :    0.109971
  13 H :    0.118154
  14 H :    0.118992
  15 H :    0.117309
  16 H :    0.117748
  17 H :    0.279304

  Mayer bond orders larger than 0.100000
B(  0-C ,  1-C ) :   1.1430 B(  0-C ,  6-H ) :   0.9537 B(  0-C ,  7-H ) :   0.9488
B(  0-C ,  8-H ) :   0.9480 B(  1-C ,  2-C ) :   1.0743 B(  1-C ,  9-H ) :   0.9183
B(  1-C , 10-H ) :   0.9122 B(  2-C ,  3-C ) :   1.0674 B(  2-C ,  5-O ) :   1.0278
B(  2-C , 11-H ) :   0.9032 B(  3-C ,  4-C ) :   1.1536 B(  3-C , 12-H ) :   0.9115
B(  3-C , 13-H ) :   0.9113 B(  4-C , 14-H ) :   0.9456 B(  4-C , 15-H ) :   0.9529
B(  4-C , 16-H ) :   0.9546 B(  5-O , 17-H ) :   0.8542

Dispersion correction           -0.012580303
FINAL SINGLE POINT ENERGY      -272.305571019200

DIPOLE MOMENT
-------------

Method             : SCF
Type of density    : Electron Density
Multiplicity       :   1
Irrep              :   0
Energy             :  -272.3755927552309117 Eh
Relativity type    :
Basis              : AO
                                X                 Y                 Z
Electronic contribution:      0.346349478      -3.845267866      -1.404893615
Nuclear contribution   :     -0.488282800       4.322487469       1.078291260
                        -----------------------------------------
Total Dipole Moment    :     -0.141933322       0.477219604      -0.326602355
                        -----------------------------------------
Magnitude (a.u.)       :      0.595443294
Magnitude (Debye)      :      1.513496573

Rotational constants in cm-1:             0.168420             0.074952             0.057316
Rotational constants in MHz :          5049.103267          2246.990610          1718.279072

                             ****ORCA TERMINATED NORMALLY****
TOTAL RUN TIME: 0 days 0 hours 0 minutes 7 seconds 996 msec
