                         Program Version 6.0.0  -   RELEASE  -
|  1> ! pbe def2-sv(p) def2/J RI DEFGRID1 loosescf d4 GCP(DFT/SV(P)) printgap
|  2> %output
|  3>     printlevel normal
|  4> end
|  5> * xyz 0 1
|  6> C -2.7904175648 0.1760167765 -0.0245070537
|  7> C -1.3838323407 -0.2133095153 0.4116168307
|  8> C -0.3209892865 0.4136689878 -0.5025939833
|  9> C 1.0496810772 -0.0749792663 -0.1048751537
| 10> O 1.3716553648 -1.2413568515 -0.154924592
| 11> O 1.9218113162 0.8290259903 0.3341167002
| 12> H -3.5247540022 -0.2741398799 0.6376587625
| 13> H -2.984921825 -0.1668149632 -1.0375007873
| 14> H -2.915868942 1.2554672233 0.0058116141
| 15> H -1.215777912 0.1117580268 1.4402929242
| 16> H -1.2681193494 -1.2983128292 0.3841688382
| 17> H -0.5052431495 0.0825624371 -1.5264501382
| 18> H -0.3873216019 1.5004678424 -0.4632478234
| 19> H 1.5812892186 1.7426072314 0.3407130664
| 20> *
| 21>
| 22>                          ****END OF INPUT****

CARTESIAN COORDINATES (ANGSTROEM)
---------------------------------
  C     -2.790418    0.176017   -0.024507
  C     -1.383832   -0.213310    0.411617
  C     -0.320989    0.413669   -0.502594
  C      1.049681   -0.074979   -0.104875
  O      1.371655   -1.241357   -0.154925
  O      1.921811    0.829026    0.334117
  H     -3.524754   -0.274140    0.637659
  H     -2.984922   -0.166815   -1.037501
  H     -2.915869    1.255467    0.005812
  H     -1.215778    0.111758    1.440293
  H     -1.268119   -1.298313    0.384169
  H     -0.505243    0.082562   -1.526450
  H     -0.387322    1.500468   -0.463248
  H      1.581289    1.742607    0.340713

 Total Charge           Charge          ....    0
 Multiplicity           Mult            ....    1
 Number of Electrons    NEL             ....   48
 Basis Dimension        Dim             ....  100

ORBITAL ENERGIES
----------------

  NO   OCC          E(Eh)            E(eV)
   0   2.0000     -18.799201      -511.5523
   1   2.0000     -18.730211      -509.6749
   2   2.0000     -10.009226      -272.3649
   3   2.0000      -9.909145      -269.6415
   4   2.0000      -9.901521      -269.4341
   5   2.0000      -9.885970      -269.0109
   6   2.0000      -1.002599       -27.2821
   7   2.0000      -0.911066       -24.7914
   8   2.0000      -0.730237       -19.8708
   9   2.0000      -0.645958       -17.5774
  10   2.0000      -0.572425       -15.5765
  11   2.0000      -0.542717       -14.7681
  12   2.0000      -0.464247       -12.6328
  13   2.0000      -0.439789       -11.9673
  14   2.0000      -0.406288       -11.0557
  15   2.0000      -0.386815       -10.5258
  16   2.0000      -0.369458       -10.0535
  17   2.0000      -0.355657        -9.6779
  18   2.0000      -0.342103        -9.3091
  19   2.0000      -0.313988        -8.5440
  20   2.0000      -0.307599        -8.3702
  21   2.0000      -0.300517        -8.1775
  22   2.0000      -0.266012        -7.2386
  23   2.0000      -0.216611        -5.8943
  24   0.0000      -0.022680        -0.6172
  25   0.0000       0.000409         0.0111
  26   0.0000       0.042398         1.1537
  27   0.0000       0.071167         1.9366
  28   0.0000       0.079212         2.1555

MULLIKEN ATOMIC CHARGES
-----------------------
   0 C :   -0.251426
   1 C :   -0.221290
   2 C :   -0.214755
   3 C :    0.131948
   4 O :   -0.187879
   5 O :   -0.282963
   6 H :    0.111307
   7 H :    0.103300
   8 H :    0.097127
   9 H :    0.093592
  10 H :    0.118669
  11 H :    0.119240
  12 H :    0.067722
  13 H :    0.315409
Sum of atomic charges:    0.0000000

LOEWDIN ATOMIC CHARGES
----------------------
   0 C :   -0.340149
   1 C :   -0.225549
   2 C :   -0.262105
   3 C :    0.026143
   4 O :   -0.156630
   5 O :   -0.202716
   6 H :    0.124188
   7 H :    0.120198
   8 H :    0.116399
   9 H :    0.117866
  10 H :    0.128880
  11 H :    0.144377
  12 H :    0.111675
  13 H :    0.297423

  Mayer bond orders larger than 0.100000
B(  0-C ,  1-C ) :   1.1540 B(  0-C ,  6-H ) :   0.9514 B(  0-C ,  7-H ) :   0.9540
B(  0-C ,  8-H ) :   0.9531 B(  1-C ,  2-C ) :   1.1145 B(  1-C ,  9-H ) :   0.9320
B(  1-C , 10-H ) :   0.9208 B(  2-C ,  3-C ) :   1.0098 B(  2-C , 11-H ) :   0.8926
B(  2-C , 12-H ) :   0.9069 B(  3-C ,  4-O ) :   2.1201 B(  3-C ,  5-O ) :   1.2197
B(  5-O , 13-H ) :   0.8265

Dispersion correction           -0.009189642
FINAL SINGLE POINT ENERGY      -307.024073545614

DIPOLE MOMENT
-------------

Method             : SCF
Type of density    : Electron Density
Multiplicity       :   1
Irrep              :   0
Energy             :  -307.0783602388482905 Eh
Relativity type    :
Basis              : AO
                                X                 Y                 Z
Electronic contribution:      9.571737092      -1.412812144       0.162703046
Nuclear contribution   :    -10.478055801       2.764859119      -0.202379365
                        -----------------------------------------
Total Dipole Moment    :     -0.906318709       1.352046975      -0.039676319
                        -----------------------------------------
Magnitude (a.u.)       :      1.628194962
Magnitude (Debye)      :      4.138542699

Rotational constants in cm-1:             0.275946             0.062466             0.055435
Rotational constants in MHz :          8272.661121          1872.684439          1661.891920

                             ****ORCA TERMINATED NORMALLY****
TOTAL RUN TIME: 0 days 0 hours 0 minutes 6 seconds 790 msec
