                         Program Version 6.0.0  -   RELEASE  -
|  1> ! r2scan-3c def2/J RI DEFGRID2 scfconv6 printgap
|  2> %output
|  3>     printlevel normal
|  4> end
|  5> * xyz 0 1
|  6> C 2.3109631347 0.0496048255 -0.7188551188
|  7> C 1.5850718571 -0.2414230505 0.5900779775
|  8> C 0.2489708645 0.4931756896 0.7166849458
|  9> C -0.8284385002 0.0780110695 -0.2924441378
| 10> C -2.0324661042 1.0112857566 -0.1659176199
| 11> C -1.2712690006 -1.3689482008 -0.086741488
| 12> H 1.7576191793 -0.3404600566 -1.5690295332
| 13> H 2.4371409642 1.1218583145 -0.8524822136
| 14> H 3.2947388555 -0.4140047642 -0.7148159036
| 15> H 1.4303584988 -1.3167468534 0.6895787021
| 16> H 2.2220305206 0.072678177 1.420704558
| 17> H -0.1431240791 0.3329576326 1.7245029561
| 18> H 0.4348526603 1.5644586968 0.6038778006
| 19> H -0.4251078034 0.1802740617 -1.3047729931
| 20> H -1.7396754208 2.043648752 -0.3439491825
| 21> H -2.4604703967 0.9432598573 0.8322263155
| 22> H -2.8008919703 0.7438568931 -0.8876707661
| 23> H -2.0757193545 -1.6179292943 -0.7752154765
| 24> H -0.4516806983 -2.0603049445 -0.262525438
| 25> H -1.6329910584 -1.5122148386 0.9294753761
| 26> *
| 27>
| 28>                          ****END OF INPUT****

CARTESIAN COORDINATES (ANGSTROEM)
---------------------------------
  C      2.310963    0.049605   -0.718855
  C      1.585072   -0.241423    0.590078
  C      0.248971    0.493176    0.716685
  C     -0.828439    0.078011   -0.292444
  C     -2.032466    1.011286   -0.165918
  C     -1.271269   -1.368948   -0.086741
  H      1.757619   -0.340460   -1.569030
  H      2.437141    1.121858   -0.852482
  H      3.294739   -0.414005   -0.714816
  H      1.430358   -1.316747    0.689579
  H      2.222031    0.072678    1.420705
  H     -0.143124    0.332958    1.724503
  H      0.434853    1.564459    0.603878
  H     -0.425108    0.180274   -1.304773
  H     -1.739675    2.043649   -0.343949
  H     -2.460470    0.943260    0.832226
  H     -2.800892    0.743857   -0.887671
  H     -2.075719   -1.617929   -0.775215
  H     -0.451681   -2.060305   -0.262525
  H     -1.632991   -1.512215    0.929475

 Total Charge           Charge          ....    0
 Multiplicity           Mult            ....    1
 Number of Electrons    NEL             ....   50
 Basis Dimension        Dim             ....  184

ORBITAL ENERGIES
----------------

  NO   OCC          E(Eh)            E(eV)
   0   2.0000     -10.028920      -272.9008
   1   2.0000     -10.021238      -272.6918
   2   2.0000     -10.018235      -272.6100
   3   2.0000     -10.013563      -272.4829
   4   2.0000     -10.012343      -272.4497
   5   2.0000     -10.011778      -272.4343
   6   2.0000      -0.779351       -21.2072
   7   2.0000      -0.725642       -19.7457
   8   2.0000      -0.647358       -17.6155
   9   2.0000      -0.641020       -17.4430
  10   2.0000      -0.563528       -15.3344
  11   2.0000      -0.512952       -13.9581
  12   2.0000      -0.438075       -11.9206
  13   2.0000      -0.423962       -11.5366
  14   2.0000      -0.395610       -10.7651
  15   2.0000      -0.387815       -10.5530
  16   2.0000      -0.375151       -10.2084
  17   2.0000      -0.352688        -9.5971
  18   2.0000      -0.343448        -9.3457
  19   2.0000      -0.323093        -8.7918
  20   2.0000      -0.314182        -8.5493
  21   2.0000      -0.309486        -8.4216
  22   2.0000      -0.286503        -7.7961
  23   2.0000      -0.280988        -7.6461
  24   2.0000      -0.274165        -7.4604
  25   0.0000       0.083912         2.2834
  26   0.0000       0.109485         2.9792
  27   0.0000       0.118118         3.2141
  28   0.0000       0.125868         3.4251
  29   0.0000       0.133307         3.6275

MULLIKEN ATOMIC CHARGES
-----------------------
   0 C :   -0.486184
   1 C :   -0.249774
   2 C :   -0.265927
   3 C :   -0.045948
   4 C :   -0.479358
   5 C :   -0.498809
   6 H :    0.148200
   7 H :    0.143810
   8 H :    0.146356
   9 H :    0.139897
  10 H :    0.142119
  11 H :    0.143194
  12 H :    0.139783
  13 H :    0.145724
  14 H :    0.144729
  15 H :    0.145389
  16 H :    0.145096
  17 H :    0.144049
  18 H :    0.147724
  19 H :    0.149928
Sum of atomic charges:   -0.0000000

LOEWDIN ATOMIC CHARGES
----------------------
   0 C :   -0.427356
   1 C :   -0.316345
   2 C :   -0.308059
   3 C :   -0.249771
   4 C :   -0.417223
   5 C :   -0.417569
   6 H :    0.147969
   7 H :    0.150255
   8 H :    0.150344
   9 H :    0.150961
  10 H :    0.152062
  11 H :    0.157733
  12 H :    0.156383
  13 H :    0.154513
  14 H :    0.152276
  15 H :    0.153501
  16 H :    0.151478
  17 H :    0.153162
  18 H :    0.151695
  19 H :    0.153991

  Mayer bond orders larger than 0.100000
B(  0-C ,  1-C ) :   0.8883 B(  0-C ,  6-H ) :   0.9833 B(  0-C ,  7-H ) :   0.9799
B(  0-C ,  8-H ) :   0.9710 B(  1-C ,  2-C ) :   0.9050 B(  1-C ,  9-H ) :   0.9889
B(  1-C , 10-H ) :   0.9701 B(  2-C ,  3-C ) :   0.8961 B(  2-C , 11-H ) :   0.9755
B(  2-C , 12-H ) :   0.9802 B(  3-C ,  4-C ) :   0.9096 B(  3-C ,  5-C ) :   0.8970
B(  3-C , 13-H ) :   0.9633 B(  4-C , 14-H ) :   0.9783 B(  4-C , 15-H ) :   0.9866
B(  4-C , 16-H ) :   0.9770 B(  5-C , 17-H ) :   0.9721 B(  5-C , 18-H ) :   0.9747
B(  5-C , 19-H ) :   0.9853

Dispersion correction           -0.005054709
FINAL SINGLE POINT ENERGY      -236.987954520681

DIPOLE MOMENT
-------------

Method             : SCF
Type of density    : Electron Density
Multiplicity       :   1
Irrep              :   0
Energy             :  -236.9924172060804608 Eh
Relativity type    :
Basis              : AO
                                X                 Y                 Z
Electronic contribution:      0.175667345       0.244736303       0.476401969
Nuclear contribution   :     -0.143463703      -0.242672619      -0.478552074
                        -----------------------------------------
Total Dipole Moment    :      0.032203642       0.002063684      -0.002150105
                        -----------------------------------------
Magnitude (a.u.)       :      0.032341248
Magnitude (Debye)      :      0.082204919

Rotational constants in cm-1:             0.184368             0.065619             0.059459
Rotational constants in MHz :          5527.204229          1967.206957          1782.545443

                             ****ORCA TERMINATED NORMALLY****
TOTAL RUN TIME: 0 days 0 hours 0 minutes 16 seconds 704 msec
