                         Program Version 6.0.0  -   RELEASE  -
|  1> ! r2scan-3c def2/J RI DEFGRID2 scfconv6 printgap
|  2> %output
|  3>     printlevel normal
|  4> end
|  5> %cpcm
|  6>     smd true
|  7>     smdsolvent "water"
|  8> end
|  9> * xyz 0 1
| 10> C 2.3109631347 0.0496048255 -0.7188551188
| 11> C 1.5850718571 -0.2414230505 0.5900779775
| 12> C 0.2489708645 0.4931756896 0.7166849458
| 13> C -0.8284385002 0.0780110695 -0.2924441378
| 14> C -2.0324661042 1.0112857566 -0.1659176199
| 15> C -1.2712690006 -1.3689482008 -0.086741488
| 16> H 1.7576191793 -0.3404600566 -1.5690295332
| 17> H 2.4371409642 1.1218583145 -0.8524822136
| 18> H 3.2947388555 -0.4140047642 -0.7148159036
| 19> H 1.4303584988 -1.3167468534 0.6895787021
| 20> H 2.2220305206 0.072678177 1.420704558
| 21> H -0.1431240791 0.3329576326 1.7245029561
| 22> H 0.4348526603 1.5644586968 0.6038778006
| 23> H -0.4251078034 0.1802740617 -1.3047729931
| 24> H -1.7396754208 2.043648752 -0.3439491825
| 25> H -2.4604703967 0.9432598573 0.8322263155
| 26> H -2.8008919703 0.7438568931 -0.8876707661
| 27> H -2.0757193545 -1.6179292943 -0.7752154765
| 28> H -0.4516806983 -2.0603049445 -0.262525438
| 29> H -1.6329910584 -1.5122148386 0.9294753761
| 30> *
| 31>
| 32>                          ****END OF INPUT****

CARTESIAN COORDINATES (ANGSTROEM)
---------------------------------
  C      2.310963    0.049605   -0.718855
  C      1.585072   -0.241423    0.590078
  C      0.248971    0.493176    0.716685
  C     -0.828439    0.078011   -0.292444
  C     -2.032466    1.011286   -0.165918
  C     -1.271269   -1.368948   -0.086741
  H      1.757619   -0.340460   -1.569030
  H      2.437141    1.121858   -0.852482
  H      3.294739   -0.414005   -0.714816
  H      1.430358   -1.316747    0.689579
  H      2.222031    0.072678    1.420705
  H     -0.143124    0.332958    1.724503
  H      0.434853    1.564459    0.603878
  H     -0.425108    0.180274   -1.304773
  H     -1.739675    2.043649   -0.343949
  H     -2.460470    0.943260    0.832226
  H     -2.800892    0.743857   -0.887671
  H     -2.075719   -1.617929   -0.775215
  H     -0.451681   -2.060305   -0.262525
  H     -1.632991   -1.512215    0.929475

 Total Charge           Charge          ....    0
 Multiplicity           Mult            ....    1
 Number of Electrons    NEL             ....   50
 Basis Dimension        Dim             ....  184

ORBITAL ENERGIES
----------------

  NO   OCC          E(Eh)            E(eV)
   0   2.0000     -10.021569      -272.7007
   1   2.0000     -10.013825      -272.4900
   2   2.0000     -10.010521      -272.4001
   3   2.0000     -10.006116      -272.2803
   4   2.0000     -10.004781      -272.2439
   5   2.0000     -10.004586      -272.2386
   6   2.0000      -0.772022       -21.0078
   7   2.0000      -0.718592       -19.5539
   8   2.0000      -0.640569       -17.4308
   9   2.0000      -0.634177       -17.2568
  10   2.0000      -0.556635       -15.1468
  11   2.0000      -0.505797       -13.7634
  12   2.0000      -0.430616       -11.7177
  13   2.0000      -0.416641       -11.3374
  14   2.0000      -0.388598       -10.5743
  15   2.0000      -0.380692       -10.3591
  16   2.0000      -0.367902       -10.0111
  17   2.0000      -0.345725        -9.4077
  18   2.0000      -0.336454        -9.1554
  19   2.0000      -0.315620        -8.5885
  20   2.0000      -0.306853        -8.3499
  21   2.0000      -0.302395        -8.2286
  22   2.0000      -0.278872        -7.5885
  23   2.0000      -0.273783        -7.4500
  24   2.0000      -0.266751        -7.2587
  25   0.0000       0.092042         2.5046
  26   0.0000       0.116461         3.1691
  27   0.0000       0.125113         3.4045
  28   0.0000       0.132330         3.6009
  29   0.0000       0.139346         3.7918

MULLIKEN ATOMIC CHARGES
-----------------------
   0 C :   -0.523891
   1 C :   -0.261330
   2 C :   -0.286215
   3 C :   -0.023521
   4 C :   -0.525814
   5 C :   -0.544545
   6 H :    0.159761
   7 H :    0.154086
   8 H :    0.155444
   9 H :    0.148679
  10 H :    0.149118
  11 H :    0.151692
  12 H :    0.148653
  13 H :    0.153654
  14 H :    0.155939
  15 H :    0.156473
  16 H :    0.156339
  17 H :    0.154867
  18 H :    0.159803
  19 H :    0.160809
Sum of atomic charges:   -0.0000000

LOEWDIN ATOMIC CHARGES
----------------------
   0 C :   -0.435668
   1 C :   -0.319102
   2 C :   -0.311418
   3 C :   -0.247846
   4 C :   -0.426731
   5 C :   -0.426291
   6 H :    0.151004
   7 H :    0.152574
   8 H :    0.152087
   9 H :    0.153219
  10 H :    0.153375
  11 H :    0.159443
  12 H :    0.158306
  13 H :    0.156897
  14 H :    0.154498
  15 H :    0.155571
  16 H :    0.153883
  17 H :    0.155207
  18 H :    0.154742
  19 H :    0.156250

  Mayer bond orders larger than 0.100000
B(  0-C ,  1-C ) :   0.8817 B(  0-C ,  6-H ) :   0.9801 B(  0-C ,  7-H ) :   0.9775
B(  0-C ,  8-H ) :   0.9691 B(  1-C ,  2-C ) :   0.9027 B(  1-C ,  9-H ) :   0.9879
B(  1-C , 10-H ) :   0.9707 B(  2-C ,  3-C ) :   0.8918 B(  2-C , 11-H ) :   0.9756
B(  2-C , 12-H ) :   0.9791 B(  3-C ,  4-C ) :   0.8965 B(  3-C ,  5-C ) :   0.8890
B(  3-C , 13-H ) :   0.9637 B(  4-C , 14-H ) :   0.9761 B(  4-C , 15-H ) :   0.9854
B(  4-C , 16-H ) :   0.9746 B(  5-C , 17-H ) :   0.9705 B(  5-C , 18-H ) :   0.9716
B(  5-C , 19-H ) :   0.9837

Dispersion correction           -0.005054709
FINAL SINGLE POINT ENERGY      -236.984579833807

DIPOLE MOMENT
-------------

Method             : SCF
Type of density    : Electron Density
Multiplicity       :   1
Irrep              :   0
Energy             :  -236.9890425192060945 Eh
Relativity type    :
Basis              : AO
                                X                 Y                 Z
Electronic contribution:      0.183862779       0.239506746       0.468178667
Nuclear contribution   :     -0.143463703      -0.242672619      -0.478552074
                        -----------------------------------------
Total Dipole Moment    :      0.040399076      -0.003165872      -0.010373406
                        -----------------------------------------
Magnitude (a.u.)       :      0.041829602
Magnitude (Debye)      :      0.106322400

Rotational constants in cm-1:             0.184368             0.065619             0.059459
Rotational constants in MHz :          5527.204229          1967.206957          1782.545443

                             ****ORCA TERMINATED NORMALLY****
TOTAL RUN TIME: 0 days 0 hours 0 minutes 20 seconds 35 msec
