                         Program Version 6.0.0  -   RELEASE  -
|  1> ! pbe def2-sv(p) def2/J RI DEFGRID1 loosescf d4 GCP(DFT/SV(P)) printgap
|  2> %output
|  3>     printlevel normal
|  4> end
|  5> * xyz 0 1
|  6> C -2.7682334593 -1.3191444986 -2.0321471716
|  7> C -3.4917278995 -0.878706862 -0.7644080783
|  8> C -2.5771226843 -0.8976546579 0.4630161591
|  9> H -2.157792415 -1.9034024864 0.5746606647
| 10> C -3.3150172203 -0.5186041587 1.74287845
| 11> N -1.4000822442 -0.0323265322 0.2630853644
| 12> C -0.1520678331 -0.6569814821 0.245329381
| 13> O -0.0393968632 -1.861468606 0.4003884327
| 14> C 0.9665516972 0.2320396931 0.0342376775
| 15> C 0.8218919917 1.5711428509 -0.1369060594
| 16> N -0.4455878832 2.0636210415 -0.10126459
| 17> C -1.585296917 1.3171040403 0.0902033049
| 18> O -2.6714508029 1.8659506906 0.097616265
| 19> C 1.9387489647 2.5254010659 -0.3449000722
| 20> Br 2.6781403822 -0.5939855562 0.0173040725
| 21> H -3.468919667 -1.3882741245 -2.85923231
| 22> H -1.9901604395 -0.6080148127 -2.3055982488
| 23> H -2.3029037196 -2.2925096244 -1.8876591802
| 24> H -3.9027839384 0.1227661806 -0.8951853293
| 25> H -4.3173095663 -1.5612554537 -0.562578
| 26> H -4.1048950991 -1.2405389947 1.9245276771
| 27> H -2.6322705475 -0.5289935278 2.5895187751
| 28> H -3.7549342737 0.4705099802 1.6514642361
| 29> H -0.5988087914 3.0605912803 -0.2194088528
| 30> H 2.4609934751 2.6890009124 0.5972455569
| 31> H 1.5739809965 3.4773355904 -0.7158425235
| 32> H 2.6624377324 2.1118593616 -1.0439408842
| 33> *
| 34>
| 35>                          ****END OF INPUT****

CARTESIAN COORDINATES (ANGSTROEM)
---------------------------------
  C     -2.768233   -1.319144   -2.032147
  C     -3.491728   -0.878707   -0.764408
  C     -2.577123   -0.897655    0.463016
  H     -2.157792   -1.903402    0.574661
  C     -3.315017   -0.518604    1.742878
  N     -1.400082   -0.032327    0.263085
  C     -0.152068   -0.656981    0.245329
  O     -0.039397   -1.861469    0.400388
  C      0.966552    0.232040    0.034238
  C      0.821892    1.571143   -0.136906
  N     -0.445588    2.063621   -0.101265
  C     -1.585297    1.317104    0.090203
  O     -2.671451    1.865951    0.097616
  C      1.938749    2.525401   -0.344900
  Br     2.678140   -0.593986    0.017304
  H     -3.468920   -1.388274   -2.859232
  H     -1.990160   -0.608015   -2.305598
  H     -2.302904   -2.292510   -1.887659
  H     -3.902784    0.122766   -0.895185
  H     -4.317310   -1.561255   -0.562578
  H     -4.104895   -1.240539    1.924528
  H     -2.632271   -0.528994    2.589519
  H     -3.754934    0.470510    1.651464
  H     -0.598809    3.060591   -0.219409
  H      2.460993    2.689001    0.597246
  H      1.573981    3.477336   -0.715843
  H      2.662438    2.111859   -1.043941

 Total Charge           Charge          ....    0
 Multiplicity           Mult            ....    1
 Number of Electrons    NEL             ....  132
 Basis Dimension        Dim             ....  240

ORBITAL ENERGIES
----------------

  NO   OCC          E(Eh)            E(eV)
   0   2.0000    -480.942245    -13087.1038
   1   2.0000     -61.783971     -1681.2273
   2   2.0000     -55.714660     -1516.0730
   3   2.0000     -55.711571     -1515.9889
   4   2.0000     -55.711319     -1515.9821
   5   2.0000     -18.735508      -509.8191
   6   2.0000     -18.732074      -509.7256
   7   2.0000     -14.067186      -382.7876
   8   2.0000     -14.054325      -382.4376
   9   2.0000     -10.034219      -273.0450
  10   2.0000     -10.003247      -272.2022
  11   2.0000      -9.982640      -271.6414
  12   2.0000      -9.950394      -270.7640
  13   2.0000      -9.930512      -270.2230
  14   2.0000      -9.923639      -270.0359
  15   2.0000      -9.882558      -268.9181
  16   2.0000      -9.874790      -268.7067
  17   2.0000      -9.873393      -268.6687
  18   2.0000      -8.409162      -228.8249
  19   2.0000      -6.291492      -171.2002
  20   2.0000      -6.276856      -170.8019
  21   2.0000      -6.276098      -170.7813
  22   2.0000      -2.492563       -67.8261
  23   2.0000      -2.489021       -67.7297
  24   2.0000      -2.488505       -67.7157
  25   2.0000      -2.477482       -67.4157
  26   2.0000      -2.477461       -67.4151
  27   2.0000      -0.988300       -26.8930
  28   2.0000      -0.947810       -25.7912
  29   2.0000      -0.898729       -24.4557
  30   2.0000      -0.860189       -23.4069
  31   2.0000      -0.768537       -20.9129
  32   2.0000      -0.728587       -19.8259
  33   2.0000      -0.707946       -19.2642
  34   2.0000      -0.668114       -18.1803
  35   2.0000      -0.652420       -17.7533
  36   2.0000      -0.614000       -16.7078
  37   2.0000      -0.596736       -16.2380
  38   2.0000      -0.563734       -15.3400
  39   2.0000      -0.541941       -14.7470
  40   2.0000      -0.527554       -14.3555
  41   2.0000      -0.492351       -13.3976
  42   2.0000      -0.453916       -12.3517
  43   2.0000      -0.438496       -11.9321
  44   2.0000      -0.415870       -11.3164
  45   2.0000      -0.412786       -11.2325
  46   2.0000      -0.395184       -10.7535
  47   2.0000      -0.390098       -10.6151
  48   2.0000      -0.385760       -10.4971
  49   2.0000      -0.385537       -10.4910
  50   2.0000      -0.374108       -10.1800
  51   2.0000      -0.369173       -10.0457
  52   2.0000      -0.364307        -9.9133
  53   2.0000      -0.358403        -9.7526
  54   2.0000      -0.343821        -9.3558
  55   2.0000      -0.322973        -8.7886
  56   2.0000      -0.320567        -8.7231
  57   2.0000      -0.302934        -8.2433
  58   2.0000      -0.295090        -8.0298
  59   2.0000      -0.291835        -7.9412
  60   2.0000      -0.275838        -7.5059
  61   2.0000      -0.253606        -6.9010
  62   2.0000      -0.238446        -6.4884
  63   2.0000      -0.234569        -6.3829
  64   2.0000      -0.216696        -5.8966
  65   2.0000      -0.206181        -5.6105
  66   0.0000      -0.073215        -1.9923
  67   0.0000      -0.032011        -0.8711
  68   0.0000      -0.026142        -0.7113
  69   0.0000       0.013661         0.3717
  70   0.0000       0.046521         1.2659

MULLIKEN ATOMIC CHARGES
-----------------------
   0 C :   -0.266044
   1 C :   -0.175085
   2 C :   -0.084161
   3 H :    0.111078
   4 C :   -0.223994
   5 N :   -0.242561
   6 C :    0.188071
   7 O :   -0.175844
   8 C :   -0.192894
   9 C :   -0.000528
  10 N :   -0.199326
  11 C :    0.167319
  12 O :   -0.199571
  13 C :   -0.204682
  14 Br:    0.009195
  15 H :    0.105032
  16 H :    0.098550
  17 H :    0.108330
  18 H :    0.113550
  19 H :    0.087514
  20 H :    0.102115
  21 H :    0.100792
  22 H :    0.127692
  23 H :    0.247772
  24 H :    0.146999
  25 H :    0.105328
  26 H :    0.145354
Sum of atomic charges:    0.0000000

LOEWDIN ATOMIC CHARGES
----------------------
   0 C :   -0.342623
   1 C :   -0.236248
   2 C :   -0.078655
   3 H :    0.135127
   4 C :   -0.338898
   5 N :    0.000615
   6 C :    0.019654
   7 O :   -0.170316
   8 C :   -0.218752
   9 C :   -0.006654
  10 N :   -0.085921
  11 C :    0.042014
  12 O :   -0.191364
  13 C :   -0.330640
  14 Br:    0.137296
  15 H :    0.121526
  16 H :    0.113724
  17 H :    0.122532
  18 H :    0.125796
  19 H :    0.121934
  20 H :    0.125145
  21 H :    0.121060
  22 H :    0.128967
  23 H :    0.253985
  24 H :    0.152845
  25 H :    0.130072
  26 H :    0.147780

  Mayer bond orders larger than 0.100000
B(  0-C ,  1-C ) :   1.1605 B(  0-C , 15-H ) :   0.9512 B(  0-C , 16-H ) :   0.9490
B(  0-C , 17-H ) :   0.9500 B(  1-C ,  2-C ) :   1.0868 B(  1-C , 18-H ) :   0.9031
B(  1-C , 19-H ) :   0.9192 B(  2-C ,  3-H ) :   0.8731 B(  2-C ,  4-C ) :   1.1252
B(  2-C ,  5-N ) :   0.9079 B(  4-C , 20-H ) :   0.9445 B(  4-C , 21-H ) :   0.9464
B(  4-C , 22-H ) :   0.9291 B(  5-N ,  6-C ) :   1.0264 B(  5-N , 11-C ) :   1.0828
B(  6-C ,  7-O ) :   2.1001 B(  6-C ,  8-C ) :   1.0458 B(  8-C ,  9-C ) :   1.6058
B(  8-C , 14-Br) :   1.0876 B(  9-C , 10-N ) :   1.2070 B(  9-C , 13-C ) :   1.1624
B( 10-N , 11-C ) :   1.0842 B( 10-N , 23-H ) :   0.8302 B( 11-C , 12-O ) :   2.0299
B( 13-C , 24-H ) :   0.9155 B( 13-C , 25-H ) :   0.9221 B( 13-C , 26-H ) :   0.9116

Dispersion correction           -0.034270805
FINAL SINGLE POINT ENERGY     -3182.944395091388

DIPOLE MOMENT
-------------

Method             : SCF
Type of density    : Electron Density
Multiplicity       :   1
Irrep              :   0
Energy             : -3183.0359768638782043 Eh
Relativity type    :
Basis              : AO
                                X                 Y                 Z
Electronic contribution:     46.502341211      -6.337744079       2.881379578
Nuclear contribution   :    -46.056932440       7.786510646      -3.109564836
                        -----------------------------------------
Total Dipole Moment    :      0.445408771       1.448766567      -0.228185258
                        -----------------------------------------
Magnitude (a.u.)       :      1.532769405
Magnitude (Debye)      :      3.895990209

Rotational constants in cm-1:             0.030098             0.011140             0.009357
Rotational constants in MHz :           902.313181           333.960713           280.530632

                             ****ORCA TERMINATED NORMALLY****
TOTAL RUN TIME: 0 days 0 hours 0 minutes 22 seconds 258 msec
