                         Program Version 6.0.0  -   RELEASE  -
|  1> ! pbe def2-sv(p) def2/J RI DEFGRID1 loosescf d4 GCP(DFT/SV(P)) printgap
|  2> %output
|  3>     printlevel normal
|  4> end
|  5> * xyz 0 1
|  6> C 1.5106314074 -0.7868747416 1.6357624032
|  7> C 2.2168953732 -0.1759097357 0.4633682288
|  8> C 3.5312125216 -0.2523445224 0.3218545739
|  9> C 1.3650180768 0.5318639598 -0.5646096719
| 10> H 2.0324440016 1.119714787 -1.199984775
| 11> C 0.6270193149 -0.5015569315 -1.442201735
| 12> C -0.8352080361 -0.1183689871 -1.7055777204
| 13> C -1.5145752491 0.0955599846 -0.3880077414
| 14> C -0.8855542516 0.8825764754 0.5055506058
| 15> C 0.3896438213 1.5249861458 0.1167408297
| 16> C -2.7652742328 -0.5615784988 -0.0786195231
| 17> O -3.3850476723 -0.4607165358 0.9672060985
| 18> H 2.1534600639 -1.5035552992 2.1397860863
| 19> H 1.2364505401 -0.01540716 2.354076252
| 20> H 0.5949615531 -1.2878557622 1.3289696674
| 21> H 4.0435229139 0.1987878485 -0.510868466
| 22> H 4.1504011532 -0.7724979016 1.032946209
| 23> H 1.1502367149 -0.6157542543 -2.3909617502
| 24> H 0.6382878433 -1.4741084491 -0.9469567268
| 25> H -0.866476619 0.8054403653 -2.2883076767
| 26> H -1.3301276246 -0.9018192684 -2.2796445318
| 27> H -1.3119488756 1.0489632413 1.4835885118
| 28> H 0.153308203 2.3023965397 -0.6161645346
| 29> H 0.8792584943 2.0037845446 0.9630412788
| 30> H -3.1646267754 -1.2018401245 -0.888496734
| 31> *
| 32>
| 33>                          ****END OF INPUT****

CARTESIAN COORDINATES (ANGSTROEM)
---------------------------------
  C      1.510631   -0.786875    1.635762
  C      2.216895   -0.175910    0.463368
  C      3.531213   -0.252345    0.321855
  C      1.365018    0.531864   -0.564610
  H      2.032444    1.119715   -1.199985
  C      0.627019   -0.501557   -1.442202
  C     -0.835208   -0.118369   -1.705578
  C     -1.514575    0.095560   -0.388008
  C     -0.885554    0.882576    0.505551
  C      0.389644    1.524986    0.116741
  C     -2.765274   -0.561578   -0.078620
  O     -3.385048   -0.460717    0.967206
  H      2.153460   -1.503555    2.139786
  H      1.236451   -0.015407    2.354076
  H      0.594962   -1.287856    1.328970
  H      4.043523    0.198788   -0.510868
  H      4.150401   -0.772498    1.032946
  H      1.150237   -0.615754   -2.390962
  H      0.638288   -1.474108   -0.946957
  H     -0.866477    0.805440   -2.288308
  H     -1.330128   -0.901819   -2.279645
  H     -1.311949    1.048963    1.483589
  H      0.153308    2.302397   -0.616165
  H      0.879258    2.003785    0.963041
  H     -3.164627   -1.201840   -0.888497

 Total Charge           Charge          ....    0
 Multiplicity           Mult            ....    1
 Number of Electrons    NEL             ....   82
 Basis Dimension        Dim             ....  182

ORBITAL ENERGIES
----------------

  NO   OCC          E(Eh)            E(eV)
   0   2.0000     -18.740150      -509.9454
   1   2.0000      -9.961802      -271.0744
   2   2.0000      -9.912501      -269.7329
   3   2.0000      -9.910331      -269.6738
   4   2.0000      -9.905788      -269.5502
   5   2.0000      -9.904303      -269.5098
   6   2.0000      -9.901185      -269.4250
   7   2.0000      -9.900297      -269.4008
   8   2.0000      -9.898057      -269.3398
   9   2.0000      -9.885098      -268.9872
  10   2.0000      -9.877009      -268.7671
  11   2.0000      -0.929449       -25.2916
  12   2.0000      -0.786134       -21.3918
  13   2.0000      -0.732447       -19.9309
  14   2.0000      -0.684262       -18.6197
  15   2.0000      -0.674673       -18.3588
  16   2.0000      -0.620342       -16.8804
  17   2.0000      -0.586538       -15.9605
  18   2.0000      -0.571644       -15.5552
  19   2.0000      -0.522579       -14.2201
  20   2.0000      -0.484376       -13.1805
  21   2.0000      -0.463512       -12.6128
  22   2.0000      -0.444667       -12.1000
  23   2.0000      -0.438692       -11.9374
  24   2.0000      -0.408906       -11.1269
  25   2.0000      -0.394039       -10.7224
  26   2.0000      -0.390602       -10.6288
  27   2.0000      -0.378921       -10.3110
  28   2.0000      -0.367331        -9.9956
  29   2.0000      -0.357510        -9.7284
  30   2.0000      -0.355323        -9.6688
  31   2.0000      -0.353024        -9.6063
  32   2.0000      -0.343845        -9.3565
  33   2.0000      -0.332647        -9.0518
  34   2.0000      -0.322985        -8.7889
  35   2.0000      -0.302327        -8.2267
  36   2.0000      -0.291898        -7.9430
  37   2.0000      -0.278819        -7.5871
  38   2.0000      -0.233255        -6.3472
  39   2.0000      -0.220748        -6.0069
  40   2.0000      -0.199743        -5.4353
  41   0.0000      -0.095442        -2.5971
  42   0.0000      -0.016717        -0.4549
  43   0.0000       0.022778         0.6198
  44   0.0000       0.028978         0.7885
  45   0.0000       0.044231         1.2036

MULLIKEN ATOMIC CHARGES
-----------------------
   0 C :   -0.207280
   1 C :   -0.079376
   2 C :   -0.230458
   3 C :   -0.129196
   4 H :    0.057434
   5 C :   -0.111890
   6 C :   -0.067795
   7 C :   -0.068935
   8 C :   -0.163381
   9 C :   -0.043061
  10 C :    0.039504
  11 O :   -0.173112
  12 H :    0.105870
  13 H :    0.113080
  14 H :    0.120550
  15 H :    0.084019
  16 H :    0.082865
  17 H :    0.087587
  18 H :    0.095060
  19 H :    0.091189
  20 H :    0.084272
  21 H :    0.075041
  22 H :    0.104294
  23 H :    0.105191
  24 H :    0.028530
Sum of atomic charges:   -0.0000000

LOEWDIN ATOMIC CHARGES
----------------------
   0 C :   -0.325471
   1 C :   -0.050553
   2 C :   -0.265628
   3 C :   -0.121807
   4 H :    0.122775
   5 C :   -0.205429
   6 C :   -0.211997
   7 C :   -0.120180
   8 C :   -0.066142
   9 C :   -0.212670
  10 C :   -0.004884
  11 O :   -0.138007
  12 H :    0.128488
  13 H :    0.132218
  14 H :    0.127636
  15 H :    0.116610
  16 H :    0.117370
  17 H :    0.124120
  18 H :    0.124269
  19 H :    0.128464
  20 H :    0.122770
  21 H :    0.130673
  22 H :    0.142576
  23 H :    0.129239
  24 H :    0.075560

  Mayer bond orders larger than 0.100000
B(  0-C ,  1-C ) :   1.1309 B(  0-C , 12-H ) :   0.9343 B(  0-C , 13-H ) :   0.9180
B(  0-C , 14-H ) :   0.9150 B(  1-C ,  2-C ) :   2.0351 B(  1-C ,  3-C ) :   1.0210
B(  2-C , 15-H ) :   0.9091 B(  2-C , 16-H ) :   0.9087 B(  3-C ,  4-H ) :   0.8723
B(  3-C ,  5-C ) :   1.0709 B(  3-C ,  9-C ) :   1.0772 B(  5-C ,  6-C ) :   1.1432
B(  5-C , 17-H ) :   0.9081 B(  5-C , 18-H ) :   0.9130 B(  6-C ,  7-C ) :   1.0948
B(  6-C , 19-H ) :   0.8742 B(  6-C , 20-H ) :   0.8975 B(  7-C ,  8-C ) :   1.7451
B(  7-C , 10-C ) :   1.0361 B(  8-C ,  9-C ) :   1.0888 B(  8-C , 11-O ) :   0.1147
B(  8-C , 21-H ) :   0.9434 B(  9-C , 22-H ) :   0.8575 B(  9-C , 23-H ) :   0.9182
B( 10-C , 11-O ) :   2.1337 B( 10-C , 24-H ) :   0.9124

Dispersion correction           -0.027504765
FINAL SINGLE POINT ENERGY      -463.617999039102

DIPOLE MOMENT
-------------

Method             : SCF
Type of density    : Electron Density
Multiplicity       :   1
Irrep              :   0
Energy             :  -463.6931639458343852 Eh
Relativity type    :
Basis              : AO
                                X                 Y                 Z
Electronic contribution:     -8.748778794       0.562621353       1.012957893
Nuclear contribution   :      9.668440036      -0.282417394      -1.692167415
                        -----------------------------------------
Total Dipole Moment    :      0.919661242       0.280203959      -0.679209522
                        -----------------------------------------
Magnitude (a.u.)       :      1.177122183
Magnitude (Debye)      :      2.992006810

Rotational constants in cm-1:             0.071211             0.023165             0.020936
Rotational constants in MHz :          2134.849980           694.459681           627.634275

                             ****ORCA TERMINATED NORMALLY****
TOTAL RUN TIME: 0 days 0 hours 0 minutes 18 seconds 297 msec
