                         Program Version 6.0.0  -   RELEASE  -
|  1> ! pbe def2-sv(p) def2/J RI DEFGRID1 loosescf d4 GCP(DFT/SV(P)) printgap
|  2> %output
|  3>     printlevel normal
|  4> end
|  5> * xyz 0 1
|  6> C -1.5726249108 -0.8463556378 0.0840971961
|  7> O -1.2524235851 0.5321578698 0.1099392179
|  8> C -0.0410598774 0.8610969115 -0.5363763666
|  9> C 1.2128352055 0.4865699219 0.2627972897
| 10> O 1.5316726885 -0.8739137653 0.0439739684
| 11> H -1.6923737052 -1.1927177102 -0.9481548013
| 12> H -2.5135803227 -0.944617539 0.6196340216
| 13> H -0.7993635867 -1.4454069685 0.5702451312
| 14> H 0.0097511406 0.3769161379 -1.5205485731
| 15> H -0.0752293888 1.9448251732 -0.6600941657
| 16> H 1.0195753522 0.6735071849 1.3269128936
| 17> H 2.0376404121 1.1267260829 -0.0718605498
| 18> H 2.3575278907 -1.0880993633 0.4986343586
| 19> *
| 20>
| 21>                          ****END OF INPUT****

CARTESIAN COORDINATES (ANGSTROEM)
---------------------------------
  C     -1.572625   -0.846356    0.084097
  O     -1.252424    0.532158    0.109939
  C     -0.041060    0.861097   -0.536376
  C      1.212835    0.486570    0.262797
  O      1.531673   -0.873914    0.043974
  H     -1.692374   -1.192718   -0.948155
  H     -2.513580   -0.944618    0.619634
  H     -0.799364   -1.445407    0.570245
  H      0.009751    0.376916   -1.520549
  H     -0.075229    1.944825   -0.660094
  H      1.019575    0.673507    1.326913
  H      2.037640    1.126726   -0.071861
  H      2.357528   -1.088099    0.498634

 Total Charge           Charge          ....    0
 Multiplicity           Mult            ....    1
 Number of Electrons    NEL             ....   42
 Basis Dimension        Dim             ....   86

ORBITAL ENERGIES
----------------

  NO   OCC          E(Eh)            E(eV)
   0   2.0000     -18.749494      -510.1997
   1   2.0000     -18.743021      -510.0235
   2   2.0000      -9.931372      -270.2464
   3   2.0000      -9.926830      -270.1228
   4   2.0000      -9.910683      -269.6834
   5   2.0000      -0.930656       -25.3244
   6   2.0000      -0.915414       -24.9097
   7   2.0000      -0.672013       -18.2864
   8   2.0000      -0.601850       -16.3772
   9   2.0000      -0.527485       -14.3536
  10   2.0000      -0.475138       -12.9292
  11   2.0000      -0.438225       -11.9247
  12   2.0000      -0.403215       -10.9720
  13   2.0000      -0.401933       -10.9372
  14   2.0000      -0.371536       -10.1100
  15   2.0000      -0.345782        -9.4092
  16   2.0000      -0.328171        -8.9300
  17   2.0000      -0.291802        -7.9403
  18   2.0000      -0.254249        -6.9185
  19   2.0000      -0.221533        -6.0282
  20   2.0000      -0.194202        -5.2845
  21   0.0000       0.023031         0.6267
  22   0.0000       0.063653         1.7321
  23   0.0000       0.077770         2.1162
  24   0.0000       0.090499         2.4626
  25   0.0000       0.106089         2.8868

MULLIKEN ATOMIC CHARGES
-----------------------
   0 C :   -0.111024
   1 O :   -0.345513
   2 C :    0.011329
   3 C :   -0.022020
   4 O :   -0.437987
   5 H :    0.080998
   6 H :    0.105583
   7 H :    0.103247
   8 H :    0.074250
   9 H :    0.089627
  10 H :    0.080090
  11 H :    0.070866
  12 H :    0.300555
Sum of atomic charges:   -0.0000000

LOEWDIN ATOMIC CHARGES
----------------------
   0 C :   -0.212248
   1 O :   -0.184451
   2 C :   -0.125259
   3 C :   -0.144584
   4 O :   -0.346936
   5 H :    0.096457
   6 H :    0.110794
   7 H :    0.100958
   8 H :    0.103052
   9 H :    0.115870
  10 H :    0.101648
  11 H :    0.099235
  12 H :    0.285464

  Mayer bond orders larger than 0.100000
B(  0-C ,  1-O ) :   1.0103 B(  0-C ,  5-H ) :   0.9438 B(  0-C ,  6-H ) :   0.9619
B(  0-C ,  7-H ) :   0.9374 B(  1-O ,  2-C ) :   1.0554 B(  2-C ,  3-C ) :   1.1020
B(  2-C ,  8-H ) :   0.9080 B(  2-C ,  9-H ) :   0.9297 B(  3-C ,  4-O ) :   1.0643
B(  3-C , 10-H ) :   0.9129 B(  3-C , 11-H ) :   0.9170 B(  4-O , 12-H ) :   0.8515

Dispersion correction           -0.007672117
FINAL SINGLE POINT ENERGY      -268.932537750470

DIPOLE MOMENT
-------------

Method             : SCF
Type of density    : Electron Density
Multiplicity       :   1
Irrep              :   0
Energy             :  -268.9932659941888460 Eh
Relativity type    :
Basis              : AO
                                X                 Y                 Z
Electronic contribution:      0.405203269       0.464108903       0.339686122
Nuclear contribution   :      0.326833267      -0.520012000      -0.171491517
                        -----------------------------------------
Total Dipole Moment    :      0.732036536      -0.055903097       0.168194605
                        -----------------------------------------
Magnitude (a.u.)       :      0.753187939
Magnitude (Debye)      :      1.914451596

Rotational constants in cm-1:             0.284866             0.119635             0.093483
Rotational constants in MHz :          8540.069098          3586.558857          2802.548727

                             ****ORCA TERMINATED NORMALLY****
TOTAL RUN TIME: 0 days 0 hours 0 minutes 6 seconds 464 msec
