                         Program Version 6.0.0  -   RELEASE  -
|  1> ! pbe def2-sv(p) def2/J RI DEFGRID1 loosescf d4 GCP(DFT/SV(P)) printgap
|  2> %output
|  3>     printlevel normal
|  4> end
|  5> * xyz 0 1
|  6> C -2.0213112351 0.8697748979 -0.6583535267
|  7> C -1.351999563 0.5082391134 0.663386694
|  8> C -0.0312255419 -0.2630921055 0.5335532426
|  9> H 0.3568254574 -0.4040852819 1.5508731252
| 10> C -0.2160699421 -1.6442321887 -0.0911631796
| 11> C 1.0187136751 0.5380872584 -0.2484924773
| 12> O 2.3183819805 -0.0049111222 -0.1423639531
| 13> H -1.3808667836 1.5118488791 -1.2567850905
| 14> H -2.2575914616 -0.0204269136 -1.233976536
| 15> H -2.9496086469 1.4016238027 -0.4637384843
| 16> H -2.041616938 -0.0987072486 1.2539885827
| 17> H -1.1618193825 1.4277158137 1.2225619422
| 18> H -0.6145257733 -1.5621173335 -1.0986064186
| 19> H -0.8947346277 -2.2471735955 0.5068806236
| 20> H 0.7440827267 -2.1514969012 -0.1508950862
| 21> H 1.0196504234 1.5837269267 0.090314432
| 22> H 0.7930805612 0.5197406413 -1.3166522461
| 23> H 2.5915211547 0.0127163815 0.7852905958
| 24> *
| 25>
| 26>                          ****END OF INPUT****

CARTESIAN COORDINATES (ANGSTROEM)
---------------------------------
  C     -2.021311    0.869775   -0.658354
  C     -1.352000    0.508239    0.663387
  C     -0.031226   -0.263092    0.533553
  H      0.356825   -0.404085    1.550873
  C     -0.216070   -1.644232   -0.091163
  C      1.018714    0.538087   -0.248492
  O      2.318382   -0.004911   -0.142364
  H     -1.380867    1.511849   -1.256785
  H     -2.257591   -0.020427   -1.233977
  H     -2.949609    1.401624   -0.463738
  H     -2.041617   -0.098707    1.253989
  H     -1.161819    1.427716    1.222562
  H     -0.614526   -1.562117   -1.098606
  H     -0.894735   -2.247174    0.506881
  H      0.744083   -2.151497   -0.150895
  H      1.019650    1.583727    0.090314
  H      0.793081    0.519741   -1.316652
  H      2.591521    0.012716    0.785291

 Total Charge           Charge          ....    0
 Multiplicity           Mult            ....    1
 Number of Electrons    NEL             ....   50
 Basis Dimension        Dim             ....  108

ORBITAL ENERGIES
----------------

  NO   OCC          E(Eh)            E(eV)
   0   2.0000     -18.739232      -509.9204
   1   2.0000      -9.924268      -270.0531
   2   2.0000      -9.892648      -269.1926
   3   2.0000      -9.885337      -268.9937
   4   2.0000      -9.874702      -268.7043
   5   2.0000      -9.868721      -268.5415
   6   2.0000      -0.915553       -24.9135
   7   2.0000      -0.728580       -19.8257
   8   2.0000      -0.652310       -17.7503
   9   2.0000      -0.602242       -16.3878
  10   2.0000      -0.567349       -15.4384
  11   2.0000      -0.497032       -13.5249
  12   2.0000      -0.445247       -12.1158
  13   2.0000      -0.421851       -11.4792
  14   2.0000      -0.404695       -11.0123
  15   2.0000      -0.382858       -10.4181
  16   2.0000      -0.363570        -9.8932
  17   2.0000      -0.338603        -9.2139
  18   2.0000      -0.336884        -9.1671
  19   2.0000      -0.315926        -8.5968
  20   2.0000      -0.309925        -8.4335
  21   2.0000      -0.285077        -7.7573
  22   2.0000      -0.281354        -7.6560
  23   2.0000      -0.260406        -7.0860
  24   2.0000      -0.210197        -5.7197
  25   0.0000       0.025441         0.6923
  26   0.0000       0.042402         1.1538
  27   0.0000       0.065027         1.7695
  28   0.0000       0.071624         1.9490
  29   0.0000       0.093349         2.5402

MULLIKEN ATOMIC CHARGES
-----------------------
   0 C :   -0.298198
   1 C :   -0.159456
   2 C :   -0.188099
   3 H :    0.056021
   4 C :   -0.247199
   5 C :    0.033162
   6 O :   -0.432138
   7 H :    0.109324
   8 H :    0.107438
   9 H :    0.104097
  10 H :    0.082901
  11 H :    0.081366
  12 H :    0.099656
  13 H :    0.096494
  14 H :    0.103915
  15 H :    0.070769
  16 H :    0.087487
  17 H :    0.292459
Sum of atomic charges:    0.0000000

LOEWDIN ATOMIC CHARGES
----------------------
   0 C :   -0.344252
   1 C :   -0.225847
   2 C :   -0.176132
   3 H :    0.108437
   4 C :   -0.333549
   5 C :   -0.116249
   6 O :   -0.338288
   7 H :    0.118169
   8 H :    0.118736
   9 H :    0.121636
  10 H :    0.115390
  11 H :    0.112923
  12 H :    0.116738
  13 H :    0.116515
  14 H :    0.120937
  15 H :    0.092448
  16 H :    0.112283
  17 H :    0.280103

  Mayer bond orders larger than 0.100000
B(  0-C ,  1-C ) :   1.1505 B(  0-C ,  7-H ) :   0.9504 B(  0-C ,  8-H ) :   0.9505
B(  0-C ,  9-H ) :   0.9499 B(  1-C ,  2-C ) :   1.0672 B(  1-C , 10-H ) :   0.9234
B(  1-C , 11-H ) :   0.9216 B(  2-C ,  3-H ) :   0.8971 B(  2-C ,  4-C ) :   1.1022
B(  2-C ,  5-C ) :   1.0454 B(  4-C , 12-H ) :   0.9461 B(  4-C , 13-H ) :   0.9515
B(  4-C , 14-H ) :   0.9408 B(  5-C ,  6-O ) :   1.0648 B(  5-C , 15-H ) :   0.9292
B(  5-C , 16-H ) :   0.9172 B(  6-O , 17-H ) :   0.8540

Dispersion correction           -0.013172956
FINAL SINGLE POINT ENERGY      -272.300159670960

DIPOLE MOMENT
-------------

Method             : SCF
Type of density    : Electron Density
Multiplicity       :   1
Irrep              :   0
Energy             :  -272.3697829907390542 Eh
Relativity type    :
Basis              : AO
                                X                 Y                 Z
Electronic contribution:      5.118030742       0.201630107       0.628355964
Nuclear contribution   :     -5.402818375      -0.025060711      -0.106009264
                        -----------------------------------------
Total Dipole Moment    :     -0.284787633       0.176569396       0.522346700
                        -----------------------------------------
Magnitude (a.u.)       :      0.620585870
Magnitude (Debye)      :      1.577403924

Rotational constants in cm-1:             0.178592             0.072417             0.061750
Rotational constants in MHz :          5354.046486          2171.007223          1851.210497

                             ****ORCA TERMINATED NORMALLY****
TOTAL RUN TIME: 0 days 0 hours 0 minutes 8 seconds 94 msec
