                         Program Version 6.0.0  -   RELEASE  -
|  1> ! r2scan-3c def2/J RI DEFGRID2 scfconv6 printgap
|  2> %output
|  3>     printlevel normal
|  4> end
|  5> * xyz 0 1
|  6> C 2.7188585273 -0.3551241227 0.2579469061
|  7> C 1.3359416307 -0.7235367904 -0.2736112874
|  8> C 0.2357084687 0.2279318943 0.2186051023
|  9> H 0.2048207066 0.192826295 1.3209131222
| 10> C -1.1596298796 -0.1421264692 -0.3191666612
| 11> C -1.5513124029 -1.5823135485 0.0013383545
| 12> C -2.2000433136 0.8178683652 0.2592533536
| 13> O 0.485437729 1.5622599475 -0.1977477874
| 14> H 3.4383402863 -1.1188238336 -0.0259301012
| 15> H 2.7042012239 -0.2862568924 1.3440179384
| 16> H 3.0607670707 0.5921288535 -0.1522810582
| 17> H 1.3456929807 -0.7081564445 -1.3652003052
| 18> H 1.0923433859 -1.7321330772 0.0563978465
| 19> H -1.1301132143 -0.0053192896 -1.405321745
| 20> H -2.5942171403 -1.740361783 -0.2614264884
| 21> H -0.9524212268 -2.2948522099 -0.5579051955
| 22> H -1.4325315953 -1.7792573713 1.0646144678
| 23> H -1.9070433317 1.8460385588 0.0653960818
| 24> H -2.2855759351 0.6759874609 1.3346400871
| 25> H -3.1717852905 0.63965257 -0.1937586519
| 26> H 1.3158209967 1.8607203964 0.1945052882
| 27> *
| 28>
| 29>                          ****END OF INPUT****

CARTESIAN COORDINATES (ANGSTROEM)
---------------------------------
  C      2.718859   -0.355124    0.257947
  C      1.335942   -0.723537   -0.273611
  C      0.235708    0.227932    0.218605
  H      0.204821    0.192826    1.320913
  C     -1.159630   -0.142126   -0.319167
  C     -1.551312   -1.582314    0.001338
  C     -2.200043    0.817868    0.259253
  O      0.485438    1.562260   -0.197748
  H      3.438340   -1.118824   -0.025930
  H      2.704201   -0.286257    1.344018
  H      3.060767    0.592129   -0.152281
  H      1.345693   -0.708156   -1.365200
  H      1.092343   -1.732133    0.056398
  H     -1.130113   -0.005319   -1.405322
  H     -2.594217   -1.740362   -0.261426
  H     -0.952421   -2.294852   -0.557905
  H     -1.432532   -1.779257    1.064614
  H     -1.907043    1.846039    0.065396
  H     -2.285576    0.675987    1.334640
  H     -3.171785    0.639653   -0.193759
  H      1.315821    1.860720    0.194505

 Total Charge           Charge          ....    0
 Multiplicity           Mult            ....    1
 Number of Electrons    NEL             ....   58
 Basis Dimension        Dim             ....  208

ORBITAL ENERGIES
----------------

  NO   OCC          E(Eh)            E(eV)
   0   2.0000     -18.944275      -515.4999
   1   2.0000     -10.076381      -274.1923
   2   2.0000     -10.029630      -272.9201
   3   2.0000     -10.025349      -272.8036
   4   2.0000     -10.024668      -272.7851
   5   2.0000     -10.016307      -272.5576
   6   2.0000     -10.005582      -272.2657
   7   2.0000      -0.983040       -26.7499
   8   2.0000      -0.770688       -20.9715
   9   2.0000      -0.732432       -19.9305
  10   2.0000      -0.645988       -17.5782
  11   2.0000      -0.641635       -17.4598
  12   2.0000      -0.565539       -15.3891
  13   2.0000      -0.522908       -14.2291
  14   2.0000      -0.480225       -13.0676
  15   2.0000      -0.437330       -11.9004
  16   2.0000      -0.415448       -11.3049
  17   2.0000      -0.407604       -11.0915
  18   2.0000      -0.382333       -10.4038
  19   2.0000      -0.369189       -10.0461
  20   2.0000      -0.351752        -9.5717
  21   2.0000      -0.343685        -9.3521
  22   2.0000      -0.334162        -9.0930
  23   2.0000      -0.323884        -8.8133
  24   2.0000      -0.310816        -8.4577
  25   2.0000      -0.300036        -8.1644
  26   2.0000      -0.294159        -8.0045
  27   2.0000      -0.272050        -7.4029
  28   2.0000      -0.232316        -6.3216
  29   0.0000       0.059998         1.6326
  30   0.0000       0.093123         2.5340
  31   0.0000       0.114628         3.1192
  32   0.0000       0.119978         3.2648
  33   0.0000       0.128458         3.4955

MULLIKEN ATOMIC CHARGES
-----------------------
   0 C :   -0.529273
   1 C :   -0.241585
   2 C :   -0.002726
   3 H :    0.137212
   4 C :    0.006935
   5 C :   -0.533997
   6 C :   -0.524058
   7 O :   -0.440970
   8 H :    0.153413
   9 H :    0.154200
  10 H :    0.145606
  11 H :    0.158005
  12 H :    0.145615
  13 H :    0.156516
  14 H :    0.147347
  15 H :    0.153772
  16 H :    0.156468
  17 H :    0.177781
  18 H :    0.141462
  19 H :    0.145553
  20 H :    0.292723
Sum of atomic charges:    0.0000000

LOEWDIN ATOMIC CHARGES
----------------------
   0 C :   -0.425930
   1 C :   -0.292446
   2 C :    0.061398
   3 H :    0.164159
   4 C :   -0.211138
   5 C :   -0.415511
   6 C :   -0.408540
   7 O :   -0.624289
   8 H :    0.155118
   9 H :    0.152201
  10 H :    0.147808
  11 H :    0.163856
  12 H :    0.160558
  13 H :    0.166535
  14 H :    0.156188
  15 H :    0.152638
  16 H :    0.155270
  17 H :    0.170629
  18 H :    0.152576
  19 H :    0.150532
  20 H :    0.268389

  Mayer bond orders larger than 0.100000
B(  0-C ,  1-C ) :   0.8614 B(  0-C ,  8-H ) :   0.9695 B(  0-C ,  9-H ) :   0.9856
B(  0-C , 10-H ) :   0.9844 B(  1-C ,  2-C ) :   0.8911 B(  1-C , 11-H ) :   0.9796
B(  1-C , 12-H ) :   0.9633 B(  2-C ,  3-H ) :   0.9729 B(  2-C ,  4-C ) :   0.9304
B(  2-C ,  7-O ) :   0.8162 B(  4-C ,  5-C ) :   0.8578 B(  4-C ,  6-C ) :   0.9109
B(  4-C , 13-H ) :   0.9688 B(  5-C , 14-H ) :   0.9684 B(  5-C , 15-H ) :   0.9723
B(  5-C , 16-H ) :   0.9881 B(  6-C , 17-H ) :   0.9705 B(  6-C , 18-H ) :   0.9839
B(  6-C , 19-H ) :   0.9776 B(  7-O , 20-H ) :   0.8969

Dispersion correction           -0.005554189
FINAL SINGLE POINT ENERGY      -312.203208380758

DIPOLE MOMENT
-------------

Method             : SCF
Type of density    : Electron Density
Multiplicity       :   1
Irrep              :   0
Energy             :  -312.2088670132656034 Eh
Relativity type    :
Basis              : AO
                                X                 Y                 Z
Electronic contribution:      0.673074412       3.258956784      -1.059773174
Nuclear contribution   :     -0.285222322      -3.596068534       1.328001575
                        -----------------------------------------
Total Dipole Moment    :      0.387852090      -0.337111749       0.268228400
                        -----------------------------------------
Magnitude (a.u.)       :      0.579672364
Magnitude (Debye)      :      1.473410056

Rotational constants in cm-1:             0.133552             0.056700             0.043003
Rotational constants in MHz :          4003.792866          1699.820548          1289.209768

                             ****ORCA TERMINATED NORMALLY****
TOTAL RUN TIME: 0 days 0 hours 0 minutes 28 seconds 190 msec
