                         Program Version 6.0.0  -   RELEASE  -
|  1> ! r2scan-3c def2/J RI DEFGRID2 scfconv6 printgap
|  2> %output
|  3>     printlevel normal
|  4> end
|  5> %cpcm
|  6>     smd true
|  7>     smdsolvent "water"
|  8> end
|  9> * xyz 0 1
| 10> C 2.7188585273 -0.3551241227 0.2579469061
| 11> C 1.3359416307 -0.7235367904 -0.2736112874
| 12> C 0.2357084687 0.2279318943 0.2186051023
| 13> H 0.2048207066 0.192826295 1.3209131222
| 14> C -1.1596298796 -0.1421264692 -0.3191666612
| 15> C -1.5513124029 -1.5823135485 0.0013383545
| 16> C -2.2000433136 0.8178683652 0.2592533536
| 17> O 0.485437729 1.5622599475 -0.1977477874
| 18> H 3.4383402863 -1.1188238336 -0.0259301012
| 19> H 2.7042012239 -0.2862568924 1.3440179384
| 20> H 3.0607670707 0.5921288535 -0.1522810582
| 21> H 1.3456929807 -0.7081564445 -1.3652003052
| 22> H 1.0923433859 -1.7321330772 0.0563978465
| 23> H -1.1301132143 -0.0053192896 -1.405321745
| 24> H -2.5942171403 -1.740361783 -0.2614264884
| 25> H -0.9524212268 -2.2948522099 -0.5579051955
| 26> H -1.4325315953 -1.7792573713 1.0646144678
| 27> H -1.9070433317 1.8460385588 0.0653960818
| 28> H -2.2855759351 0.6759874609 1.3346400871
| 29> H -3.1717852905 0.63965257 -0.1937586519
| 30> H 1.3158209967 1.8607203964 0.1945052882
| 31> *
| 32>
| 33>                          ****END OF INPUT****

CARTESIAN COORDINATES (ANGSTROEM)
---------------------------------
  C      2.718859   -0.355124    0.257947
  C      1.335942   -0.723537   -0.273611
  C      0.235708    0.227932    0.218605
  H      0.204821    0.192826    1.320913
  C     -1.159630   -0.142126   -0.319167
  C     -1.551312   -1.582314    0.001338
  C     -2.200043    0.817868    0.259253
  O      0.485438    1.562260   -0.197748
  H      3.438340   -1.118824   -0.025930
  H      2.704201   -0.286257    1.344018
  H      3.060767    0.592129   -0.152281
  H      1.345693   -0.708156   -1.365200
  H      1.092343   -1.732133    0.056398
  H     -1.130113   -0.005319   -1.405322
  H     -2.594217   -1.740362   -0.261426
  H     -0.952421   -2.294852   -0.557905
  H     -1.432532   -1.779257    1.064614
  H     -1.907043    1.846039    0.065396
  H     -2.285576    0.675987    1.334640
  H     -3.171785    0.639653   -0.193759
  H      1.315821    1.860720    0.194505

 Total Charge           Charge          ....    0
 Multiplicity           Mult            ....    1
 Number of Electrons    NEL             ....   58
 Basis Dimension        Dim             ....  208

ORBITAL ENERGIES
----------------

  NO   OCC          E(Eh)            E(eV)
   0   2.0000     -18.947265      -515.5813
   1   2.0000     -10.071019      -274.0464
   2   2.0000     -10.025940      -272.8197
   3   2.0000     -10.015964      -272.5482
   4   2.0000     -10.010580      -272.4017
   5   2.0000     -10.008481      -272.3446
   6   2.0000     -10.004977      -272.2493
   7   2.0000      -0.985004       -26.8033
   8   2.0000      -0.765799       -20.8384
   9   2.0000      -0.723329       -19.6828
  10   2.0000      -0.642262       -17.4768
  11   2.0000      -0.634486       -17.2652
  12   2.0000      -0.558009       -15.1842
  13   2.0000      -0.518449       -14.1077
  14   2.0000      -0.476850       -12.9757
  15   2.0000      -0.431527       -11.7424
  16   2.0000      -0.406915       -11.0727
  17   2.0000      -0.402366       -10.9489
  18   2.0000      -0.376494       -10.2449
  19   2.0000      -0.363593        -9.8939
  20   2.0000      -0.346616        -9.4319
  21   2.0000      -0.337111        -9.1732
  22   2.0000      -0.329886        -8.9767
  23   2.0000      -0.317443        -8.6381
  24   2.0000      -0.302464        -8.2305
  25   2.0000      -0.297444        -8.0939
  26   2.0000      -0.290521        -7.9055
  27   2.0000      -0.268312        -7.3012
  28   2.0000      -0.234856        -6.3908
  29   0.0000       0.076652         2.0858
  30   0.0000       0.100685         2.7398
  31   0.0000       0.122999         3.3470
  32   0.0000       0.129123         3.5136
  33   0.0000       0.134833         3.6690

MULLIKEN ATOMIC CHARGES
-----------------------
   0 C :   -0.543783
   1 C :   -0.279689
   2 C :    0.013290
   3 H :    0.152680
   4 C :    0.016576
   5 C :   -0.573050
   6 C :   -0.561003
   7 O :   -0.524657
   8 H :    0.162182
   9 H :    0.163654
  10 H :    0.159533
  11 H :    0.162576
  12 H :    0.159675
  13 H :    0.162328
  14 H :    0.158582
  15 H :    0.166140
  16 H :    0.171053
  17 H :    0.165459
  18 H :    0.160469
  19 H :    0.161848
  20 H :    0.346138
Sum of atomic charges:   -0.0000000

LOEWDIN ATOMIC CHARGES
----------------------
   0 C :   -0.430006
   1 C :   -0.293022
   2 C :    0.062212
   3 H :    0.172252
   4 C :   -0.212289
   5 C :   -0.420438
   6 C :   -0.418113
   7 O :   -0.659051
   8 H :    0.156169
   9 H :    0.156580
  10 H :    0.153404
  11 H :    0.163488
  12 H :    0.165951
  13 H :    0.166226
  14 H :    0.158415
  15 H :    0.156905
  16 H :    0.159791
  17 H :    0.163429
  18 H :    0.157570
  19 H :    0.155175
  20 H :    0.285352

  Mayer bond orders larger than 0.100000
B(  0-C ,  1-C ) :   0.8718 B(  0-C ,  8-H ) :   0.9692 B(  0-C ,  9-H ) :   0.9802
B(  0-C , 10-H ) :   0.9775 B(  1-C ,  2-C ) :   0.9086 B(  1-C , 11-H ) :   0.9816
B(  1-C , 12-H ) :   0.9603 B(  2-C ,  3-H ) :   0.9644 B(  2-C ,  4-C ) :   0.9217
B(  2-C ,  7-O ) :   0.8014 B(  4-C ,  5-C ) :   0.8626 B(  4-C ,  6-C ) :   0.8939
B(  4-C , 13-H ) :   0.9672 B(  5-C , 14-H ) :   0.9667 B(  5-C , 15-H ) :   0.9675
B(  5-C , 16-H ) :   0.9855 B(  6-C , 17-H ) :   0.9734 B(  6-C , 18-H ) :   0.9821
B(  6-C , 19-H ) :   0.9744 B(  7-O , 20-H ) :   0.8722

Dispersion correction           -0.005554189
FINAL SINGLE POINT ENERGY      -312.208052843892

DIPOLE MOMENT
-------------

Method             : SCF
Type of density    : Electron Density
Multiplicity       :   1
Irrep              :   0
Energy             :  -312.2137114763996237 Eh
Relativity type    :
Basis              : AO
                                X                 Y                 Z
Electronic contribution:      0.810640131       3.074350324      -0.874557180
Nuclear contribution   :     -0.285222322      -3.596068534       1.328001575
                        -----------------------------------------
Total Dipole Moment    :      0.525417809      -0.521718210       0.453444394
                        -----------------------------------------
Magnitude (a.u.)       :      0.868254331
Magnitude (Debye)      :      2.206927122

Rotational constants in cm-1:             0.133552             0.056700             0.043003
Rotational constants in MHz :          4003.792866          1699.820548          1289.209768

                             ****ORCA TERMINATED NORMALLY****
TOTAL RUN TIME: 0 days 0 hours 0 minutes 32 seconds 966 msec
