                         Program Version 6.0.0  -   RELEASE  -
|  1> ! r2scan-3c def2/J RI DEFGRID2 scfconv6 printgap
|  2> %output
|  3>     printlevel normal
|  4> end
|  5> * xyz 0 1
|  6> C -2.195593869 -0.7761502873 1.3060517029
|  7> C -2.2904798199 -0.1155621929 -0.0666759355
|  8> C -2.2593742134 1.4042158192 0.0621070903
|  9> C -1.1827939467 -0.6157303787 -1.018888126
| 10> C 0.193028953 -0.2934491987 -0.5320673168
| 11> C 0.9023650041 -1.1460188718 0.3185502183
| 12> N 2.105111971 -0.8460275475 0.78047059
| 13> C 2.6289078927 0.3109925525 0.3929132456
| 14> C 1.9469327424 1.1534026943 -0.4723843485
| 15> N 0.7406759662 0.8527715456 -0.9298839288
| 16> H -2.2159833465 -1.8596685844 1.2163936742
| 17> H -3.0340200654 -0.4689143068 1.9263173429
| 18> H -1.2762874874 -0.4870286999 1.8117783904
| 19> H -3.2449423607 -0.4036373027 -0.5201129797
| 20> H -3.079702164 1.7459948463 0.6885839728
| 21> H -1.3246745162 1.7329408774 0.5112623796
| 22> H -2.3488960903 1.8733919665 -0.9138898239
| 23> H -1.3218000521 -0.1380335071 -1.9888523159
| 24> H -1.2784356462 -1.6965339918 -1.1323183285
| 25> H 0.4976314366 -2.0974027445 0.6338802428
| 26> H 3.6081744806 0.5495845646 0.7808121306
| 27> H 2.3676968605 2.0886743811 -0.8136128181
| 28> *
| 29>
| 30>                          ****END OF INPUT****

CARTESIAN COORDINATES (ANGSTROEM)
---------------------------------
  C     -2.195594   -0.776150    1.306052
  C     -2.290480   -0.115562   -0.066676
  C     -2.259374    1.404216    0.062107
  C     -1.182794   -0.615730   -1.018888
  C      0.193029   -0.293449   -0.532067
  C      0.902365   -1.146019    0.318550
  N      2.105112   -0.846028    0.780471
  C      2.628908    0.310993    0.392913
  C      1.946933    1.153403   -0.472384
  N      0.740676    0.852772   -0.929884
  H     -2.215983   -1.859669    1.216394
  H     -3.034020   -0.468914    1.926317
  H     -1.276287   -0.487029    1.811778
  H     -3.244942   -0.403637   -0.520113
  H     -3.079702    1.745995    0.688584
  H     -1.324675    1.732941    0.511262
  H     -2.348896    1.873392   -0.913890
  H     -1.321800   -0.138034   -1.988852
  H     -1.278436   -1.696534   -1.132318
  H      0.497631   -2.097403    0.633880
  H      3.608174    0.549585    0.780812
  H      2.367697    2.088674   -0.813613

 Total Charge           Charge          ....    0
 Multiplicity           Mult            ....    1
 Number of Electrons    NEL             ....   74
 Basis Dimension        Dim             ....  260

ORBITAL ENERGIES
----------------

  NO   OCC          E(Eh)            E(eV)
   0   2.0000     -14.173208      -385.6726
   1   2.0000     -14.170869      -385.6089
   2   2.0000     -10.082926      -274.3704
   3   2.0000     -10.076726      -274.2017
   4   2.0000     -10.074597      -274.1437
   5   2.0000     -10.074546      -274.1423
   6   2.0000     -10.044099      -273.3138
   7   2.0000     -10.036714      -273.1129
   8   2.0000     -10.020562      -272.6733
   9   2.0000     -10.014519      -272.5089
  10   2.0000      -0.954190       -25.9648
  11   2.0000      -0.879840       -23.9417
  12   2.0000      -0.792016       -21.5518
  13   2.0000      -0.745846       -20.2955
  14   2.0000      -0.675920       -18.3927
  15   2.0000      -0.654592       -17.8124
  16   2.0000      -0.628414       -17.1000
  17   2.0000      -0.603882       -16.4325
  18   2.0000      -0.531881       -14.4732
  19   2.0000      -0.494934       -13.4678
  20   2.0000      -0.484299       -13.1785
  21   2.0000      -0.453663       -12.3448
  22   2.0000      -0.438316       -11.9272
  23   2.0000      -0.410385       -11.1671
  24   2.0000      -0.404327       -11.0023
  25   2.0000      -0.393272       -10.7015
  26   2.0000      -0.388574       -10.5736
  27   2.0000      -0.357188        -9.7196
  28   2.0000      -0.354168        -9.6374
  29   2.0000      -0.338421        -9.2089
  30   2.0000      -0.318685        -8.6719
  31   2.0000      -0.304191        -8.2775
  32   2.0000      -0.301802        -8.2124
  33   2.0000      -0.299840        -8.1591
  34   2.0000      -0.273791        -7.4502
  35   2.0000      -0.249397        -6.7864
  36   2.0000      -0.214256        -5.8302
  37   0.0000      -0.077530        -2.1097
  38   0.0000      -0.050798        -1.3823
  39   0.0000       0.070229         1.9110
  40   0.0000       0.082789         2.2528
  41   0.0000       0.103109         2.8057

MULLIKEN ATOMIC CHARGES
-----------------------
   0 C :   -0.557317
   1 C :    0.060208
   2 C :   -0.499628
   3 C :   -0.453020
   4 C :    0.305189
   5 C :   -0.229734
   6 N :   -0.150112
   7 C :   -0.066469
   8 C :   -0.064774
   9 N :   -0.178815
  10 H :    0.150393
  11 H :    0.148569
  12 H :    0.169402
  13 H :    0.150883
  14 H :    0.142810
  15 H :    0.163258
  16 H :    0.151455
  17 H :    0.174875
  18 H :    0.164282
  19 H :    0.144760
  20 H :    0.136242
  21 H :    0.137544
Sum of atomic charges:   -0.0000000

LOEWDIN ATOMIC CHARGES
----------------------
   0 C :   -0.413068
   1 C :   -0.226058
   2 C :   -0.408590
   3 C :   -0.248350
   4 C :    0.145407
   5 C :    0.098682
   6 N :   -0.570307
   7 C :    0.086991
   8 C :    0.099141
   9 N :   -0.576256
  10 H :    0.153260
  11 H :    0.155650
  12 H :    0.160201
  13 H :    0.156827
  14 H :    0.152049
  15 H :    0.162747
  16 H :    0.158377
  17 H :    0.181574
  18 H :    0.168730
  19 H :    0.189822
  20 H :    0.186609
  21 H :    0.186561

  Mayer bond orders larger than 0.100000
B(  0-C ,  1-C ) :   0.8913 B(  0-C , 10-H ) :   0.9726 B(  0-C , 11-H ) :   0.9655
B(  0-C , 12-H ) :   0.9777 B(  1-C ,  2-C ) :   0.9451 B(  1-C ,  3-C ) :   0.8830
B(  1-C , 13-H ) :   0.9407 B(  2-C , 14-H ) :   0.9691 B(  2-C , 15-H ) :   0.9743
B(  2-C , 16-H ) :   0.9704 B(  3-C ,  4-C ) :   0.8275 B(  3-C , 17-H ) :   0.9889
B(  3-C , 18-H ) :   0.9961 B(  4-C ,  5-C ) :   1.2792 B(  4-C ,  9-N ) :   1.2481
B(  5-C ,  6-N ) :   1.4822 B(  5-C ,  8-C ) :   0.1143 B(  5-C , 19-H ) :   0.9729
B(  6-N ,  7-C ) :   1.4256 B(  7-C ,  8-C ) :   1.3027 B(  7-C , 20-H ) :   0.9707
B(  8-C ,  9-N ) :   1.4423 B(  8-C , 21-H ) :   0.9670

Dispersion correction           -0.007741962
FINAL SINGLE POINT ENERGY      -421.452285919298

DIPOLE MOMENT
-------------

Method             : SCF
Type of density    : Electron Density
Multiplicity       :   1
Irrep              :   0
Energy             :  -421.4572406315199942 Eh
Relativity type    :
Basis              : AO
                                X                 Y                 Z
Electronic contribution:     11.530127389      -0.752730028      -2.129224986
Nuclear contribution   :    -11.853389215       0.787504816       2.063377766
                        -----------------------------------------
Total Dipole Moment    :     -0.323261826       0.034774789      -0.065847220
                        -----------------------------------------
Magnitude (a.u.)       :      0.331727826
Magnitude (Debye)      :      0.843185124

Rotational constants in cm-1:             0.086199             0.031689             0.027599
Rotational constants in MHz :          2584.173387           950.014801           827.383081

                             ****ORCA TERMINATED NORMALLY****
TOTAL RUN TIME: 0 days 0 hours 0 minutes 36 seconds 554 msec
