                         Program Version 6.0.0  -   RELEASE  -
|  1> ! r2scan-3c def2/J RI DEFGRID2 scfconv6 printgap
|  2> %output
|  3>     printlevel normal
|  4> end
|  5> %cpcm
|  6>     smd true
|  7>     smdsolvent "water"
|  8> end
|  9> * xyz 0 1
| 10> C -2.195593869 -0.7761502873 1.3060517029
| 11> C -2.2904798199 -0.1155621929 -0.0666759355
| 12> C -2.2593742134 1.4042158192 0.0621070903
| 13> C -1.1827939467 -0.6157303787 -1.018888126
| 14> C 0.193028953 -0.2934491987 -0.5320673168
| 15> C 0.9023650041 -1.1460188718 0.3185502183
| 16> N 2.105111971 -0.8460275475 0.78047059
| 17> C 2.6289078927 0.3109925525 0.3929132456
| 18> C 1.9469327424 1.1534026943 -0.4723843485
| 19> N 0.7406759662 0.8527715456 -0.9298839288
| 20> H -2.2159833465 -1.8596685844 1.2163936742
| 21> H -3.0340200654 -0.4689143068 1.9263173429
| 22> H -1.2762874874 -0.4870286999 1.8117783904
| 23> H -3.2449423607 -0.4036373027 -0.5201129797
| 24> H -3.079702164 1.7459948463 0.6885839728
| 25> H -1.3246745162 1.7329408774 0.5112623796
| 26> H -2.3488960903 1.8733919665 -0.9138898239
| 27> H -1.3218000521 -0.1380335071 -1.9888523159
| 28> H -1.2784356462 -1.6965339918 -1.1323183285
| 29> H 0.4976314366 -2.0974027445 0.6338802428
| 30> H 3.6081744806 0.5495845646 0.7808121306
| 31> H 2.3676968605 2.0886743811 -0.8136128181
| 32> *
| 33>
| 34>                          ****END OF INPUT****

CARTESIAN COORDINATES (ANGSTROEM)
---------------------------------
  C     -2.195594   -0.776150    1.306052
  C     -2.290480   -0.115562   -0.066676
  C     -2.259374    1.404216    0.062107
  C     -1.182794   -0.615730   -1.018888
  C      0.193029   -0.293449   -0.532067
  C      0.902365   -1.146019    0.318550
  N      2.105112   -0.846028    0.780471
  C      2.628908    0.310993    0.392913
  C      1.946933    1.153403   -0.472384
  N      0.740676    0.852772   -0.929884
  H     -2.215983   -1.859669    1.216394
  H     -3.034020   -0.468914    1.926317
  H     -1.276287   -0.487029    1.811778
  H     -3.244942   -0.403637   -0.520113
  H     -3.079702    1.745995    0.688584
  H     -1.324675    1.732941    0.511262
  H     -2.348896    1.873392   -0.913890
  H     -1.321800   -0.138034   -1.988852
  H     -1.278436   -1.696534   -1.132318
  H      0.497631   -2.097403    0.633880
  H      3.608174    0.549585    0.780812
  H      2.367697    2.088674   -0.813613

 Total Charge           Charge          ....    0
 Multiplicity           Mult            ....    1
 Number of Electrons    NEL             ....   74
 Basis Dimension        Dim             ....  260

ORBITAL ENERGIES
----------------

  NO   OCC          E(Eh)            E(eV)
   0   2.0000     -14.173879      -385.6909
   1   2.0000     -14.170397      -385.5961
   2   2.0000     -10.079243      -274.2701
   3   2.0000     -10.071596      -274.0621
   4   2.0000     -10.069918      -274.0164
   5   2.0000     -10.069637      -274.0088
   6   2.0000     -10.033790      -273.0333
   7   2.0000     -10.026148      -272.8253
   8   2.0000     -10.008043      -272.3327
   9   2.0000     -10.006783      -272.2984
  10   2.0000      -0.952775       -25.9263
  11   2.0000      -0.879305       -23.9271
  12   2.0000      -0.783439       -21.3185
  13   2.0000      -0.739440       -20.1212
  14   2.0000      -0.668394       -18.1879
  15   2.0000      -0.645537       -17.5660
  16   2.0000      -0.623868       -16.9763
  17   2.0000      -0.598417       -16.2838
  18   2.0000      -0.523471       -14.2444
  19   2.0000      -0.491547       -13.3757
  20   2.0000      -0.478736       -13.0271
  21   2.0000      -0.444504       -12.0956
  22   2.0000      -0.430092       -11.7034
  23   2.0000      -0.402775       -10.9601
  24   2.0000      -0.394232       -10.7276
  25   2.0000      -0.388694       -10.5769
  26   2.0000      -0.380160       -10.3447
  27   2.0000      -0.347821        -9.4647
  28   2.0000      -0.346868        -9.4388
  29   2.0000      -0.328150        -8.9294
  30   2.0000      -0.315312        -8.5801
  31   2.0000      -0.296891        -8.0788
  32   2.0000      -0.294358        -8.0099
  33   2.0000      -0.290119        -7.8945
  34   2.0000      -0.278015        -7.5652
  35   2.0000      -0.244346        -6.6490
  36   2.0000      -0.216037        -5.8787
  37   0.0000      -0.076663        -2.0861
  38   0.0000      -0.046790        -1.2732
  39   0.0000       0.075807         2.0628
  40   0.0000       0.087572         2.3830
  41   0.0000       0.111236         3.0269

MULLIKEN ATOMIC CHARGES
-----------------------
   0 C :   -0.591881
   1 C :    0.086437
   2 C :   -0.564028
   3 C :   -0.459863
   4 C :    0.288977
   5 C :   -0.220449
   6 N :   -0.203181
   7 C :   -0.080992
   8 C :   -0.072810
   9 N :   -0.211295
  10 H :    0.165350
  11 H :    0.159913
  12 H :    0.172957
  13 H :    0.163634
  14 H :    0.158123
  15 H :    0.169126
  16 H :    0.162831
  17 H :    0.182006
  18 H :    0.184923
  19 H :    0.173345
  20 H :    0.167886
  21 H :    0.168993
Sum of atomic charges:   -0.0000000

LOEWDIN ATOMIC CHARGES
----------------------
   0 C :   -0.418654
   1 C :   -0.221644
   2 C :   -0.419323
   3 C :   -0.247928
   4 C :    0.148674
   5 C :    0.103534
   6 N :   -0.606176
   7 C :    0.088166
   8 C :    0.102269
   9 N :   -0.602762
  10 H :    0.158504
  11 H :    0.157780
  12 H :    0.160672
  13 H :    0.161873
  14 H :    0.156346
  15 H :    0.161700
  16 H :    0.158301
  17 H :    0.182214
  18 H :    0.178153
  19 H :    0.201463
  20 H :    0.198267
  21 H :    0.198569

  Mayer bond orders larger than 0.100000
B(  0-C ,  1-C ) :   0.8909 B(  0-C , 10-H ) :   0.9672 B(  0-C , 11-H ) :   0.9647
B(  0-C , 12-H ) :   0.9766 B(  1-C ,  2-C ) :   0.9164 B(  1-C ,  3-C ) :   0.8819
B(  1-C , 13-H ) :   0.9399 B(  2-C , 14-H ) :   0.9660 B(  2-C , 15-H ) :   0.9749
B(  2-C , 16-H ) :   0.9733 B(  3-C ,  4-C ) :   0.8357 B(  3-C ,  9-N ) :   0.1017
B(  3-C , 17-H ) :   0.9924 B(  3-C , 18-H ) :   0.9815 B(  4-C ,  5-C ) :   1.3004
B(  4-C ,  9-N ) :   1.2491 B(  5-C ,  6-N ) :   1.4820 B(  5-C ,  8-C ) :   0.1142
B(  5-C , 19-H ) :   0.9565 B(  6-N ,  7-C ) :   1.4211 B(  7-C ,  8-C ) :   1.3174
B(  7-C , 20-H ) :   0.9599 B(  8-C ,  9-N ) :   1.4311 B(  8-C , 21-H ) :   0.9568

Dispersion correction           -0.007741962
FINAL SINGLE POINT ENERGY      -421.460636171409

DIPOLE MOMENT
-------------

Method             : SCF
Type of density    : Electron Density
Multiplicity       :   1
Irrep              :   0
Energy             :  -421.4655908836310800 Eh
Relativity type    :
Basis              : AO
                                X                 Y                 Z
Electronic contribution:     11.417628479      -0.830283974      -2.129481922
Nuclear contribution   :    -11.853389215       0.787504816       2.063377766
                        -----------------------------------------
Total Dipole Moment    :     -0.435760736      -0.042779157      -0.066104156
                        -----------------------------------------
Magnitude (a.u.)       :      0.442817383
Magnitude (Debye)      :      1.125552339

Rotational constants in cm-1:             0.086199             0.031689             0.027599
Rotational constants in MHz :          2584.173387           950.014801           827.383081

                             ****ORCA TERMINATED NORMALLY****
TOTAL RUN TIME: 0 days 0 hours 0 minutes 50 seconds 565 msec
