                         Program Version 6.0.0  -   RELEASE  -
|  1> ! pbe def2-sv(p) def2/J RI DEFGRID1 loosescf d4 GCP(DFT/SV(P)) printgap
|  2> %output
|  3>     printlevel normal
|  4> end
|  5> * xyz 0 1
|  6> C 2.224690905 0.7157901526 -0.124651875
|  7> C 1.6479614923 -0.6947040769 -0.1883924528
|  8> C 0.2557735493 -0.8225450857 0.4336617221
|  9> C -0.8315774329 0.0085156268 -0.2705402909
| 10> H -0.5412562806 0.1749900479 -1.3213172882
| 11> C -2.1814637736 -0.7040135511 -0.2450685728
| 12> O -1.0292809526 1.2681379014 0.356795474
| 13> H 1.6525537111 1.4001148249 -0.7468556151
| 14> H 3.2493756481 0.7166557327 -0.4886758028
| 15> H 2.2286588526 1.0815984946 0.8997832877
| 16> H 1.6022419528 -1.0187348488 -1.2306937358
| 17> H 2.3195045157 -1.3755948391 0.3389357598
| 18> H -0.035820895 -1.8731622415 0.4023470871
| 19> H 0.2869062742 -0.520733987 1.4832183858
| 20> H -2.9395434756 -0.059720799 -0.6824870037
| 21> H -2.1294839208 -1.6303608739 -0.8084838113
| 22> H -2.4628574789 -0.9174468707 0.7827090318
| 23> H -0.183358017 1.7310015689 0.414806769
| 24> *
| 25>
| 26>                          ****END OF INPUT****

CARTESIAN COORDINATES (ANGSTROEM)
---------------------------------
  C      2.224691    0.715790   -0.124652
  C      1.647961   -0.694704   -0.188392
  C      0.255774   -0.822545    0.433662
  C     -0.831577    0.008516   -0.270540
  H     -0.541256    0.174990   -1.321317
  C     -2.181464   -0.704014   -0.245069
  O     -1.029281    1.268138    0.356795
  H      1.652554    1.400115   -0.746856
  H      3.249376    0.716656   -0.488676
  H      2.228659    1.081598    0.899783
  H      1.602242   -1.018735   -1.230694
  H      2.319505   -1.375595    0.338936
  H     -0.035821   -1.873162    0.402347
  H      0.286906   -0.520734    1.483218
  H     -2.939543   -0.059721   -0.682487
  H     -2.129484   -1.630361   -0.808484
  H     -2.462857   -0.917447    0.782709
  H     -0.183358    1.731002    0.414807

 Total Charge           Charge          ....    0
 Multiplicity           Mult            ....    1
 Number of Electrons    NEL             ....   50
 Basis Dimension        Dim             ....  108

ORBITAL ENERGIES
----------------

  NO   OCC          E(Eh)            E(eV)
   0   2.0000     -18.734108      -509.7810
   1   2.0000      -9.933392      -270.3013
   2   2.0000      -9.889306      -269.1017
   3   2.0000      -9.884039      -268.9584
   4   2.0000      -9.880335      -268.8576
   5   2.0000      -9.868014      -268.5223
   6   2.0000      -0.911595       -24.8058
   7   2.0000      -0.719064       -19.5667
   8   2.0000      -0.672162       -18.2905
   9   2.0000      -0.610761       -16.6196
  10   2.0000      -0.539725       -14.6867
  11   2.0000      -0.512671       -13.9505
  12   2.0000      -0.462205       -12.5772
  13   2.0000      -0.409610       -11.1461
  14   2.0000      -0.402542       -10.9537
  15   2.0000      -0.386453       -10.5159
  16   2.0000      -0.356182        -9.6922
  17   2.0000      -0.339744        -9.2449
  18   2.0000      -0.335379        -9.1261
  19   2.0000      -0.324742        -8.8367
  20   2.0000      -0.311908        -8.4875
  21   2.0000      -0.294326        -8.0090
  22   2.0000      -0.288396        -7.8477
  23   2.0000      -0.258343        -7.0299
  24   2.0000      -0.207484        -5.6459
  25   0.0000       0.024422         0.6646
  26   0.0000       0.057790         1.5726
  27   0.0000       0.060798         1.6544
  28   0.0000       0.069191         1.8828
  29   0.0000       0.083655         2.2764

MULLIKEN ATOMIC CHARGES
-----------------------
   0 C :   -0.318719
   1 C :   -0.176757
   2 C :   -0.166215
   3 C :    0.007405
   4 H :    0.059923
   5 C :   -0.246352
   6 O :   -0.430797
   7 H :    0.109854
   8 H :    0.111009
   9 H :    0.104675
  10 H :    0.090609
  11 H :    0.088213
  12 H :    0.082930
  13 H :    0.085099
  14 H :    0.106822
  15 H :    0.097287
  16 H :    0.101404
  17 H :    0.293611
Sum of atomic charges:    0.0000000

LOEWDIN ATOMIC CHARGES
----------------------
   0 C :   -0.351485
   1 C :   -0.234200
   2 C :   -0.244007
   3 C :   -0.053975
   4 H :    0.092826
   5 C :   -0.339602
   6 O :   -0.335703
   7 H :    0.113713
   8 H :    0.124263
   9 H :    0.117240
  10 H :    0.115053
  11 H :    0.117161
  12 H :    0.120250
  13 H :    0.118181
  14 H :    0.123431
  15 H :    0.119653
  16 H :    0.122326
  17 H :    0.274874

  Mayer bond orders larger than 0.100000
B(  0-C ,  1-C ) :   1.1463 B(  0-C ,  7-H ) :   0.9403 B(  0-C ,  8-H ) :   0.9482
B(  0-C ,  9-H ) :   0.9512 B(  1-C ,  2-C ) :   1.1299 B(  1-C , 10-H ) :   0.9261
B(  1-C , 11-H ) :   0.9268 B(  2-C ,  3-C ) :   1.0410 B(  2-C , 12-H ) :   0.9167
B(  2-C , 13-H ) :   0.9092 B(  3-C ,  4-H ) :   0.9144 B(  3-C ,  5-C ) :   1.1230
B(  3-C ,  6-O ) :   1.0665 B(  5-C , 14-H ) :   0.9455 B(  5-C , 15-H ) :   0.9456
B(  5-C , 16-H ) :   0.9448 B(  6-O , 17-H ) :   0.8461

Dispersion correction           -0.012755776
FINAL SINGLE POINT ENERGY      -272.302411929171

DIPOLE MOMENT
-------------

Method             : SCF
Type of density    : Electron Density
Multiplicity       :   1
Irrep              :   0
Energy             :  -272.3725437558857152 Eh
Relativity type    :
Basis              : AO
                                X                 Y                 Z
Electronic contribution:     -2.222868288       1.933014198       0.726749418
Nuclear contribution   :      2.843235359      -2.130882574      -0.892258273
                        -----------------------------------------
Total Dipole Moment    :      0.620367071      -0.197868376      -0.165508855
                        -----------------------------------------
Magnitude (a.u.)       :      0.671863363
Magnitude (Debye)      :      1.707740952

Rotational constants in cm-1:             0.200257             0.071082             0.057960
Rotational constants in MHz :          6003.566980          2130.976296          1737.583211

                             ****ORCA TERMINATED NORMALLY****
TOTAL RUN TIME: 0 days 0 hours 0 minutes 7 seconds 412 msec
