                         Program Version 6.0.0  -   RELEASE  -
|  1> ! r2scan-3c def2/J RI DEFGRID2 scfconv6 printgap
|  2> %output
|  3>     printlevel normal
|  4> end
|  5> * xyz 0 1
|  6> C -4.2776652522 -1.9569408422 -1.3456861451
|  7> C -3.2971748811 -0.8026383989 -1.1792301796
|  8> C -2.4873357041 -0.9194380105 0.1159441473
|  9> H -2.06163651 -1.9270568154 0.1755653059
| 10> C -3.3088476484 -0.6483244694 1.3710037037
| 11> N -1.3121278523 -0.0275405883 0.0696954069
| 12> C -0.0544632264 -0.6306333013 0.120650025
| 13> O 0.0678187883 -1.8415832203 0.2006146793
| 14> C 1.0594472837 0.2872398703 0.0706532591
| 15> C 0.9020315002 1.6327313208 -0.0225392237
| 16> N -0.3739138156 2.1026874906 -0.0633129495
| 17> C -1.5097989755 1.3283638451 -0.0238210263
| 18> O -2.6042895424 1.8576439574 -0.0722459719
| 19> C 2.0110620118 2.6169429705 -0.0684093071
| 20> Br 2.7820725792 -0.5109235541 0.1493579797
| 21> H -5.0368097283 -1.9378744286 -0.5696853429
| 22> H -4.7736750768 -1.8810171988 -2.3092895773
| 23> H -3.7552370952 -2.9097435061 -1.2999980563
| 24> H -2.5985698394 -0.8045672367 -2.0203339297
| 25> H -3.8335059938 0.1466429561 -1.1865715257
| 26> H -3.7699624615 0.334091697 1.3197011848
| 27> H -4.0843391244 -1.401091497 1.4628264797
| 28> H -2.6734548988 -0.6993696352 2.2524978982
| 29> H -0.5370896635 3.1030879502 -0.1272557619
| 30> H 2.426558201 2.74784435 0.9302710849
| 31> H 1.6634019158 3.5775502003 -0.4334069133
| 32> H 2.8141511537 2.2510638826 -0.7042193721
| 33> *
| 34>
| 35>                          ****END OF INPUT****

CARTESIAN COORDINATES (ANGSTROEM)
---------------------------------
  C     -4.277665   -1.956941   -1.345686
  C     -3.297175   -0.802638   -1.179230
  C     -2.487336   -0.919438    0.115944
  H     -2.061637   -1.927057    0.175565
  C     -3.308848   -0.648324    1.371004
  N     -1.312128   -0.027541    0.069695
  C     -0.054463   -0.630633    0.120650
  O      0.067819   -1.841583    0.200615
  C      1.059447    0.287240    0.070653
  C      0.902032    1.632731   -0.022539
  N     -0.373914    2.102687   -0.063313
  C     -1.509799    1.328364   -0.023821
  O     -2.604290    1.857644   -0.072246
  C      2.011062    2.616943   -0.068409
  Br     2.782073   -0.510924    0.149358
  H     -5.036810   -1.937874   -0.569685
  H     -4.773675   -1.881017   -2.309290
  H     -3.755237   -2.909744   -1.299998
  H     -2.598570   -0.804567   -2.020334
  H     -3.833506    0.146643   -1.186572
  H     -3.769962    0.334092    1.319701
  H     -4.084339   -1.401091    1.462826
  H     -2.673455   -0.699370    2.252498
  H     -0.537090    3.103088   -0.127256
  H      2.426558    2.747844    0.930271
  H      1.663402    3.577550   -0.433407
  H      2.814151    2.251064   -0.704219

 Total Charge           Charge          ....    0
 Multiplicity           Mult            ....    1
 Number of Electrons    NEL             ....  132
 Basis Dimension        Dim             ....  368

ORBITAL ENERGIES
----------------

  NO   OCC          E(Eh)            E(eV)
   0   2.0000    -482.235628    -13122.2986
   1   2.0000     -62.306811     -1695.4545
   2   2.0000     -56.087409     -1526.2160
   3   2.0000     -56.084625     -1526.1402
   4   2.0000     -56.084390     -1526.1338
   5   2.0000     -18.932640      -515.1833
   6   2.0000     -18.926698      -515.0216
   7   2.0000     -14.240540      -387.5048
   8   2.0000     -14.226900      -387.1336
   9   2.0000     -10.182804      -277.0882
  10   2.0000     -10.150857      -276.2189
  11   2.0000     -10.130634      -275.6686
  12   2.0000     -10.099106      -274.8106
  13   2.0000     -10.076689      -274.2007
  14   2.0000     -10.070051      -274.0200
  15   2.0000     -10.027081      -272.8507
  16   2.0000     -10.019621      -272.6478
  17   2.0000     -10.019230      -272.6371
  18   2.0000      -8.638632      -235.0691
  19   2.0000      -6.446800      -175.4263
  20   2.0000      -6.432411      -175.0348
  21   2.0000      -6.431593      -175.0125
  22   2.0000      -2.544217       -69.2317
  23   2.0000      -2.540713       -69.1363
  24   2.0000      -2.540132       -69.1205
  25   2.0000      -2.529416       -68.8289
  26   2.0000      -2.529402       -68.8285
  27   2.0000      -1.054376       -28.6910
  28   2.0000      -1.014624       -27.6093
  29   2.0000      -0.959019       -26.0962
  30   2.0000      -0.918373       -24.9902
  31   2.0000      -0.814941       -22.1757
  32   2.0000      -0.775649       -21.1065
  33   2.0000      -0.750356       -20.4182
  34   2.0000      -0.709498       -19.3064
  35   2.0000      -0.692243       -18.8369
  36   2.0000      -0.648247       -17.6397
  37   2.0000      -0.633342       -17.2341
  38   2.0000      -0.604036       -16.4367
  39   2.0000      -0.566981       -15.4283
  40   2.0000      -0.549094       -14.9416
  41   2.0000      -0.518169       -14.1001
  42   2.0000      -0.471718       -12.8361
  43   2.0000      -0.458206       -12.4684
  44   2.0000      -0.438072       -11.9205
  45   2.0000      -0.432287       -11.7631
  46   2.0000      -0.429500       -11.6873
  47   2.0000      -0.412906       -11.2357
  48   2.0000      -0.409928       -11.1547
  49   2.0000      -0.401532       -10.9263
  50   2.0000      -0.393297       -10.7022
  51   2.0000      -0.386114       -10.5067
  52   2.0000      -0.380052       -10.3417
  53   2.0000      -0.368668       -10.0320
  54   2.0000      -0.359793        -9.7905
  55   2.0000      -0.340965        -9.2781
  56   2.0000      -0.336466        -9.1557
  57   2.0000      -0.327103        -8.9009
  58   2.0000      -0.307175        -8.3587
  59   2.0000      -0.301945        -8.2163
  60   2.0000      -0.292590        -7.9618
  61   2.0000      -0.269906        -7.3445
  62   2.0000      -0.255367        -6.9489
  63   2.0000      -0.252771        -6.8782
  64   2.0000      -0.235200        -6.4001
  65   2.0000      -0.217995        -5.9320
  66   0.0000      -0.072751        -1.9797
  67   0.0000      -0.033043        -0.8991
  68   0.0000      -0.025749        -0.7007
  69   0.0000       0.039589         1.0773
  70   0.0000       0.064518         1.7556

MULLIKEN ATOMIC CHARGES
-----------------------
   0 C :   -0.506170
   1 C :   -0.252504
   2 C :   -0.077970
   3 H :    0.219781
   4 C :   -0.563015
   5 N :    0.143776
   6 C :    0.220302
   7 O :   -0.436092
   8 C :   -0.103613
   9 C :    0.162751
  10 N :   -0.030790
  11 C :    0.253338
  12 O :   -0.461189
  13 C :   -0.584487
  14 Br:   -0.078922
  15 H :    0.147247
  16 H :    0.151559
  17 H :    0.153299
  18 H :    0.146024
  19 H :    0.182405
  20 H :    0.197396
  21 H :    0.153829
  22 H :    0.154070
  23 H :    0.275210
  24 H :    0.197699
  25 H :    0.147989
  26 H :    0.188077
Sum of atomic charges:   -0.0000000

LOEWDIN ATOMIC CHARGES
----------------------
   0 C :   -0.415341
   1 C :   -0.264393
   2 C :    0.044467
   3 H :    0.223129
   4 C :   -0.363832
   5 N :   -0.625364
   6 C :    0.357148
   7 O :   -0.471798
   8 C :   -0.198873
   9 C :    0.154794
  10 N :   -0.516517
  11 C :    0.459641
  12 O :   -0.423673
  13 C :   -0.350959
  14 Br:    0.259768
  15 H :    0.150753
  16 H :    0.154534
  17 H :    0.153151
  18 H :    0.163487
  19 H :    0.178687
  20 H :    0.178503
  21 H :    0.158657
  22 H :    0.162140
  23 H :    0.298296
  24 H :    0.184968
  25 H :    0.164768
  26 H :    0.183861

  Mayer bond orders larger than 0.100000
B(  0-C ,  1-C ) :   0.8926 B(  0-C , 15-H ) :   0.9818 B(  0-C , 16-H ) :   0.9703
B(  0-C , 17-H ) :   0.9883 B(  1-C ,  2-C ) :   0.8766 B(  1-C , 18-H ) :   0.9709
B(  1-C , 19-H ) :   0.9451 B(  2-C ,  3-H ) :   0.9710 B(  2-C ,  4-C ) :   0.8597
B(  2-C ,  5-N ) :   0.8640 B(  4-C , 20-H ) :   0.9744 B(  4-C , 21-H ) :   0.9691
B(  4-C , 22-H ) :   0.9719 B(  5-N ,  6-C ) :   1.0885 B(  5-N , 11-C ) :   1.1600
B(  6-C ,  7-O ) :   1.9170 B(  6-C ,  8-C ) :   0.9665 B(  6-C , 14-Br) :  -0.1178
B(  8-C ,  9-C ) :   1.4651 B(  8-C , 14-Br) :   1.2065 B(  9-C , 10-N ) :   1.1629
B(  9-C , 13-C ) :   0.8646 B( 10-N , 11-C ) :   1.0295 B( 10-N , 23-H ) :   0.9045
B( 11-C , 12-O ) :   1.8941 B( 13-C , 24-H ) :   0.9427 B( 13-C , 25-H ) :   0.9928
B( 13-C , 26-H ) :   0.9529

Dispersion correction           -0.011225276
FINAL SINGLE POINT ENERGY     -3184.786184034012

DIPOLE MOMENT
-------------

Method             : SCF
Type of density    : Electron Density
Multiplicity       :   1
Irrep              :   0
Energy             : -3184.7964266348108140 Eh
Relativity type    :
Basis              : AO
                                X                 Y                 Z
Electronic contribution:     50.821687122      -3.769351460       3.623648498
Nuclear contribution   :    -50.477347802       5.318055067      -3.739573323
                        -----------------------------------------
Total Dipole Moment    :      0.344339319       1.548703607      -0.115924826
                        -----------------------------------------
Magnitude (a.u.)       :      1.590751707
Magnitude (Debye)      :      4.043369507

Rotational constants in cm-1:             0.031720             0.010220             0.008342
Rotational constants in MHz :           950.944880           306.378811           250.095709

                             ****ORCA TERMINATED NORMALLY****
TOTAL RUN TIME: 0 days 0 hours 1 minutes 13 seconds 542 msec
