                         Program Version 6.0.0  -   RELEASE  -
|  1> ! r2scan-3c def2/J RI DEFGRID2 scfconv6 printgap
|  2> %output
|  3>     printlevel normal
|  4> end
|  5> %cpcm
|  6>     smd true
|  7>     smdsolvent "water"
|  8> end
|  9> * xyz 0 1
| 10> C -4.2776652522 -1.9569408422 -1.3456861451
| 11> C -3.2971748811 -0.8026383989 -1.1792301796
| 12> C -2.4873357041 -0.9194380105 0.1159441473
| 13> H -2.06163651 -1.9270568154 0.1755653059
| 14> C -3.3088476484 -0.6483244694 1.3710037037
| 15> N -1.3121278523 -0.0275405883 0.0696954069
| 16> C -0.0544632264 -0.6306333013 0.120650025
| 17> O 0.0678187883 -1.8415832203 0.2006146793
| 18> C 1.0594472837 0.2872398703 0.0706532591
| 19> C 0.9020315002 1.6327313208 -0.0225392237
| 20> N -0.3739138156 2.1026874906 -0.0633129495
| 21> C -1.5097989755 1.3283638451 -0.0238210263
| 22> O -2.6042895424 1.8576439574 -0.0722459719
| 23> C 2.0110620118 2.6169429705 -0.0684093071
| 24> Br 2.7820725792 -0.5109235541 0.1493579797
| 25> H -5.0368097283 -1.9378744286 -0.5696853429
| 26> H -4.7736750768 -1.8810171988 -2.3092895773
| 27> H -3.7552370952 -2.9097435061 -1.2999980563
| 28> H -2.5985698394 -0.8045672367 -2.0203339297
| 29> H -3.8335059938 0.1466429561 -1.1865715257
| 30> H -3.7699624615 0.334091697 1.3197011848
| 31> H -4.0843391244 -1.401091497 1.4628264797
| 32> H -2.6734548988 -0.6993696352 2.2524978982
| 33> H -0.5370896635 3.1030879502 -0.1272557619
| 34> H 2.426558201 2.74784435 0.9302710849
| 35> H 1.6634019158 3.5775502003 -0.4334069133
| 36> H 2.8141511537 2.2510638826 -0.7042193721
| 37> *
| 38>
| 39>                          ****END OF INPUT****

CARTESIAN COORDINATES (ANGSTROEM)
---------------------------------
  C     -4.277665   -1.956941   -1.345686
  C     -3.297175   -0.802638   -1.179230
  C     -2.487336   -0.919438    0.115944
  H     -2.061637   -1.927057    0.175565
  C     -3.308848   -0.648324    1.371004
  N     -1.312128   -0.027541    0.069695
  C     -0.054463   -0.630633    0.120650
  O      0.067819   -1.841583    0.200615
  C      1.059447    0.287240    0.070653
  C      0.902032    1.632731   -0.022539
  N     -0.373914    2.102687   -0.063313
  C     -1.509799    1.328364   -0.023821
  O     -2.604290    1.857644   -0.072246
  C      2.011062    2.616943   -0.068409
  Br     2.782073   -0.510924    0.149358
  H     -5.036810   -1.937874   -0.569685
  H     -4.773675   -1.881017   -2.309290
  H     -3.755237   -2.909744   -1.299998
  H     -2.598570   -0.804567   -2.020334
  H     -3.833506    0.146643   -1.186572
  H     -3.769962    0.334092    1.319701
  H     -4.084339   -1.401091    1.462826
  H     -2.673455   -0.699370    2.252498
  H     -0.537090    3.103088   -0.127256
  H      2.426558    2.747844    0.930271
  H      1.663402    3.577550   -0.433407
  H      2.814151    2.251064   -0.704219

 Total Charge           Charge          ....    0
 Multiplicity           Mult            ....    1
 Number of Electrons    NEL             ....  132
 Basis Dimension        Dim             ....  368

ORBITAL ENERGIES
----------------

  NO   OCC          E(Eh)            E(eV)
   0   2.0000    -482.234977    -13122.2809
   1   2.0000     -62.306221     -1695.4385
   2   2.0000     -56.086779     -1526.1989
   3   2.0000     -56.084047     -1526.1245
   4   2.0000     -56.083822     -1526.1184
   5   2.0000     -18.937412      -515.3132
   6   2.0000     -18.935013      -515.2479
   7   2.0000     -14.227962      -387.1625
   8   2.0000     -14.227099      -387.1391
   9   2.0000     -10.183556      -277.1087
  10   2.0000     -10.155876      -276.3554
  11   2.0000     -10.121695      -275.4253
  12   2.0000     -10.093128      -274.6480
  13   2.0000     -10.073628      -274.1173
  14   2.0000     -10.041388      -273.2401
  15   2.0000     -10.022587      -272.7285
  16   2.0000     -10.014139      -272.4986
  17   2.0000     -10.011420      -272.4246
  18   2.0000      -8.638099      -235.0546
  19   2.0000      -6.446070      -175.4065
  20   2.0000      -6.431964      -175.0226
  21   2.0000      -6.431186      -175.0015
  22   2.0000      -2.543549       -69.2135
  23   2.0000      -2.540104       -69.1197
  24   2.0000      -2.539553       -69.1047
  25   2.0000      -2.529042       -68.8187
  26   2.0000      -2.529031       -68.8184
  27   2.0000      -1.055204       -28.7136
  28   2.0000      -1.022833       -27.8327
  29   2.0000      -0.952814       -25.9274
  30   2.0000      -0.916587       -24.9416
  31   2.0000      -0.808945       -22.0125
  32   2.0000      -0.769149       -20.9296
  33   2.0000      -0.739030       -20.1100
  34   2.0000      -0.702704       -19.1215
  35   2.0000      -0.683402       -18.5963
  36   2.0000      -0.643415       -17.5082
  37   2.0000      -0.624953       -17.0058
  38   2.0000      -0.596596       -16.2342
  39   2.0000      -0.561386       -15.2761
  40   2.0000      -0.542040       -14.7497
  41   2.0000      -0.507963       -13.8224
  42   2.0000      -0.465443       -12.6653
  43   2.0000      -0.451979       -12.2990
  44   2.0000      -0.439731       -11.9657
  45   2.0000      -0.428604       -11.6629
  46   2.0000      -0.416173       -11.3246
  47   2.0000      -0.411163       -11.1883
  48   2.0000      -0.400307       -10.8929
  49   2.0000      -0.394331       -10.7303
  50   2.0000      -0.387930       -10.5561
  51   2.0000      -0.382488       -10.4080
  52   2.0000      -0.373022       -10.1504
  53   2.0000      -0.362118        -9.8537
  54   2.0000      -0.352335        -9.5875
  55   2.0000      -0.334874        -9.1124
  56   2.0000      -0.332039        -9.0353
  57   2.0000      -0.320726        -8.7274
  58   2.0000      -0.305092        -8.3020
  59   2.0000      -0.297077        -8.0839
  60   2.0000      -0.292290        -7.9536
  61   2.0000      -0.270444        -7.3592
  62   2.0000      -0.259907        -7.0724
  63   2.0000      -0.256038        -6.9671
  64   2.0000      -0.245250        -6.6736
  65   2.0000      -0.214826        -5.8457
  66   0.0000      -0.066158        -1.8003
  67   0.0000      -0.029822        -0.8115
  68   0.0000      -0.026481        -0.7206
  69   0.0000       0.057885         1.5751
  70   0.0000       0.078667         2.1406

MULLIKEN ATOMIC CHARGES
-----------------------
   0 C :   -0.544153
   1 C :   -0.257003
   2 C :   -0.067363
   3 H :    0.216707
   4 C :   -0.590212
   5 N :    0.168390
   6 C :    0.210013
   7 O :   -0.512904
   8 C :   -0.108411
   9 C :    0.202072
  10 N :   -0.038044
  11 C :    0.279176
  12 O :   -0.531480
  13 C :   -0.611464
  14 Br:   -0.109490
  15 H :    0.162300
  16 H :    0.163583
  17 H :    0.162651
  18 H :    0.164914
  19 H :    0.171696
  20 H :    0.187337
  21 H :    0.175737
  22 H :    0.170558
  23 H :    0.335694
  24 H :    0.219471
  25 H :    0.191945
  26 H :    0.188280
Sum of atomic charges:   -0.0000000

LOEWDIN ATOMIC CHARGES
----------------------
   0 C :   -0.421166
   1 C :   -0.264736
   2 C :    0.045759
   3 H :    0.222199
   4 C :   -0.367098
   5 N :   -0.613813
   6 C :    0.358642
   7 O :   -0.539633
   8 C :   -0.207948
   9 C :    0.181087
  10 N :   -0.477080
  11 C :    0.466471
  12 O :   -0.474808
  13 C :   -0.345885
  14 Br:    0.240349
  15 H :    0.155281
  16 H :    0.157381
  17 H :    0.155876
  18 H :    0.168461
  19 H :    0.174290
  20 H :    0.174181
  21 H :    0.165831
  22 H :    0.166800
  23 H :    0.317392
  24 H :    0.194331
  25 H :    0.183744
  26 H :    0.184092

  Mayer bond orders larger than 0.100000
B(  0-C ,  1-C ) :   0.8891 B(  0-C , 15-H ) :   0.9766 B(  0-C , 16-H ) :   0.9677
B(  0-C , 17-H ) :   0.9862 B(  1-C ,  2-C ) :   0.8711 B(  1-C , 18-H ) :   0.9719
B(  1-C , 19-H ) :   0.9476 B(  2-C ,  3-H ) :   0.9665 B(  2-C ,  4-C ) :   0.8633
B(  2-C ,  5-N ) :   0.8527 B(  4-C , 20-H ) :   0.9748 B(  4-C , 21-H ) :   0.9640
B(  4-C , 22-H ) :   0.9683 B(  5-N ,  6-C ) :   1.0974 B(  5-N , 11-C ) :   1.1713
B(  6-C ,  7-O ) :   1.8738 B(  6-C ,  8-C ) :   0.9861 B(  8-C ,  9-C ) :   1.4369
B(  8-C , 14-Br) :   1.1402 B(  9-C , 10-N ) :   1.1736 B(  9-C , 13-C ) :   0.8482
B( 10-N , 11-C ) :   1.0524 B( 10-N , 23-H ) :   0.8792 B( 11-C , 12-O ) :   1.8314
B( 13-C , 24-H ) :   0.9321 B( 13-C , 25-H ) :   0.9799 B( 13-C , 26-H ) :   0.9537

Dispersion correction           -0.011225276
FINAL SINGLE POINT ENERGY     -3184.802456715010

DIPOLE MOMENT
-------------

Method             : SCF
Type of density    : Electron Density
Multiplicity       :   1
Irrep              :   0
Energy             : -3184.8126993158093683 Eh
Relativity type    :
Basis              : AO
                                X                 Y                 Z
Electronic contribution:     51.014015071      -2.974262774       3.590051820
Nuclear contribution   :    -50.477347802       5.318055067      -3.739573323
                        -----------------------------------------
Total Dipole Moment    :      0.536667268       2.343792292      -0.149521503
                        -----------------------------------------
Magnitude (a.u.)       :      2.409093345
Magnitude (Debye)      :      6.123428647

Rotational constants in cm-1:             0.031720             0.010220             0.008342
Rotational constants in MHz :           950.944880           306.378811           250.095709

                             ****ORCA TERMINATED NORMALLY****
TOTAL RUN TIME: 0 days 0 hours 1 minutes 40 seconds 625 msec
