                         Program Version 6.0.0  -   RELEASE  -
|  1> ! pbe def2-sv(p) def2/J RI DEFGRID1 loosescf d4 GCP(DFT/SV(P)) printgap
|  2> %output
|  3>     printlevel normal
|  4> end
|  5> * xyz 0 1
|  6> C -1.6660392233 0.8120385907 -0.3640680468
|  7> C -1.299878469 -0.5623441754 0.1862897793
|  8> N 0.0478320719 -0.5909872624 0.7303223509
|  9> C 1.1215493308 -0.5260693278 -0.2576515401
| 10> C 1.7927772756 0.8468874855 -0.2605183089
| 11> H -2.7194755769 0.8308640724 -0.6308659046
| 12> H -1.4770313121 1.5710698454 0.3892846986
| 13> H -1.0826329081 1.042445129 -1.2512041825
| 14> H -1.4404677041 -1.3167772823 -0.6110057256
| 15> H -1.9810923493 -0.808880512 1.0045489901
| 16> H 0.1520735141 -1.4202725011 1.300689904
| 17> H 1.8799212022 -1.277913294 -0.0200313208
| 18> H 0.7392153525 -0.7514610006 -1.264062714
| 19> H 1.0808298328 1.6251650184 -0.5151934033
| 20> H 2.1944272329 1.0599147815 0.7257122381
| 21> H 2.6043064391 0.8601226661 -0.9836953458
| 22> *
| 23>
| 24>                          ****END OF INPUT****

CARTESIAN COORDINATES (ANGSTROEM)
---------------------------------
  C     -1.666039    0.812039   -0.364068
  C     -1.299878   -0.562344    0.186290
  N      0.047832   -0.590987    0.730322
  C      1.121549   -0.526069   -0.257652
  C      1.792777    0.846887   -0.260518
  H     -2.719476    0.830864   -0.630866
  H     -1.477031    1.571070    0.389285
  H     -1.082633    1.042445   -1.251204
  H     -1.440468   -1.316777   -0.611006
  H     -1.981092   -0.808881    1.004549
  H      0.152074   -1.420273    1.300690
  H      1.879921   -1.277913   -0.020031
  H      0.739215   -0.751461   -1.264063
  H      1.080830    1.625165   -0.515193
  H      2.194427    1.059915    0.725712
  H      2.604306    0.860123   -0.983695

 Total Charge           Charge          ....    0
 Multiplicity           Mult            ....    1
 Number of Electrons    NEL             ....   42
 Basis Dimension        Dim             ....   92

ORBITAL ENERGIES
----------------

  NO   OCC          E(Eh)            E(eV)
   0   2.0000     -13.961929      -379.9234
   1   2.0000      -9.905585      -269.5447
   2   2.0000      -9.905137      -269.5325
   3   2.0000      -9.868390      -268.5325
   4   2.0000      -9.863505      -268.3996
   5   2.0000      -0.811186       -22.0735
   6   2.0000      -0.675359       -18.3774
   7   2.0000      -0.639840       -17.4109
   8   2.0000      -0.548861       -14.9353
   9   2.0000      -0.510190       -13.8830
  10   2.0000      -0.450980       -12.2718
  11   2.0000      -0.404960       -11.0195
  12   2.0000      -0.400225       -10.8907
  13   2.0000      -0.365593        -9.9483
  14   2.0000      -0.337814        -9.1924
  15   2.0000      -0.330459        -8.9923
  16   2.0000      -0.324937        -8.8420
  17   2.0000      -0.306815        -8.3489
  18   2.0000      -0.290929        -7.9166
  19   2.0000      -0.283502        -7.7145
  20   2.0000      -0.169695        -4.6176
  21   0.0000       0.033155         0.9022
  22   0.0000       0.059178         1.6103
  23   0.0000       0.069790         1.8991
  24   0.0000       0.078240         2.1290
  25   0.0000       0.112606         3.0642

MULLIKEN ATOMIC CHARGES
-----------------------
   0 C :   -0.280491
   1 C :   -0.106133
   2 N :   -0.343337
   3 C :   -0.112556
   4 C :   -0.249459
   5 H :    0.097634
   6 H :    0.105726
   7 H :    0.110646
   8 H :    0.065225
   9 H :    0.078368
  10 H :    0.199833
  11 H :    0.077765
  12 H :    0.073824
  13 H :    0.100182
  14 H :    0.096147
  15 H :    0.086626
Sum of atomic charges:   -0.0000000

LOEWDIN ATOMIC CHARGES
----------------------
   0 C :   -0.352936
   1 C :   -0.171515
   2 N :   -0.269893
   3 C :   -0.172558
   4 C :   -0.352034
   5 H :    0.120001
   6 H :    0.121188
   7 H :    0.116734
   8 H :    0.086719
   9 H :    0.109530
  10 H :    0.209145
  11 H :    0.109440
  12 H :    0.097676
  13 H :    0.116712
  14 H :    0.118130
  15 H :    0.113663

  Mayer bond orders larger than 0.100000
B(  0-C ,  1-C ) :   1.1563 B(  0-C ,  5-H ) :   0.9464 B(  0-C ,  6-H ) :   0.9444
B(  0-C ,  7-H ) :   0.9468 B(  1-C ,  2-N ) :   1.1001 B(  1-C ,  8-H ) :   0.9133
B(  1-C ,  9-H ) :   0.9343 B(  2-N ,  3-C ) :   1.0621 B(  2-N , 10-H ) :   0.8864
B(  3-C ,  4-C ) :   1.1516 B(  3-C , 11-H ) :   0.9370 B(  3-C , 12-H ) :   0.9150
B(  4-C , 13-H ) :   0.9494 B(  4-C , 14-H ) :   0.9516 B(  4-C , 15-H ) :   0.9437

Dispersion correction           -0.010568122
FINAL SINGLE POINT ENERGY      -213.241202295338

DIPOLE MOMENT
-------------

Method             : SCF
Type of density    : Electron Density
Multiplicity       :   1
Irrep              :   0
Energy             :  -213.3008056365416678 Eh
Relativity type    :
Basis              : AO
                                X                 Y                 Z
Electronic contribution:      0.009577955      -1.726574967       1.678451931
Nuclear contribution   :     -0.046575924       1.323578554      -1.737056648
                        -----------------------------------------
Total Dipole Moment    :     -0.036997969      -0.402996413      -0.058604717
                        -----------------------------------------
Magnitude (a.u.)       :      0.408912547
Magnitude (Debye)      :      1.039373095

Rotational constants in cm-1:             0.266439             0.109258             0.087602
Rotational constants in MHz :          7987.634451          3275.482274          2626.240522

                             ****ORCA TERMINATED NORMALLY****
TOTAL RUN TIME: 0 days 0 hours 0 minutes 6 seconds 474 msec
