                         Program Version 6.0.0  -   RELEASE  -
|  1> ! pbe def2-sv(p) def2/J RI DEFGRID1 loosescf d4 GCP(DFT/SV(P)) printgap
|  2> %output
|  3>     printlevel normal
|  4> end
|  5> * xyz 0 1
|  6> C -2.5593751673 -0.5414126728 0.3449601041
|  7> C -1.8133387499 0.6977065108 -0.13849263
|  8> C -0.3851748095 0.4012939728 -0.5964072995
|  9> C 0.5279041946 -0.0359376037 0.5549793099
| 10> C 1.8933375039 -0.2040732949 0.1020581378
| 11> C 3.0143524885 -0.3362461089 -0.2964287755
| 12> H -2.550764269 -1.3131170479 -0.4218710947
| 13> H -3.5940823275 -0.2929543101 0.5690641492
| 14> H -2.1079111584 -0.9456982284 1.2471810866
| 15> H -2.35971171 1.1326070856 -0.978635272
| 16> H -1.7899550626 1.4428905157 0.6601614113
| 17> H -0.400488561 -0.3804370267 -1.3594256666
| 18> H 0.0358282687 1.3002876623 -1.0533516588
| 19> H 0.1820361428 -0.9838499443 0.9731069735
| 20> H 0.5093101483 0.718302233 1.3466996399
| 21> H 4.0001236656 -0.4555666806 -0.6334162318
| 22> *
| 23>
| 24>                          ****END OF INPUT****

CARTESIAN COORDINATES (ANGSTROEM)
---------------------------------
  C     -2.559375   -0.541413    0.344960
  C     -1.813339    0.697707   -0.138493
  C     -0.385175    0.401294   -0.596407
  C      0.527904   -0.035938    0.554979
  C      1.893338   -0.204073    0.102058
  C      3.014352   -0.336246   -0.296429
  H     -2.550764   -1.313117   -0.421871
  H     -3.594082   -0.292954    0.569064
  H     -2.107911   -0.945698    1.247181
  H     -2.359712    1.132607   -0.978635
  H     -1.789955    1.442891    0.660161
  H     -0.400489   -0.380437   -1.359426
  H      0.035828    1.300288   -1.053352
  H      0.182036   -0.983850    0.973107
  H      0.509310    0.718302    1.346700
  H      4.000124   -0.455567   -0.633416

 Total Charge           Charge          ....    0
 Multiplicity           Mult            ....    1
 Number of Electrons    NEL             ....   46
 Basis Dimension        Dim             ....  104

ORBITAL ENERGIES
----------------

  NO   OCC          E(Eh)            E(eV)
   0   2.0000      -9.909590      -269.6537
   1   2.0000      -9.892040      -269.1761
   2   2.0000      -9.889250      -269.1002
   3   2.0000      -9.885882      -269.0085
   4   2.0000      -9.878420      -268.8055
   5   2.0000      -9.873138      -268.6617
   6   2.0000      -0.738020       -20.0825
   7   2.0000      -0.685877       -18.6637
   8   2.0000      -0.634188       -17.2571
   9   2.0000      -0.586393       -15.9566
  10   2.0000      -0.515729       -14.0337
  11   2.0000      -0.471993       -12.8436
  12   2.0000      -0.427439       -11.6312
  13   2.0000      -0.426719       -11.6116
  14   2.0000      -0.393693       -10.7129
  15   2.0000      -0.366500        -9.9730
  16   2.0000      -0.358262        -9.7488
  17   2.0000      -0.335510        -9.1297
  18   2.0000      -0.300299        -8.1716
  19   2.0000      -0.294825        -8.0226
  20   2.0000      -0.292910        -7.9705
  21   2.0000      -0.231196        -6.2912
  22   2.0000      -0.229685        -6.2501
  23   0.0000       0.019885         0.5411
  24   0.0000       0.023409         0.6370
  25   0.0000       0.039516         1.0753
  26   0.0000       0.067298         1.8313
  27   0.0000       0.070192         1.9100

MULLIKEN ATOMIC CHARGES
-----------------------
   0 C :   -0.300872
   1 C :   -0.150074
   2 C :   -0.197407
   3 C :   -0.137195
   4 C :    0.456488
   5 C :   -0.629440
   6 H :    0.101443
   7 H :    0.106404
   8 H :    0.110407
   9 H :    0.090260
  10 H :    0.082386
  11 H :    0.095860
  12 H :    0.099155
  13 H :    0.115125
  14 H :    0.106284
  15 H :    0.051176
Sum of atomic charges:    0.0000000

LOEWDIN ATOMIC CHARGES
----------------------
   0 C :   -0.343907
   1 C :   -0.234760
   2 C :   -0.216051
   3 C :   -0.226820
   4 C :   -0.026851
   5 C :   -0.208868
   6 H :    0.118544
   7 H :    0.121483
   8 H :    0.116453
   9 H :    0.118945
  10 H :    0.114694
  11 H :    0.120686
  12 H :    0.122640
  13 H :    0.140900
  14 H :    0.140233
  15 H :    0.142679

  Mayer bond orders larger than 0.100000
B(  0-C ,  1-C ) :   1.1475 B(  0-C ,  6-H ) :   0.9549 B(  0-C ,  7-H ) :   0.9512
B(  0-C ,  8-H ) :   0.9523 B(  1-C ,  2-C ) :   1.1209 B(  1-C ,  9-H ) :   0.9263
B(  1-C , 10-H ) :   0.9232 B(  2-C ,  3-C ) :   1.1153 B(  2-C , 11-H ) :   0.9234
B(  2-C , 12-H ) :   0.9255 B(  3-C ,  4-C ) :   1.1093 B(  3-C , 13-H ) :   0.8775
B(  3-C , 14-H ) :   0.8829 B(  4-C ,  5-C ) :   2.1971 B(  4-C , 15-H ) :  -0.1298
B(  5-C , 15-H ) :   1.0912

Dispersion correction           -0.011161548
FINAL SINGLE POINT ENERGY      -234.009494431503

DIPOLE MOMENT
-------------

Method             : SCF
Type of density    : Electron Density
Multiplicity       :   1
Irrep              :   0
Energy             :  -234.0595673618659873 Eh
Relativity type    :
Basis              : AO
                                X                 Y                 Z
Electronic contribution:      7.222272957      -0.147235987      -0.279222222
Nuclear contribution   :     -7.576317207       0.208709779       0.327903689
                        -----------------------------------------
Total Dipole Moment    :     -0.354044250       0.061473792       0.048681467
                        -----------------------------------------
Magnitude (a.u.)       :      0.362624107
Magnitude (Debye)      :      0.921717230

Rotational constants in cm-1:             0.404068             0.049651             0.047442
Rotational constants in MHz :         12113.668456          1488.504798          1422.272309

                             ****ORCA TERMINATED NORMALLY****
TOTAL RUN TIME: 0 days 0 hours 0 minutes 6 seconds 504 msec
