                         Program Version 6.0.0  -   RELEASE  -
|  1> ! pbe def2-sv(p) def2/J RI DEFGRID1 loosescf d4 GCP(DFT/SV(P)) printgap
|  2> %output
|  3>     printlevel normal
|  4> end
|  5> * xyz 0 1
|  6> C 2.1982412236 1.0515925002 0.1728501752
|  7> C 1.3861187994 0.3696728412 -0.9256902929
|  8> C 0.2574164343 -0.5762610155 -0.4631490326
|  9> H 0.1246226437 -1.3066786929 -1.2724141085
| 10> C 0.6524104742 -1.3642298757 0.7844990191
| 11> C -1.1086362967 0.1355180893 -0.3403715552
| 12> C -2.2340849452 -0.8729771839 -0.0995837207
| 13> C -1.169648317 1.2275862284 0.7250562446
| 14> H 2.90164318 1.7472428428 -0.2806919721
| 15> H 1.5675706655 1.6071189828 0.8590025015
| 16> H 2.7683860695 0.3236422431 0.7431107095
| 17> H 2.0844354565 -0.2088208409 -1.536233628
| 18> H 0.9523535426 1.1340319736 -1.5748682379
| 19> H -0.0778770509 -2.1414548726 0.9913623176
| 20> H 1.6151758619 -1.8445092089 0.6246340519
| 21> H 0.7295694036 -0.7208550273 1.6554309324
| 22> H -1.2965744242 0.6098157017 -1.3123613143
| 23> H -3.2007078009 -0.389469468 -0.2226358207
| 24> H -2.185375207 -1.2741705124 0.9092831903
| 25> H -2.1731930901 -1.6977286212 -0.8062591563
| 26> H -2.1809303003 1.6260599644 0.7789521382
| 27> H -0.5011246102 2.0485180418 0.483747891
| 28> H -0.9112945717 0.8340191522 1.7044391965
| 29> *
| 30>
| 31>                          ****END OF INPUT****

CARTESIAN COORDINATES (ANGSTROEM)
---------------------------------
  C      2.198241    1.051593    0.172850
  C      1.386119    0.369673   -0.925690
  C      0.257416   -0.576261   -0.463149
  H      0.124623   -1.306679   -1.272414
  C      0.652410   -1.364230    0.784499
  C     -1.108636    0.135518   -0.340372
  C     -2.234085   -0.872977   -0.099584
  C     -1.169648    1.227586    0.725056
  H      2.901643    1.747243   -0.280692
  H      1.567571    1.607119    0.859003
  H      2.768386    0.323642    0.743111
  H      2.084435   -0.208821   -1.536234
  H      0.952354    1.134032   -1.574868
  H     -0.077877   -2.141455    0.991362
  H      1.615176   -1.844509    0.624634
  H      0.729569   -0.720855    1.655431
  H     -1.296574    0.609816   -1.312361
  H     -3.200708   -0.389469   -0.222636
  H     -2.185375   -1.274171    0.909283
  H     -2.173193   -1.697729   -0.806259
  H     -2.180930    1.626060    0.778952
  H     -0.501125    2.048518    0.483748
  H     -0.911295    0.834019    1.704439

 Total Charge           Charge          ....    0
 Multiplicity           Mult            ....    1
 Number of Electrons    NEL             ....   58
 Basis Dimension        Dim             ....  130

ORBITAL ENERGIES
----------------

  NO   OCC          E(Eh)            E(eV)
   0   2.0000      -9.888220      -269.0722
   1   2.0000      -9.886632      -269.0289
   2   2.0000      -9.877444      -268.7789
   3   2.0000      -9.868172      -268.5266
   4   2.0000      -9.867747      -268.5151
   5   2.0000      -9.867698      -268.5137
   6   2.0000      -9.867619      -268.5116
   7   2.0000      -0.739521       -20.1234
   8   2.0000      -0.682324       -18.5670
   9   2.0000      -0.637700       -17.3527
  10   2.0000      -0.605177       -16.4677
  11   2.0000      -0.578996       -15.7553
  12   2.0000      -0.519497       -14.1362
  13   2.0000      -0.465905       -12.6779
  14   2.0000      -0.421698       -11.4750
  15   2.0000      -0.407726       -11.0948
  16   2.0000      -0.405061       -11.0223
  17   2.0000      -0.368127       -10.0172
  18   2.0000      -0.350676        -9.5424
  19   2.0000      -0.345236        -9.3944
  20   2.0000      -0.339208        -9.2303
  21   2.0000      -0.335903        -9.1404
  22   2.0000      -0.324070        -8.8184
  23   2.0000      -0.312086        -8.4923
  24   2.0000      -0.295471        -8.0402
  25   2.0000      -0.289810        -7.8861
  26   2.0000      -0.267205        -7.2710
  27   2.0000      -0.264107        -7.1867
  28   2.0000      -0.255003        -6.9390
  29   0.0000       0.028758         0.7825
  30   0.0000       0.058216         1.5841
  31   0.0000       0.065370         1.7788
  32   0.0000       0.069641         1.8950
  33   0.0000       0.092171         2.5081

MULLIKEN ATOMIC CHARGES
-----------------------
   0 C :   -0.287607
   1 C :   -0.147230
   2 C :   -0.127841
   3 H :    0.060114
   4 C :   -0.265871
   5 C :   -0.157138
   6 C :   -0.246996
   7 C :   -0.257726
   8 H :    0.100091
   9 H :    0.105243
  10 H :    0.100758
  11 H :    0.078242
  12 H :    0.076696
  13 H :    0.101893
  14 H :    0.099038
  15 H :    0.108123
  16 H :    0.064904
  17 H :    0.096247
  18 H :    0.100442
  19 H :    0.095025
  20 H :    0.093977
  21 H :    0.111303
  22 H :    0.098312
Sum of atomic charges:    0.0000000

LOEWDIN ATOMIC CHARGES
----------------------
   0 C :   -0.345147
   1 C :   -0.226351
   2 C :   -0.145042
   3 H :    0.113469
   4 C :   -0.333039
   5 C :   -0.149463
   6 C :   -0.331093
   7 C :   -0.332518
   8 H :    0.119693
   9 H :    0.115617
  10 H :    0.116948
  11 H :    0.115942
  12 H :    0.112862
  13 H :    0.118417
  14 H :    0.119321
  15 H :    0.117643
  16 H :    0.112173
  17 H :    0.117274
  18 H :    0.115919
  19 H :    0.115432
  20 H :    0.118049
  21 H :    0.117647
  22 H :    0.116249

  Mayer bond orders larger than 0.100000
B(  0-C ,  1-C ) :   1.1725 B(  0-C ,  8-H ) :   0.9486 B(  0-C ,  9-H ) :   0.9453
B(  0-C , 10-H ) :   0.9412 B(  1-C ,  2-C ) :   1.0797 B(  1-C , 11-H ) :   0.9197
B(  1-C , 12-H ) :   0.9228 B(  2-C ,  3-H ) :   0.8928 B(  2-C ,  4-C ) :   1.1188
B(  2-C ,  5-C ) :   1.0577 B(  4-C , 13-H ) :   0.9420 B(  4-C , 14-H ) :   0.9467
B(  4-C , 15-H ) :   0.9333 B(  5-C ,  6-C ) :   1.1135 B(  5-C ,  7-C ) :   1.1132
B(  5-C , 16-H ) :   0.8946 B(  6-C , 17-H ) :   0.9475 B(  6-C , 18-H ) :   0.9444
B(  6-C , 19-H ) :   0.9481 B(  7-C , 20-H ) :   0.9461 B(  7-C , 21-H ) :   0.9382
B(  7-C , 22-H ) :   0.9444

Dispersion correction           -0.019691864
FINAL SINGLE POINT ENERGY      -275.656948064452

DIPOLE MOMENT
-------------

Method             : SCF
Type of density    : Electron Density
Multiplicity       :   1
Irrep              :   0
Energy             :  -275.7341208992433508 Eh
Relativity type    :
Basis              : AO
                                X                 Y                 Z
Electronic contribution:     -0.203523464      -0.328798702      -1.680937968
Nuclear contribution   :      0.203280602       0.325318415       1.636621398
                        -----------------------------------------
Total Dipole Moment    :     -0.000242862      -0.003480287      -0.044316571
                        -----------------------------------------
Magnitude (a.u.)       :      0.044453682
Magnitude (Debye)      :      0.112992280

Rotational constants in cm-1:             0.122093             0.058535             0.050730
Rotational constants in MHz :          3660.255248          1754.849147          1520.847346

                             ****ORCA TERMINATED NORMALLY****
TOTAL RUN TIME: 0 days 0 hours 0 minutes 8 seconds 979 msec
