                         Program Version 6.0.0  -   RELEASE  -
|  1> ! pbe def2-sv(p) def2/J RI DEFGRID1 loosescf d4 GCP(DFT/SV(P)) printgap
|  2> %output
|  3>     printlevel normal
|  4> end
|  5> * xyz 0 1
|  6> C 1.7465762854 1.226629639 0.2145161433
|  7> C 1.3265381813 -0.1163829161 -0.3812093279
|  8> C 1.722697431 -1.2761477414 0.5400594709
|  9> O -0.0363825184 -0.1827557017 -0.7981666989
| 10> C -1.0751954765 0.3800664782 -0.0007680236
| 11> C -2.3087703801 0.3856176383 -0.9036617781
| 12> C -1.3604924832 -0.399935039 1.2849576121
| 13> H 1.4416887679 2.0438218617 -0.4351948184
| 14> H 1.3118756975 1.3729232411 1.2005852518
| 15> H 2.8281918909 1.2427210826 0.3095668562
| 16> H 1.8532751251 -0.253079239 -1.336085335
| 17> H 2.8051740485 -1.3680058413 0.5550410634
| 18> H 1.2970019573 -2.2027313553 0.1637773939
| 19> H 1.3750834746 -1.1168446338 1.5562665568
| 20> H -0.8207164662 1.4191665073 0.2550089542
| 21> H -2.5905306721 -0.6362383678 -1.1416311844
| 22> H -3.1354955538 0.8825859039 -0.4059894864
| 23> H -2.082399809 0.9046175541 -1.8308263382
| 24> H -0.5762967227 -0.2541062243 2.0222147021
| 25> H -1.4431608766 -1.460517859 1.0616333609
| 26> H -2.2981279274 -0.0548101631 1.7116795427
| 27> *
| 28>
| 29>                          ****END OF INPUT****

CARTESIAN COORDINATES (ANGSTROEM)
---------------------------------
  C      1.746576    1.226630    0.214516
  C      1.326538   -0.116383   -0.381209
  C      1.722697   -1.276148    0.540059
  O     -0.036383   -0.182756   -0.798167
  C     -1.075195    0.380066   -0.000768
  C     -2.308770    0.385618   -0.903662
  C     -1.360492   -0.399935    1.284958
  H      1.441689    2.043822   -0.435195
  H      1.311876    1.372923    1.200585
  H      2.828192    1.242721    0.309567
  H      1.853275   -0.253079   -1.336085
  H      2.805174   -1.368006    0.555041
  H      1.297002   -2.202731    0.163777
  H      1.375083   -1.116845    1.556267
  H     -0.820716    1.419167    0.255009
  H     -2.590531   -0.636238   -1.141631
  H     -3.135496    0.882586   -0.405989
  H     -2.082400    0.904618   -1.830826
  H     -0.576297   -0.254106    2.022215
  H     -1.443161   -1.460518    1.061633
  H     -2.298128   -0.054810    1.711680

 Total Charge           Charge          ....    0
 Multiplicity           Mult            ....    1
 Number of Electrons    NEL             ....   58
 Basis Dimension        Dim             ....  126

ORBITAL ENERGIES
----------------

  NO   OCC          E(Eh)            E(eV)
   0   2.0000     -18.737619      -509.8765
   1   2.0000      -9.936485      -270.3855
   2   2.0000      -9.934855      -270.3411
   3   2.0000      -9.877578      -268.7826
   4   2.0000      -9.872096      -268.6334
   5   2.0000      -9.870709      -268.5957
   6   2.0000      -9.868086      -268.5243
   7   2.0000      -0.917705       -24.9720
   8   2.0000      -0.714800       -19.4507
   9   2.0000      -0.673895       -18.3376
  10   2.0000      -0.617126       -16.7929
  11   2.0000      -0.610105       -16.6018
  12   2.0000      -0.549266       -14.9463
  13   2.0000      -0.484656       -13.1882
  14   2.0000      -0.442684       -12.0460
  15   2.0000      -0.416880       -11.3439
  16   2.0000      -0.402723       -10.9587
  17   2.0000      -0.373022       -10.1504
  18   2.0000      -0.370858       -10.0916
  19   2.0000      -0.356494        -9.7007
  20   2.0000      -0.346803        -9.4370
  21   2.0000      -0.340826        -9.2743
  22   2.0000      -0.334546        -9.1035
  23   2.0000      -0.318484        -8.6664
  24   2.0000      -0.312241        -8.4965
  25   2.0000      -0.297040        -8.0829
  26   2.0000      -0.285418        -7.7666
  27   2.0000      -0.242565        -6.6005
  28   2.0000      -0.196906        -5.3581
  29   0.0000       0.031725         0.8633
  30   0.0000       0.058580         1.5941
  31   0.0000       0.066039         1.7970
  32   0.0000       0.070825         1.9272
  33   0.0000       0.084131         2.2893

MULLIKEN ATOMIC CHARGES
-----------------------
   0 C :   -0.290511
   1 C :    0.020366
   2 C :   -0.253093
   3 O :   -0.331661
   4 C :   -0.005489
   5 C :   -0.239777
   6 C :   -0.260760
   7 H :    0.114776
   8 H :    0.107267
   9 H :    0.106033
  10 H :    0.070804
  11 H :    0.094956
  12 H :    0.106310
  13 H :    0.095186
  14 H :    0.062852
  15 H :    0.099812
  16 H :    0.093999
  17 H :    0.103771
  18 H :    0.107118
  19 H :    0.101504
  20 H :    0.096538
Sum of atomic charges:   -0.0000000

LOEWDIN ATOMIC CHARGES
----------------------
   0 C :   -0.351211
   1 C :   -0.050150
   2 C :   -0.352007
   3 O :   -0.166378
   4 C :   -0.049355
   5 C :   -0.338727
   6 C :   -0.352368
   7 H :    0.123642
   8 H :    0.118570
   9 H :    0.127760
  10 H :    0.111525
  11 H :    0.121530
  12 H :    0.122982
  13 H :    0.115210
  14 H :    0.096840
  15 H :    0.121215
  16 H :    0.119130
  17 H :    0.121590
  18 H :    0.114376
  19 H :    0.123088
  20 H :    0.122740

  Mayer bond orders larger than 0.100000
B(  0-C ,  1-C ) :   1.1055 B(  0-C ,  7-H ) :   0.9402 B(  0-C ,  8-H ) :   0.9411
B(  0-C ,  9-H ) :   0.9405 B(  1-C ,  2-C ) :   1.1083 B(  1-C ,  3-O ) :   1.0341
B(  1-C , 10-H ) :   0.9161 B(  2-C , 11-H ) :   0.9401 B(  2-C , 12-H ) :   0.9437
B(  2-C , 13-H ) :   0.9392 B(  3-O ,  4-C ) :   1.0217 B(  4-C ,  5-C ) :   1.1133
B(  4-C ,  6-C ) :   1.1073 B(  4-C , 14-H ) :   0.8964 B(  5-C , 15-H ) :   0.9494
B(  5-C , 16-H ) :   0.9453 B(  5-C , 17-H ) :   0.9475 B(  6-C , 18-H ) :   0.9370
B(  6-C , 19-H ) :   0.9379 B(  6-C , 20-H ) :   0.9397

Dispersion correction           -0.016478873
FINAL SINGLE POINT ENERGY      -311.518003186959

DIPOLE MOMENT
-------------

Method             : SCF
Type of density    : Electron Density
Multiplicity       :   1
Irrep              :   0
Energy             :  -311.5959243238226577 Eh
Relativity type    :
Basis              : AO
                                X                 Y                 Z
Electronic contribution:      0.187385592      -0.268629145      -3.082196267
Nuclear contribution   :     -0.032847545       0.484666041       3.446269066
                        -----------------------------------------
Total Dipole Moment    :      0.154538047       0.216036896       0.364072799
                        -----------------------------------------
Magnitude (a.u.)       :      0.450669448
Magnitude (Debye)      :      1.145510702

Rotational constants in cm-1:             0.131942             0.055942             0.050687
Rotational constants in MHz :          3955.536161          1677.102827          1519.547133

                             ****ORCA TERMINATED NORMALLY****
TOTAL RUN TIME: 0 days 0 hours 0 minutes 7 seconds 604 msec
