                         Program Version 6.0.0  -   RELEASE  -
|  1> ! pbe def2-sv(p) def2/J RI DEFGRID1 loosescf d4 GCP(DFT/SV(P)) printgap
|  2> %output
|  3>     printlevel normal
|  4> end
|  5> * xyz 0 1
|  6> C 1.8972975199 1.1377546006 -0.0012515966
|  7> C 1.3877638501 -0.254516548 -0.3770764821
|  8> H 2.0124710095 -0.6409930109 -1.2024233539
|  9> C -0.058375778 -0.2482187592 -0.8965073793
| 10> C -1.1129364181 0.4149254363 -0.0018349209
| 11> C -2.3846110372 0.6643677524 -0.8131242868
| 12> C -1.4352874241 -0.4426550653 1.2190346159
| 13> O 1.4887328533 -1.1552718321 0.7151426361
| 14> H 1.4190179655 1.480040183 0.9124937891
| 15> H 2.9729073119 1.1151973593 0.1600170775
| 16> H 1.6821687649 1.8393623061 -0.8015426066
| 17> H -0.0453103752 0.2626045661 -1.8614563979
| 18> H -0.3490776078 -1.2867188243 -1.0694298142
| 19> H -0.7347690798 1.3832792973 0.3378489068
| 20> H -3.1493943892 1.1166965871 -0.1863364269
| 21> H -2.7730821755 -0.272907466 -1.2057195673
| 22> H -2.1862456535 1.3317700594 -1.6486456243
| 23> H -1.893479538 -1.3793898377 0.9080641638
| 24> H -0.5303622086 -0.6776872995 1.7708007286
| 25> H -2.1265453687 0.0773976554 1.8787002929
| 26> H 2.4014996164 -1.1640311595 1.0321807389
| 27> *
| 28>
| 29>                          ****END OF INPUT****

CARTESIAN COORDINATES (ANGSTROEM)
---------------------------------
  C      1.897298    1.137755   -0.001252
  C      1.387764   -0.254517   -0.377076
  H      2.012471   -0.640993   -1.202423
  C     -0.058376   -0.248219   -0.896507
  C     -1.112936    0.414925   -0.001835
  C     -2.384611    0.664368   -0.813124
  C     -1.435287   -0.442655    1.219035
  O      1.488733   -1.155272    0.715143
  H      1.419018    1.480040    0.912494
  H      2.972907    1.115197    0.160017
  H      1.682169    1.839362   -0.801543
  H     -0.045310    0.262605   -1.861456
  H     -0.349078   -1.286719   -1.069430
  H     -0.734769    1.383279    0.337849
  H     -3.149394    1.116697   -0.186336
  H     -2.773082   -0.272907   -1.205720
  H     -2.186246    1.331770   -1.648646
  H     -1.893480   -1.379390    0.908064
  H     -0.530362   -0.677687    1.770801
  H     -2.126545    0.077398    1.878700
  H      2.401500   -1.164031    1.032181

 Total Charge           Charge          ....    0
 Multiplicity           Mult            ....    1
 Number of Electrons    NEL             ....   58
 Basis Dimension        Dim             ....  126

ORBITAL ENERGIES
----------------

  NO   OCC          E(Eh)            E(eV)
   0   2.0000     -18.740332      -509.9503
   1   2.0000      -9.937333      -270.4086
   2   2.0000      -9.886453      -269.0241
   3   2.0000      -9.877292      -268.7748
   4   2.0000      -9.876705      -268.7588
   5   2.0000      -9.865860      -268.4637
   6   2.0000      -9.855088      -268.1706
   7   2.0000      -0.918062       -24.9817
   8   2.0000      -0.725712       -19.7476
   9   2.0000      -0.674440       -18.3524
  10   2.0000      -0.610694       -16.6178
  11   2.0000      -0.598809       -16.2944
  12   2.0000      -0.533926       -14.5289
  13   2.0000      -0.486382       -13.2351
  14   2.0000      -0.456089       -12.4108
  15   2.0000      -0.417674       -11.3655
  16   2.0000      -0.391655       -10.6575
  17   2.0000      -0.380106       -10.3432
  18   2.0000      -0.367958       -10.0126
  19   2.0000      -0.361150        -9.8274
  20   2.0000      -0.335347        -9.1252
  21   2.0000      -0.330094        -8.9823
  22   2.0000      -0.314732        -8.5643
  23   2.0000      -0.306571        -8.3422
  24   2.0000      -0.298075        -8.1110
  25   2.0000      -0.277299        -7.5457
  26   2.0000      -0.271196        -7.3796
  27   2.0000      -0.256284        -6.9738
  28   2.0000      -0.211141        -5.7454
  29   0.0000       0.019859         0.5404
  30   0.0000       0.052478         1.4280
  31   0.0000       0.067648         1.8408
  32   0.0000       0.074069         2.0155
  33   0.0000       0.084049         2.2871

MULLIKEN ATOMIC CHARGES
-----------------------
   0 C :   -0.286834
   1 C :    0.048970
   2 H :    0.055787
   3 C :   -0.122272
   4 C :   -0.203936
   5 C :   -0.231286
   6 C :   -0.243040
   7 O :   -0.420106
   8 H :    0.118828
   9 H :    0.093097
  10 H :    0.099750
  11 H :    0.076469
  12 H :    0.082225
  13 H :    0.071370
  14 H :    0.095708
  15 H :    0.090749
  16 H :    0.091606
  17 H :    0.084984
  18 H :    0.116918
  19 H :    0.086656
  20 H :    0.294357
Sum of atomic charges:    0.0000000

LOEWDIN ATOMIC CHARGES
----------------------
   0 C :   -0.357081
   1 C :   -0.055337
   2 H :    0.095368
   3 C :   -0.219155
   4 C :   -0.158097
   5 C :   -0.328168
   6 C :   -0.337203
   7 O :   -0.326662
   8 H :    0.123204
   9 H :    0.114591
  10 H :    0.124638
  11 H :    0.117344
  12 H :    0.121225
  13 H :    0.112281
  14 H :    0.116022
  15 H :    0.115425
  16 H :    0.113071
  17 H :    0.114503
  18 H :    0.120840
  19 H :    0.111423
  20 H :    0.281766

  Mayer bond orders larger than 0.100000
B(  0-C ,  1-C ) :   1.1068 B(  0-C ,  8-H ) :   0.9357 B(  0-C ,  9-H ) :   0.9435
B(  0-C , 10-H ) :   0.9389 B(  1-C ,  2-H ) :   0.9057 B(  1-C ,  3-C ) :   1.0873
B(  1-C ,  7-O ) :   1.0463 B(  3-C ,  4-C ) :   1.0835 B(  3-C , 11-H ) :   0.9142
B(  3-C , 12-H ) :   0.9058 B(  4-C ,  5-C ) :   1.1131 B(  4-C ,  6-C ) :   1.1157
B(  4-C , 13-H ) :   0.8987 B(  5-C , 14-H ) :   0.9519 B(  5-C , 15-H ) :   0.9497
B(  5-C , 16-H ) :   0.9487 B(  6-C , 17-H ) :   0.9483 B(  6-C , 18-H ) :   0.9320
B(  6-C , 19-H ) :   0.9486 B(  7-O , 20-H ) :   0.8510

Dispersion correction           -0.016669676
FINAL SINGLE POINT ENERGY      -311.516734348598

DIPOLE MOMENT
-------------

Method             : SCF
Type of density    : Electron Density
Multiplicity       :   1
Irrep              :   0
Energy             :  -311.5965847969862921 Eh
Relativity type    :
Basis              : AO
                                X                 Y                 Z
Electronic contribution:      3.672569136      -2.690538682       0.765218474
Nuclear contribution   :     -3.074035012       2.970549657      -0.904516573
                        -----------------------------------------
Total Dipole Moment    :      0.598534124       0.280010976      -0.139298099
                        -----------------------------------------
Magnitude (a.u.)       :      0.675317114
Magnitude (Debye)      :      1.716519690

Rotational constants in cm-1:             0.131721             0.054535             0.047216
Rotational constants in MHz :          3948.907912          1634.912982          1415.510300

                             ****ORCA TERMINATED NORMALLY****
TOTAL RUN TIME: 0 days 0 hours 0 minutes 9 seconds 227 msec
