                         Program Version 6.0.0  -   RELEASE  -
|  1> ! r2scan-3c def2/J RI DEFGRID2 scfconv6 printgap
|  2> %output
|  3>     printlevel normal
|  4> end
|  5> * xyz 0 1
|  6> C 2.5258224796 -0.0679914429 0.0593039493
|  7> C 1.2653940184 0.7683844584 -0.1224609643
|  8> C 1.21109e-05 -0.0482695379 -0.0001873189
|  9> O -2.62204e-05 -1.2621074556 -0.0002461206
| 10> C -1.265321964 0.7684359446 0.1221221205
| 11> C -2.5258754706 -0.0679778731 -0.0585656859
| 12> H 2.5335276336 -0.8916745872 -0.6505891028
| 13> H 3.4121582329 0.5404689334 -0.0947993363
| 14> H 2.5579433896 -0.4903669703 1.0608554928
| 15> H 1.2319613385 1.5839364486 0.6007548567
| 16> H 1.2588322606 1.2156847024 -1.1196225018
| 17> H -1.2321599485 1.5834600749 -0.6017037799
| 18> H -1.258332036 1.2164772783 1.1189394354
| 19> H -3.4121279461 0.540675594 0.095227941
| 20> H -2.5334585004 -0.8910404397 0.6520319185
| 21> H -2.5582996953 -0.4912514808 -1.0597155783
| 22> *
| 23>
| 24>                          ****END OF INPUT****

CARTESIAN COORDINATES (ANGSTROEM)
---------------------------------
  C      2.525822   -0.067991    0.059304
  C      1.265394    0.768384   -0.122461
  C      0.000012   -0.048270   -0.000187
  O     -0.000026   -1.262107   -0.000246
  C     -1.265322    0.768436    0.122122
  C     -2.525875   -0.067978   -0.058566
  H      2.533528   -0.891675   -0.650589
  H      3.412158    0.540469   -0.094799
  H      2.557943   -0.490367    1.060855
  H      1.231961    1.583936    0.600755
  H      1.258832    1.215685   -1.119623
  H     -1.232160    1.583460   -0.601704
  H     -1.258332    1.216477    1.118939
  H     -3.412128    0.540676    0.095228
  H     -2.533459   -0.891040    0.652032
  H     -2.558300   -0.491251   -1.059716

 Total Charge           Charge          ....    0
 Multiplicity           Mult            ....    1
 Number of Electrons    NEL             ....   48
 Basis Dimension        Dim             ....  169

ORBITAL ENERGIES
----------------

  NO   OCC          E(Eh)            E(eV)
   0   2.0000     -18.938804      -515.3511
   1   2.0000     -10.115519      -275.2573
   2   2.0000     -10.040445      -273.2144
   3   2.0000     -10.040441      -273.2143
   4   2.0000     -10.019915      -272.6558
   5   2.0000     -10.019910      -272.6556
   6   2.0000      -1.004929       -27.3455
   7   2.0000      -0.762569       -20.7506
   8   2.0000      -0.734344       -19.9825
   9   2.0000      -0.641003       -17.4426
  10   2.0000      -0.582676       -15.8554
  11   2.0000      -0.488847       -13.3022
  12   2.0000      -0.451013       -12.2727
  13   2.0000      -0.448127       -12.1942
  14   2.0000      -0.417208       -11.3528
  15   2.0000      -0.398757       -10.8507
  16   2.0000      -0.375000       -10.2043
  17   2.0000      -0.349240        -9.5033
  18   2.0000      -0.336358        -9.1528
  19   2.0000      -0.328956        -8.9513
  20   2.0000      -0.322488        -8.7754
  21   2.0000      -0.318159        -8.6575
  22   2.0000      -0.316925        -8.6240
  23   2.0000      -0.214696        -5.8422
  24   0.0000      -0.042474        -1.1558
  25   0.0000       0.075899         2.0653
  26   0.0000       0.105812         2.8793
  27   0.0000       0.115431         3.1410
  28   0.0000       0.144477         3.9314

MULLIKEN ATOMIC CHARGES
-----------------------
   0 C :   -0.469055
   1 C :   -0.239811
   2 C :    0.259121
   3 O :   -0.366080
   4 C :   -0.239751
   5 C :   -0.469068
   6 H :    0.162428
   7 H :    0.144002
   8 H :    0.150996
   9 H :    0.145476
  10 H :    0.159438
  11 H :    0.145480
  12 H :    0.159416
  13 H :    0.144000
  14 H :    0.162396
  15 H :    0.151014
Sum of atomic charges:   -0.0000000

LOEWDIN ATOMIC CHARGES
----------------------
   0 C :   -0.405854
   1 C :   -0.290529
   2 C :    0.225746
   3 O :   -0.470169
   4 C :   -0.290525
   5 C :   -0.405860
   6 H :    0.164771
   7 H :    0.149358
   8 H :    0.158212
   9 H :    0.169338
  10 H :    0.176917
  11 H :    0.169359
  12 H :    0.176902
  13 H :    0.149358
  14 H :    0.164753
  15 H :    0.158222

  Mayer bond orders larger than 0.100000
B(  0-C ,  1-C ) :   0.9297 B(  0-C ,  6-H ) :   0.9709 B(  0-C ,  7-H ) :   0.9745
B(  0-C ,  8-H ) :   0.9811 B(  1-C ,  2-C ) :   0.9334 B(  1-C ,  9-H ) :   0.9493
B(  1-C , 10-H ) :   0.9345 B(  2-C ,  3-O ) :   1.9214 B(  2-C ,  4-C ) :   0.9335
B(  4-C ,  5-C ) :   0.9297 B(  4-C , 11-H ) :   0.9492 B(  4-C , 12-H ) :   0.9345
B(  5-C , 13-H ) :   0.9745 B(  5-C , 14-H ) :   0.9709 B(  5-C , 15-H ) :   0.9810

Dispersion correction           -0.003627841
FINAL SINGLE POINT ENERGY      -271.705611231772

DIPOLE MOMENT
-------------

Method             : SCF
Type of density    : Electron Density
Multiplicity       :   1
Irrep              :   0
Energy             :  -271.7092947225586386 Eh
Relativity type    :
Basis              : AO
                                X                 Y                 Z
Electronic contribution:      0.000001078      -2.575095222      -0.001296743
Nuclear contribution   :      0.000041574       3.655459834       0.001290403
                        -----------------------------------------
Total Dipole Moment    :      0.000042651       1.080364612      -0.000006339
                        -----------------------------------------
Magnitude (a.u.)       :      1.080364613
Magnitude (Debye)      :      2.746068612

Rotational constants in cm-1:             0.293897             0.066260             0.056550
Rotational constants in MHz :          8810.812200          1986.434308          1695.331401

                             ****ORCA TERMINATED NORMALLY****
TOTAL RUN TIME: 0 days 0 hours 0 minutes 17 seconds 200 msec
