                         Program Version 6.0.0  -   RELEASE  -
|  1> ! r2scan-3c def2/J RI DEFGRID2 scfconv6 printgap
|  2> %output
|  3>     printlevel normal
|  4> end
|  5> %cpcm
|  6>     smd true
|  7>     smdsolvent "water"
|  8> end
|  9> * xyz 0 1
| 10> C 2.5258224796 -0.0679914429 0.0593039493
| 11> C 1.2653940184 0.7683844584 -0.1224609643
| 12> C 1.21109e-05 -0.0482695379 -0.0001873189
| 13> O -2.62204e-05 -1.2621074556 -0.0002461206
| 14> C -1.265321964 0.7684359446 0.1221221205
| 15> C -2.5258754706 -0.0679778731 -0.0585656859
| 16> H 2.5335276336 -0.8916745872 -0.6505891028
| 17> H 3.4121582329 0.5404689334 -0.0947993363
| 18> H 2.5579433896 -0.4903669703 1.0608554928
| 19> H 1.2319613385 1.5839364486 0.6007548567
| 20> H 1.2588322606 1.2156847024 -1.1196225018
| 21> H -1.2321599485 1.5834600749 -0.6017037799
| 22> H -1.258332036 1.2164772783 1.1189394354
| 23> H -3.4121279461 0.540675594 0.095227941
| 24> H -2.5334585004 -0.8910404397 0.6520319185
| 25> H -2.5582996953 -0.4912514808 -1.0597155783
| 26> *
| 27>
| 28>                          ****END OF INPUT****

CARTESIAN COORDINATES (ANGSTROEM)
---------------------------------
  C      2.525822   -0.067991    0.059304
  C      1.265394    0.768384   -0.122461
  C      0.000012   -0.048270   -0.000187
  O     -0.000026   -1.262107   -0.000246
  C     -1.265322    0.768436    0.122122
  C     -2.525875   -0.067978   -0.058566
  H      2.533528   -0.891675   -0.650589
  H      3.412158    0.540469   -0.094799
  H      2.557943   -0.490367    1.060855
  H      1.231961    1.583936    0.600755
  H      1.258832    1.215685   -1.119623
  H     -1.232160    1.583460   -0.601704
  H     -1.258332    1.216477    1.118939
  H     -3.412128    0.540676    0.095228
  H     -2.533459   -0.891040    0.652032
  H     -2.558300   -0.491251   -1.059716

 Total Charge           Charge          ....    0
 Multiplicity           Mult            ....    1
 Number of Electrons    NEL             ....   48
 Basis Dimension        Dim             ....  169

ORBITAL ENERGIES
----------------

  NO   OCC          E(Eh)            E(eV)
   0   2.0000     -18.946838      -515.5697
   1   2.0000     -10.120568      -275.3947
   2   2.0000     -10.029455      -272.9154
   3   2.0000     -10.029451      -272.9152
   4   2.0000     -10.013397      -272.4784
   5   2.0000     -10.013392      -272.4783
   6   2.0000      -1.015449       -27.6318
   7   2.0000      -0.754790       -20.5389
   8   2.0000      -0.726375       -19.7657
   9   2.0000      -0.635064       -17.2810
  10   2.0000      -0.574588       -15.6353
  11   2.0000      -0.487996       -13.2790
  12   2.0000      -0.445348       -12.1185
  13   2.0000      -0.442062       -12.0291
  14   2.0000      -0.411398       -11.1947
  15   2.0000      -0.402493       -10.9524
  16   2.0000      -0.367658       -10.0045
  17   2.0000      -0.350063        -9.5257
  18   2.0000      -0.331009        -9.0072
  19   2.0000      -0.323609        -8.8058
  20   2.0000      -0.317342        -8.6353
  21   2.0000      -0.314138        -8.5481
  22   2.0000      -0.308251        -8.3879
  23   2.0000      -0.223186        -6.0732
  24   0.0000      -0.043581        -1.1859
  25   0.0000       0.084174         2.2905
  26   0.0000       0.119284         3.2459
  27   0.0000       0.126175         3.4334
  28   0.0000       0.156428         4.2566

MULLIKEN ATOMIC CHARGES
-----------------------
   0 C :   -0.526718
   1 C :   -0.241149
   2 C :    0.300210
   3 O :   -0.469171
   4 C :   -0.241080
   5 C :   -0.526760
   6 H :    0.160552
   7 H :    0.163074
   8 H :    0.164106
   9 H :    0.174126
  10 H :    0.190481
  11 H :    0.174138
  12 H :    0.190460
  13 H :    0.163074
  14 H :    0.160557
  15 H :    0.164099
Sum of atomic charges:   -0.0000000

LOEWDIN ATOMIC CHARGES
----------------------
   0 C :   -0.415730
   1 C :   -0.283445
   2 C :    0.246616
   3 O :   -0.545074
   4 C :   -0.283442
   5 C :   -0.415738
   6 H :    0.160135
   7 H :    0.156850
   8 H :    0.158453
   9 H :    0.182504
  10 H :    0.190463
  11 H :    0.182526
  12 H :    0.190450
  13 H :    0.156851
  14 H :    0.160127
  15 H :    0.158452

  Mayer bond orders larger than 0.100000
B(  0-C ,  1-C ) :   0.8894 B(  0-C ,  6-H ) :   0.9748 B(  0-C ,  7-H ) :   0.9686
B(  0-C ,  8-H ) :   0.9832 B(  1-C ,  2-C ) :   0.9552 B(  1-C ,  9-H ) :   0.9383
B(  1-C , 10-H ) :   0.9231 B(  2-C ,  3-O ) :   1.8494 B(  2-C ,  4-C ) :   0.9552
B(  4-C ,  5-C ) :   0.8894 B(  4-C , 11-H ) :   0.9382 B(  4-C , 12-H ) :   0.9231
B(  5-C , 13-H ) :   0.9685 B(  5-C , 14-H ) :   0.9748 B(  5-C , 15-H ) :   0.9832

Dispersion correction           -0.003627841
FINAL SINGLE POINT ENERGY      -271.711842676741

DIPOLE MOMENT
-------------

Method             : SCF
Type of density    : Electron Density
Multiplicity       :   1
Irrep              :   0
Energy             :  -271.7155261675276279 Eh
Relativity type    :
Basis              : AO
                                X                 Y                 Z
Electronic contribution:      0.000026268      -1.951613490      -0.001308204
Nuclear contribution   :      0.000041574       3.655459834       0.001290403
                        -----------------------------------------
Total Dipole Moment    :      0.000067841       1.703846344      -0.000017801
                        -----------------------------------------
Magnitude (a.u.)       :      1.703846345
Magnitude (Debye)      :      4.330833232

Rotational constants in cm-1:             0.293897             0.066260             0.056550
Rotational constants in MHz :          8810.812200          1986.434308          1695.331401

                             ****ORCA TERMINATED NORMALLY****
TOTAL RUN TIME: 0 days 0 hours 0 minutes 18 seconds 679 msec
