                         Program Version 6.0.0  -   RELEASE  -
|  1> ! r2scan-3c def2/J RI DEFGRID2 scfconv6 printgap
|  2> %output
|  3>     printlevel normal
|  4> end
|  5> * xyz 0 1
|  6> C 2.2471798626 -1.0213743016 0.3402040641
|  7> C 1.6187461692 0.034012495 -0.5640113267
|  8> C 0.4470000117 0.776423689 0.0927378499
|  9> C -0.9369664378 0.2533574384 -0.3173387296
| 10> H -1.0202607735 0.2934368421 -1.4172623263
| 11> C -1.1996087455 -1.1763589996 0.1415501282
| 12> O -1.9643293361 1.0564105284 0.248707832
| 13> H 1.5196444571 -1.7705190854 0.6374327877
| 14> H 2.6468779184 -0.5573190879 1.2390232574
| 15> H 3.0629695849 -1.5208912586 -0.1773611226
| 16> H 2.3919998319 0.7569803255 -0.8306344592
| 17> H 1.2779763211 -0.4318919042 -1.4909725898
| 18> H 0.5301784894 0.7195692652 1.1797187516
| 19> H 0.4928555726 1.8327880114 -0.1845158316
| 20> H -1.0455664138 -1.2540322581 1.2144733136
| 21> H -2.2329741861 -1.4341421133 -0.0762423591
| 22> H -0.5453147047 -1.8689139345 -0.3766005632
| 23> H -1.8318927957 1.9784760991 -0.0082628282
| 24> *
| 25>
| 26>                          ****END OF INPUT****

CARTESIAN COORDINATES (ANGSTROEM)
---------------------------------
  C      2.247180   -1.021374    0.340204
  C      1.618746    0.034012   -0.564011
  C      0.447000    0.776424    0.092738
  C     -0.936966    0.253357   -0.317339
  H     -1.020261    0.293437   -1.417262
  C     -1.199609   -1.176359    0.141550
  O     -1.964329    1.056411    0.248708
  H      1.519644   -1.770519    0.637433
  H      2.646878   -0.557319    1.239023
  H      3.062970   -1.520891   -0.177361
  H      2.392000    0.756980   -0.830634
  H      1.277976   -0.431892   -1.490973
  H      0.530178    0.719569    1.179719
  H      0.492856    1.832788   -0.184516
  H     -1.045566   -1.254032    1.214473
  H     -2.232974   -1.434142   -0.076242
  H     -0.545315   -1.868914   -0.376601
  H     -1.831893    1.978476   -0.008263

 Total Charge           Charge          ....    0
 Multiplicity           Mult            ....    1
 Number of Electrons    NEL             ....   50
 Basis Dimension        Dim             ....  179

ORBITAL ENERGIES
----------------

  NO   OCC          E(Eh)            E(eV)
   0   2.0000     -18.942741      -515.4582
   1   2.0000     -10.080180      -274.2956
   2   2.0000     -10.029517      -272.9170
   3   2.0000     -10.024890      -272.7911
   4   2.0000     -10.017760      -272.5971
   5   2.0000     -10.015340      -272.5313
   6   2.0000      -0.980371       -26.6773
   7   2.0000      -0.765885       -20.8408
   8   2.0000      -0.709580       -19.3087
   9   2.0000      -0.653393       -17.7797
  10   2.0000      -0.572300       -15.5731
  11   2.0000      -0.540864       -14.7176
  12   2.0000      -0.482609       -13.1324
  13   2.0000      -0.436525       -11.8784
  14   2.0000      -0.413345       -11.2477
  15   2.0000      -0.394720       -10.7409
  16   2.0000      -0.366501        -9.9730
  17   2.0000      -0.362585        -9.8664
  18   2.0000      -0.353359        -9.6154
  19   2.0000      -0.332163        -9.0386
  20   2.0000      -0.318186        -8.6583
  21   2.0000      -0.307324        -8.3627
  22   2.0000      -0.298778        -8.1302
  23   2.0000      -0.278969        -7.5911
  24   2.0000      -0.231577        -6.3015
  25   0.0000       0.066369         1.8060
  26   0.0000       0.086759         2.3608
  27   0.0000       0.108650         2.9565
  28   0.0000       0.117386         3.1942
  29   0.0000       0.127780         3.4771

MULLIKEN ATOMIC CHARGES
-----------------------
   0 C :   -0.483039
   1 C :   -0.261553
   2 C :   -0.213221
   3 C :   -0.011856
   4 H :    0.137130
   5 C :   -0.513128
   6 O :   -0.416528
   7 H :    0.149920
   8 H :    0.148360
   9 H :    0.144857
  10 H :    0.139117
  11 H :    0.143535
  12 H :    0.155689
  13 H :    0.127325
  14 H :    0.161326
  15 H :    0.158160
  16 H :    0.150538
  17 H :    0.283368
Sum of atomic charges:    0.0000000

LOEWDIN ATOMIC CHARGES
----------------------
   0 C :   -0.424721
   1 C :   -0.316300
   2 C :   -0.289499
   3 C :    0.047562
   4 H :    0.158072
   5 C :   -0.384589
   6 O :   -0.617509
   7 H :    0.150967
   8 H :    0.149816
   9 H :    0.150113
  10 H :    0.153634
  11 H :    0.153700
  12 H :    0.164861
  13 H :    0.155176
  14 H :    0.160140
  15 H :    0.164970
  16 H :    0.156798
  17 H :    0.266810

  Mayer bond orders larger than 0.100000
B(  0-C ,  1-C ) :   0.9133 B(  0-C ,  7-H ) :   0.9725 B(  0-C ,  8-H ) :   0.9860
B(  0-C ,  9-H ) :   0.9741 B(  1-C ,  2-C ) :   0.8348 B(  1-C , 10-H ) :   0.9586
B(  1-C , 11-H ) :   0.9790 B(  2-C ,  3-C ) :   0.8914 B(  2-C , 12-H ) :   0.9819
B(  2-C , 13-H ) :   0.9617 B(  3-C ,  4-H ) :   0.9913 B(  3-C ,  5-C ) :   0.9013
B(  3-C ,  6-O ) :   0.9101 B(  5-C , 14-H ) :   0.9811 B(  5-C , 15-H ) :   0.9635
B(  5-C , 16-H ) :   0.9678 B(  6-O , 17-H ) :   0.9006

Dispersion correction           -0.004348164
FINAL SINGLE POINT ENERGY      -272.899760129989

DIPOLE MOMENT
-------------

Method             : SCF
Type of density    : Electron Density
Multiplicity       :   1
Irrep              :   0
Energy             :  -272.9050247751540041 Eh
Relativity type    :
Basis              : AO
                                X                 Y                 Z
Electronic contribution:     -4.395449745       3.231933712      -0.067722855
Nuclear contribution   :      4.892917657      -3.039413874      -0.269506036
                        -----------------------------------------
Total Dipole Moment    :      0.497467912       0.192519838      -0.337228891
                        -----------------------------------------
Magnitude (a.u.)       :      0.631079659
Magnitude (Debye)      :      1.604077016

Rotational constants in cm-1:             0.208837             0.066804             0.056304
Rotational constants in MHz :          6260.772674          2002.728554          1687.959231

                             ****ORCA TERMINATED NORMALLY****
TOTAL RUN TIME: 0 days 0 hours 0 minutes 22 seconds 682 msec
