                         Program Version 6.0.0  -   RELEASE  -
|  1> ! r2scan-3c def2/J RI DEFGRID2 scfconv6 printgap
|  2> %output
|  3>     printlevel normal
|  4> end
|  5> %cpcm
|  6>     smd true
|  7>     smdsolvent "water"
|  8> end
|  9> * xyz 0 1
| 10> C 2.2471798626 -1.0213743016 0.3402040641
| 11> C 1.6187461692 0.034012495 -0.5640113267
| 12> C 0.4470000117 0.776423689 0.0927378499
| 13> C -0.9369664378 0.2533574384 -0.3173387296
| 14> H -1.0202607735 0.2934368421 -1.4172623263
| 15> C -1.1996087455 -1.1763589996 0.1415501282
| 16> O -1.9643293361 1.0564105284 0.248707832
| 17> H 1.5196444571 -1.7705190854 0.6374327877
| 18> H 2.6468779184 -0.5573190879 1.2390232574
| 19> H 3.0629695849 -1.5208912586 -0.1773611226
| 20> H 2.3919998319 0.7569803255 -0.8306344592
| 21> H 1.2779763211 -0.4318919042 -1.4909725898
| 22> H 0.5301784894 0.7195692652 1.1797187516
| 23> H 0.4928555726 1.8327880114 -0.1845158316
| 24> H -1.0455664138 -1.2540322581 1.2144733136
| 25> H -2.2329741861 -1.4341421133 -0.0762423591
| 26> H -0.5453147047 -1.8689139345 -0.3766005632
| 27> H -1.8318927957 1.9784760991 -0.0082628282
| 28> *
| 29>
| 30>                          ****END OF INPUT****

CARTESIAN COORDINATES (ANGSTROEM)
---------------------------------
  C      2.247180   -1.021374    0.340204
  C      1.618746    0.034012   -0.564011
  C      0.447000    0.776424    0.092738
  C     -0.936966    0.253357   -0.317339
  H     -1.020261    0.293437   -1.417262
  C     -1.199609   -1.176359    0.141550
  O     -1.964329    1.056411    0.248708
  H      1.519644   -1.770519    0.637433
  H      2.646878   -0.557319    1.239023
  H      3.062970   -1.520891   -0.177361
  H      2.392000    0.756980   -0.830634
  H      1.277976   -0.431892   -1.490973
  H      0.530178    0.719569    1.179719
  H      0.492856    1.832788   -0.184516
  H     -1.045566   -1.254032    1.214473
  H     -2.232974   -1.434142   -0.076242
  H     -0.545315   -1.868914   -0.376601
  H     -1.831893    1.978476   -0.008263

 Total Charge           Charge          ....    0
 Multiplicity           Mult            ....    1
 Number of Electrons    NEL             ....   50
 Basis Dimension        Dim             ....  179

ORBITAL ENERGIES
----------------

  NO   OCC          E(Eh)            E(eV)
   0   2.0000     -18.947534      -515.5886
   1   2.0000     -10.075214      -274.1605
   2   2.0000     -10.018467      -272.6164
   3   2.0000     -10.014965      -272.5210
   4   2.0000     -10.009795      -272.3804
   5   2.0000     -10.007286      -272.3121
   6   2.0000      -0.983885       -26.7729
   7   2.0000      -0.757060       -20.6007
   8   2.0000      -0.703296       -19.1376
   9   2.0000      -0.645144       -17.5553
  10   2.0000      -0.565358       -15.3842
  11   2.0000      -0.533946       -14.5294
  12   2.0000      -0.479246       -13.0409
  13   2.0000      -0.428159       -11.6508
  14   2.0000      -0.405779       -11.0418
  15   2.0000      -0.386711       -10.5229
  16   2.0000      -0.364351        -9.9145
  17   2.0000      -0.356335        -9.6964
  18   2.0000      -0.347613        -9.4590
  19   2.0000      -0.326497        -8.8844
  20   2.0000      -0.311629        -8.4799
  21   2.0000      -0.298760        -8.1297
  22   2.0000      -0.291985        -7.9453
  23   2.0000      -0.274133        -7.4595
  24   2.0000      -0.235805        -6.4166
  25   0.0000       0.082614         2.2480
  26   0.0000       0.097102         2.6423
  27   0.0000       0.118261         3.2180
  28   0.0000       0.128035         3.4840
  29   0.0000       0.137114         3.7311

MULLIKEN ATOMIC CHARGES
-----------------------
   0 C :   -0.519935
   1 C :   -0.270152
   2 C :   -0.238976
   3 C :    0.007538
   4 H :    0.148772
   5 C :   -0.547743
   6 O :   -0.508206
   7 H :    0.158234
   8 H :    0.158232
   9 H :    0.153612
  10 H :    0.149884
  11 H :    0.154908
  12 H :    0.156117
  13 H :    0.153840
  14 H :    0.170336
  15 H :    0.160504
  16 H :    0.173183
  17 H :    0.339852
Sum of atomic charges:   -0.0000000

LOEWDIN ATOMIC CHARGES
----------------------
   0 C :   -0.432546
   1 C :   -0.316274
   2 C :   -0.289992
   3 C :    0.048851
   4 H :    0.165564
   5 C :   -0.394013
   6 O :   -0.655780
   7 H :    0.152748
   8 H :    0.151748
   9 H :    0.151983
  10 H :    0.156452
  11 H :    0.157551
  12 H :    0.164356
  13 H :    0.163768
  14 H :    0.161299
  15 H :    0.163056
  16 H :    0.165941
  17 H :    0.285288

  Mayer bond orders larger than 0.100000
B(  0-C ,  1-C ) :   0.9021 B(  0-C ,  7-H ) :   0.9717 B(  0-C ,  8-H ) :   0.9833
B(  0-C ,  9-H ) :   0.9718 B(  1-C ,  2-C ) :   0.8329 B(  1-C , 10-H ) :   0.9600
B(  1-C , 11-H ) :   0.9784 B(  2-C ,  3-C ) :   0.9036 B(  2-C , 12-H ) :   0.9783
B(  2-C , 13-H ) :   0.9609 B(  3-C ,  4-H ) :   0.9840 B(  3-C ,  5-C ) :   0.8984
B(  3-C ,  6-O ) :   0.8888 B(  5-C , 14-H ) :   0.9762 B(  5-C , 15-H ) :   0.9631
B(  5-C , 16-H ) :   0.9626 B(  6-O , 17-H ) :   0.8749

Dispersion correction           -0.004348164
FINAL SINGLE POINT ENERGY      -272.906285936918

DIPOLE MOMENT
-------------

Method             : SCF
Type of density    : Electron Density
Multiplicity       :   1
Irrep              :   0
Energy             :  -272.9115505820830663 Eh
Relativity type    :
Basis              : AO
                                X                 Y                 Z
Electronic contribution:     -4.185759547       3.326383966      -0.255245684
Nuclear contribution   :      4.892917657      -3.039413874      -0.269506036
                        -----------------------------------------
Total Dipole Moment    :      0.707158110       0.286970092      -0.524751720
                        -----------------------------------------
Magnitude (a.u.)       :      0.926168880
Magnitude (Debye)      :      2.354134206

Rotational constants in cm-1:             0.208837             0.066804             0.056304
Rotational constants in MHz :          6260.772674          2002.728554          1687.959231

                             ****ORCA TERMINATED NORMALLY****
TOTAL RUN TIME: 0 days 0 hours 0 minutes 27 seconds 325 msec
