                         Program Version 6.0.0  -   RELEASE  -
|  1> ! r2scan-3c def2/J RI DEFGRID2 scfconv6 printgap
|  2> %output
|  3>     printlevel normal
|  4> end
|  5> * xyz 0 1
|  6> C -2.7878366118 -0.2749650635 0.0110198735
|  7> C -1.4314369102 0.4113183948 -0.0862836167
|  8> C -0.2843202465 -0.5829838401 0.0748417274
|  9> C 1.0747693083 0.067041869 0.0230987447
| 10> O 1.2291211347 1.2728438286 0.0293586051
| 11> C 2.2304328619 -0.8907743843 -0.0473865955
| 12> H -3.5880946215 0.4502181783 -0.1099953662
| 13> H -2.9040448474 -0.7557704099 0.9794633806
| 14> H -2.8894251455 -1.030928025 -0.7640902219
| 15> H -1.3448328363 1.1802855929 0.6841779475
| 16> H -1.3360738512 0.912364478 -1.0520490865
| 17> H -0.3665058312 -1.0869116855 1.0414317213
| 18> H -0.3330589718 -1.3539739632 -0.6960996495
| 19> H 3.156250541 -0.3830286879 0.2084555837
| 20> H 2.3073182561 -1.2571250789 -1.0694507775
| 21> H 2.0683565714 -1.7416474868 0.6065823672
| 22> *
| 23>
| 24>                          ****END OF INPUT****

CARTESIAN COORDINATES (ANGSTROEM)
---------------------------------
  C     -2.787837   -0.274965    0.011020
  C     -1.431437    0.411318   -0.086284
  C     -0.284320   -0.582984    0.074842
  C      1.074769    0.067042    0.023099
  O      1.229121    1.272844    0.029359
  C      2.230433   -0.890774   -0.047387
  H     -3.588095    0.450218   -0.109995
  H     -2.904045   -0.755770    0.979463
  H     -2.889425   -1.030928   -0.764090
  H     -1.344833    1.180286    0.684178
  H     -1.336074    0.912364   -1.052049
  H     -0.366506   -1.086912    1.041432
  H     -0.333059   -1.353974   -0.696100
  H      3.156251   -0.383029    0.208456
  H      2.307318   -1.257125   -1.069451
  H      2.068357   -1.741647    0.606582

 Total Charge           Charge          ....    0
 Multiplicity           Mult            ....    1
 Number of Electrons    NEL             ....   48
 Basis Dimension        Dim             ....  169

ORBITAL ENERGIES
----------------

  NO   OCC          E(Eh)            E(eV)
   0   2.0000     -18.937482      -515.3151
   1   2.0000     -10.118620      -275.3417
   2   2.0000     -10.039224      -273.1812
   3   2.0000     -10.034055      -273.0405
   4   2.0000     -10.027801      -272.8703
   5   2.0000     -10.019648      -272.6485
   6   2.0000      -1.003129       -27.2965
   7   2.0000      -0.768917       -20.9233
   8   2.0000      -0.722296       -19.6547
   9   2.0000      -0.663973       -18.0676
  10   2.0000      -0.567271       -15.4362
  11   2.0000      -0.496737       -13.5169
  12   2.0000      -0.452899       -12.3240
  13   2.0000      -0.434647       -11.8274
  14   2.0000      -0.413490       -11.2516
  15   2.0000      -0.408325       -11.1111
  16   2.0000      -0.378539       -10.3006
  17   2.0000      -0.365403        -9.9431
  18   2.0000      -0.364813        -9.9271
  19   2.0000      -0.323684        -8.8079
  20   2.0000      -0.320187        -8.7127
  21   2.0000      -0.308980        -8.4078
  22   2.0000      -0.303914        -8.2699
  23   2.0000      -0.214114        -5.8263
  24   0.0000      -0.043240        -1.1766
  25   0.0000       0.080223         2.1830
  26   0.0000       0.098065         2.6685
  27   0.0000       0.126278         3.4362
  28   0.0000       0.131234         3.5711

MULLIKEN ATOMIC CHARGES
-----------------------
   0 C :   -0.461298
   1 C :   -0.253356
   2 C :   -0.271508
   3 C :    0.311107
   4 O :   -0.354080
   5 C :   -0.510818
   6 H :    0.150362
   7 H :    0.139174
   8 H :    0.137543
   9 H :    0.157646
  10 H :    0.148263
  11 H :    0.158815
  12 H :    0.147403
  13 H :    0.178601
  14 H :    0.171685
  15 H :    0.150460
Sum of atomic charges:   -0.0000000

LOEWDIN ATOMIC CHARGES
----------------------
   0 C :   -0.423234
   1 C :   -0.298880
   2 C :   -0.286053
   3 C :    0.219337
   4 O :   -0.467191
   5 C :   -0.388622
   6 H :    0.152267
   7 H :    0.149073
   8 H :    0.148693
   9 H :    0.164908
  10 H :    0.160203
  11 H :    0.178271
  12 H :    0.172562
  13 H :    0.174785
  14 H :    0.177768
  15 H :    0.166113

  Mayer bond orders larger than 0.100000
B(  0-C ,  1-C ) :   0.8826 B(  0-C ,  6-H ) :   0.9759 B(  0-C ,  7-H ) :   0.9843
B(  0-C ,  8-H ) :   0.9804 B(  1-C ,  2-C ) :   0.9399 B(  1-C ,  9-H ) :   0.9677
B(  1-C , 10-H ) :   0.9727 B(  2-C ,  3-C ) :   0.9194 B(  2-C , 11-H ) :   0.9349
B(  2-C , 12-H ) :   0.9499 B(  3-C ,  4-O ) :   1.9238 B(  3-C ,  5-C ) :   0.9127
B(  5-C , 13-H ) :   0.9838 B(  5-C , 14-H ) :   0.9487 B(  5-C , 15-H ) :   0.9584

Dispersion correction           -0.003601522
FINAL SINGLE POINT ENERGY      -271.704674909703

DIPOLE MOMENT
-------------

Method             : SCF
Type of density    : Electron Density
Multiplicity       :   1
Irrep              :   0
Energy             :  -271.7083683346717180 Eh
Relativity type    :
Basis              : AO
                                X                 Y                 Z
Electronic contribution:      4.707756551       3.643384668       0.138715454
Nuclear contribution   :     -4.888466081      -4.734336803      -0.160529465
                        -----------------------------------------
Total Dipole Moment    :     -0.180709530      -1.090952135      -0.021814011
                        -----------------------------------------
Magnitude (a.u.)       :      1.106032705
Magnitude (Debye)      :      2.811311719

Rotational constants in cm-1:             0.276495             0.060919             0.051922
Rotational constants in MHz :          8289.122591          1826.305034          1556.585842

                             ****ORCA TERMINATED NORMALLY****
TOTAL RUN TIME: 0 days 0 hours 0 minutes 22 seconds 394 msec
