                         Program Version 6.0.0  -   RELEASE  -
|  1> ! r2scan-3c def2/J RI DEFGRID2 scfconv6 printgap
|  2> %output
|  3>     printlevel normal
|  4> end
|  5> %cpcm
|  6>     smd true
|  7>     smdsolvent "water"
|  8> end
|  9> * xyz 0 1
| 10> C -2.7878366118 -0.2749650635 0.0110198735
| 11> C -1.4314369102 0.4113183948 -0.0862836167
| 12> C -0.2843202465 -0.5829838401 0.0748417274
| 13> C 1.0747693083 0.067041869 0.0230987447
| 14> O 1.2291211347 1.2728438286 0.0293586051
| 15> C 2.2304328619 -0.8907743843 -0.0473865955
| 16> H -3.5880946215 0.4502181783 -0.1099953662
| 17> H -2.9040448474 -0.7557704099 0.9794633806
| 18> H -2.8894251455 -1.030928025 -0.7640902219
| 19> H -1.3448328363 1.1802855929 0.6841779475
| 20> H -1.3360738512 0.912364478 -1.0520490865
| 21> H -0.3665058312 -1.0869116855 1.0414317213
| 22> H -0.3330589718 -1.3539739632 -0.6960996495
| 23> H 3.156250541 -0.3830286879 0.2084555837
| 24> H 2.3073182561 -1.2571250789 -1.0694507775
| 25> H 2.0683565714 -1.7416474868 0.6065823672
| 26> *
| 27>
| 28>                          ****END OF INPUT****

CARTESIAN COORDINATES (ANGSTROEM)
---------------------------------
  C     -2.787837   -0.274965    0.011020
  C     -1.431437    0.411318   -0.086284
  C     -0.284320   -0.582984    0.074842
  C      1.074769    0.067042    0.023099
  O      1.229121    1.272844    0.029359
  C      2.230433   -0.890774   -0.047387
  H     -3.588095    0.450218   -0.109995
  H     -2.904045   -0.755770    0.979463
  H     -2.889425   -1.030928   -0.764090
  H     -1.344833    1.180286    0.684178
  H     -1.336074    0.912364   -1.052049
  H     -0.366506   -1.086912    1.041432
  H     -0.333059   -1.353974   -0.696100
  H      3.156251   -0.383029    0.208456
  H      2.307318   -1.257125   -1.069451
  H      2.068357   -1.741647    0.606582

 Total Charge           Charge          ....    0
 Multiplicity           Mult            ....    1
 Number of Electrons    NEL             ....   48
 Basis Dimension        Dim             ....  169

ORBITAL ENERGIES
----------------

  NO   OCC          E(Eh)            E(eV)
   0   2.0000     -18.946370      -515.5569
   1   2.0000     -10.124011      -275.4883
   2   2.0000     -10.027417      -272.8599
   3   2.0000     -10.021647      -272.7029
   4   2.0000     -10.020884      -272.6821
   5   2.0000     -10.009614      -272.3754
   6   2.0000      -1.014623       -27.6093
   7   2.0000      -0.760311       -20.6891
   8   2.0000      -0.713294       -19.4097
   9   2.0000      -0.653960       -17.7952
  10   2.0000      -0.559433       -15.2230
  11   2.0000      -0.494360       -13.4522
  12   2.0000      -0.443489       -12.0680
  13   2.0000      -0.433400       -11.7934
  14   2.0000      -0.414303       -11.2738
  15   2.0000      -0.400600       -10.9009
  16   2.0000      -0.367541       -10.0013
  17   2.0000      -0.361856        -9.8466
  18   2.0000      -0.352138        -9.5822
  19   2.0000      -0.327465        -8.9108
  20   2.0000      -0.314853        -8.5676
  21   2.0000      -0.300449        -8.1756
  22   2.0000      -0.294948        -8.0259
  23   2.0000      -0.223812        -6.0902
  24   0.0000      -0.044619        -1.2141
  25   0.0000       0.090301         2.4572
  26   0.0000       0.110739         3.0133
  27   0.0000       0.136850         3.7239
  28   0.0000       0.145459         3.9582

MULLIKEN ATOMIC CHARGES
-----------------------
   0 C :   -0.511737
   1 C :   -0.270933
   2 C :   -0.272725
   3 C :    0.355732
   4 O :   -0.463476
   5 C :   -0.546004
   6 H :    0.158356
   7 H :    0.155033
   8 H :    0.153888
   9 H :    0.153709
  10 H :    0.155458
  11 H :    0.191072
  12 H :    0.177672
  13 H :    0.179963
  14 H :    0.202717
  15 H :    0.181275
Sum of atomic charges:   -0.0000000

LOEWDIN ATOMIC CHARGES
----------------------
   0 C :   -0.428860
   1 C :   -0.304342
   2 C :   -0.279510
   3 C :    0.239857
   4 O :   -0.546326
   5 C :   -0.386099
   6 H :    0.153607
   7 H :    0.153740
   8 H :    0.153694
   9 H :    0.160386
  10 H :    0.159060
  11 H :    0.192439
  12 H :    0.186482
  13 H :    0.174461
  14 H :    0.191466
  15 H :    0.179946

  Mayer bond orders larger than 0.100000
B(  0-C ,  1-C ) :   0.8878 B(  0-C ,  6-H ) :   0.9733 B(  0-C ,  7-H ) :   0.9817
B(  0-C ,  8-H ) :   0.9781 B(  1-C ,  2-C ) :   0.9090 B(  1-C ,  9-H ) :   0.9693
B(  1-C , 10-H ) :   0.9734 B(  2-C ,  3-C ) :   0.9413 B(  2-C , 11-H ) :   0.9222
B(  2-C , 12-H ) :   0.9371 B(  3-C ,  4-O ) :   1.8455 B(  3-C ,  5-C ) :   0.9321
B(  5-C , 13-H ) :   0.9802 B(  5-C , 14-H ) :   0.9336 B(  5-C , 15-H ) :   0.9469

Dispersion correction           -0.003601522
FINAL SINGLE POINT ENERGY      -271.711526934463

DIPOLE MOMENT
-------------

Method             : SCF
Type of density    : Electron Density
Multiplicity       :   1
Irrep              :   0
Energy             :  -271.7152203594320099 Eh
Relativity type    :
Basis              : AO
                                X                 Y                 Z
Electronic contribution:      4.633642487       3.047301780       0.130807807
Nuclear contribution   :     -4.888466081      -4.734336803      -0.160529465
                        -----------------------------------------
Total Dipole Moment    :     -0.254823594      -1.687035023      -0.029721657
                        -----------------------------------------
Magnitude (a.u.)       :      1.706430664
Magnitude (Debye)      :      4.337402049

Rotational constants in cm-1:             0.276495             0.060919             0.051922
Rotational constants in MHz :          8289.122591          1826.305034          1556.585842

                             ****ORCA TERMINATED NORMALLY****
TOTAL RUN TIME: 0 days 0 hours 0 minutes 25 seconds 920 msec
