                         Program Version 6.0.0  -   RELEASE  -
|  1> ! pbe def2-sv(p) def2/J RI DEFGRID1 loosescf d4 GCP(DFT/SV(P)) printgap
|  2> %output
|  3>     printlevel normal
|  4> end
|  5> * xyz 0 1
|  6> C 2.1772897827 -0.0808063836 -1.0186845466
|  7> C 1.5933576989 -0.616662477 0.2860898746
|  8> C 0.2447944745 0.0166556111 0.6733481999
|  9> H -0.0113121385 -0.3349124901 1.6801302303
| 10> C -0.8958372013 -0.4156421605 -0.2967255829
| 11> C -1.8873795477 -1.3198504065 0.4348807123
| 12> C -1.6312386025 0.7765070382 -0.9076193957
| 13> O 0.3580194049 1.4155334732 0.8416685282
| 14> H 1.4699462553 -0.177957572 -1.8389836693
| 15> H 3.0732213827 -0.6403874983 -1.2751963528
| 16> H 2.4565187904 0.965421505 -0.9179167203
| 17> H 1.4471308151 -1.695303218 0.2124290276
| 18> H 2.3030969877 -0.4280236303 1.0943536089
| 19> H -0.4545048295 -0.9972631509 -1.1119517793
| 20> H -1.3767671778 -2.1779182052 0.8661318387
| 21> H -2.3790748956 -0.7709306287 1.2350513979
| 22> H -2.6478806007 -1.6830112098 -0.2525165161
| 23> H -0.9827092711 1.3434235192 -1.5714018299
| 24> H -1.9940686417 1.4384519959 -0.1247032936
| 25> H -2.4811368974 0.4242792826 -1.4869378195
| 26> H 0.6493273275 1.8052066812 0.0064967274
| 27> *
| 28>
| 29>                          ****END OF INPUT****

CARTESIAN COORDINATES (ANGSTROEM)
---------------------------------
  C      2.177290   -0.080806   -1.018685
  C      1.593358   -0.616662    0.286090
  C      0.244794    0.016656    0.673348
  H     -0.011312   -0.334912    1.680130
  C     -0.895837   -0.415642   -0.296726
  C     -1.887380   -1.319850    0.434881
  C     -1.631239    0.776507   -0.907619
  O      0.358019    1.415533    0.841669
  H      1.469946   -0.177958   -1.838984
  H      3.073221   -0.640387   -1.275196
  H      2.456519    0.965422   -0.917917
  H      1.447131   -1.695303    0.212429
  H      2.303097   -0.428024    1.094354
  H     -0.454505   -0.997263   -1.111952
  H     -1.376767   -2.177918    0.866132
  H     -2.379075   -0.770931    1.235051
  H     -2.647881   -1.683011   -0.252517
  H     -0.982709    1.343424   -1.571402
  H     -1.994069    1.438452   -0.124703
  H     -2.481137    0.424279   -1.486938
  H      0.649327    1.805207    0.006497

 Total Charge           Charge          ....    0
 Multiplicity           Mult            ....    1
 Number of Electrons    NEL             ....   58
 Basis Dimension        Dim             ....  126

ORBITAL ENERGIES
----------------

  NO   OCC          E(Eh)            E(eV)
   0   2.0000     -18.738709      -509.9062
   1   2.0000      -9.930169      -270.2136
   2   2.0000      -9.891136      -269.1515
   3   2.0000      -9.883667      -268.9483
   4   2.0000      -9.882195      -268.9082
   5   2.0000      -9.872617      -268.6476
   6   2.0000      -9.872192      -268.6360
   7   2.0000      -0.917925       -24.9780
   8   2.0000      -0.723110       -19.6768
   9   2.0000      -0.687806       -18.7162
  10   2.0000      -0.615023       -16.7356
  11   2.0000      -0.601705       -16.3732
  12   2.0000      -0.532521       -14.4906
  13   2.0000      -0.510166       -13.8823
  14   2.0000      -0.431182       -11.7330
  15   2.0000      -0.420761       -11.4495
  16   2.0000      -0.404652       -11.0111
  17   2.0000      -0.397936       -10.8284
  18   2.0000      -0.379230       -10.3194
  19   2.0000      -0.349201        -9.5022
  20   2.0000      -0.339985        -9.2515
  21   2.0000      -0.335429        -9.1275
  22   2.0000      -0.317063        -8.6277
  23   2.0000      -0.310460        -8.4480
  24   2.0000      -0.302044        -8.2190
  25   2.0000      -0.290382        -7.9017
  26   2.0000      -0.283518        -7.7149
  27   2.0000      -0.256218        -6.9720
  28   2.0000      -0.210024        -5.7150
  29   0.0000       0.018082         0.4920
  30   0.0000       0.047256         1.2859
  31   0.0000       0.063112         1.7174
  32   0.0000       0.067522         1.8374
  33   0.0000       0.093715         2.5501

MULLIKEN ATOMIC CHARGES
-----------------------
   0 C :   -0.320292
   1 C :   -0.168077
   2 C :    0.088611
   3 H :    0.063142
   4 C :   -0.193836
   5 C :   -0.262496
   6 C :   -0.250770
   7 O :   -0.420708
   8 H :    0.111970
   9 H :    0.113066
  10 H :    0.096648
  11 H :    0.085247
  12 H :    0.090554
  13 H :    0.075699
  14 H :    0.101616
  15 H :    0.104418
  16 H :    0.097460
  17 H :    0.085195
  18 H :    0.111219
  19 H :    0.095411
  20 H :    0.295925
Sum of atomic charges:    0.0000000

LOEWDIN ATOMIC CHARGES
----------------------
   0 C :   -0.351393
   1 C :   -0.245184
   2 C :   -0.044775
   3 H :    0.111418
   4 C :   -0.173930
   5 C :   -0.328008
   6 C :   -0.335026
   7 O :   -0.315845
   8 H :    0.117440
   9 H :    0.126477
  10 H :    0.113024
  11 H :    0.118356
  12 H :    0.119256
  13 H :    0.111791
  14 H :    0.115622
  15 H :    0.119199
  16 H :    0.116054
  17 H :    0.107803
  18 H :    0.123180
  19 H :    0.117933
  20 H :    0.276610

  Mayer bond orders larger than 0.100000
B(  0-C ,  1-C ) :   1.1416 B(  0-C ,  8-H ) :   0.9462 B(  0-C ,  9-H ) :   0.9503
B(  0-C , 10-H ) :   0.9433 B(  1-C ,  2-C ) :   1.0730 B(  1-C , 11-H ) :   0.9133
B(  1-C , 12-H ) :   0.9175 B(  2-C ,  3-H ) :   0.9085 B(  2-C ,  4-C ) :   0.9490
B(  2-C ,  7-O ) :   1.0858 B(  4-C ,  5-C ) :   1.1117 B(  4-C ,  6-C ) :   1.1308
B(  4-C , 13-H ) :   0.9000 B(  5-C , 14-H ) :   0.9479 B(  5-C , 15-H ) :   0.9499
B(  5-C , 16-H ) :   0.9488 B(  6-C , 17-H ) :   0.9459 B(  6-C , 18-H ) :   0.9407
B(  6-C , 19-H ) :   0.9457 B(  7-O , 20-H ) :   0.8364

Dispersion correction           -0.016829683
FINAL SINGLE POINT ENERGY      -311.512446947338

DIPOLE MOMENT
-------------

Method             : SCF
Type of density    : Electron Density
Multiplicity       :   1
Irrep              :   0
Energy             :  -311.5924842205653249 Eh
Relativity type    :
Basis              : AO
                                X                 Y                 Z
Electronic contribution:      1.031512362       2.461910147       2.748722444
Nuclear contribution   :     -0.865502216      -2.726802698      -3.257023163
                        -----------------------------------------
Total Dipole Moment    :      0.166010147      -0.264892551      -0.508300719
                        -----------------------------------------
Magnitude (a.u.)       :      0.596738680
Magnitude (Debye)      :      1.516789185

Rotational constants in cm-1:             0.114022             0.058151             0.053557
Rotational constants in MHz :          3418.294507          1743.323891          1605.600714

                             ****ORCA TERMINATED NORMALLY****
TOTAL RUN TIME: 0 days 0 hours 0 minutes 9 seconds 165 msec
