                         Program Version 6.0.0  -   RELEASE  -
|  1> ! pbe def2-sv(p) def2/J RI DEFGRID1 loosescf d4 GCP(DFT/SV(P)) printgap
|  2> %output
|  3>     printlevel normal
|  4> end
|  5> * xyz 0 1
|  6> C 2.9545250683 0.293884758 -1.6509727745
|  7> C 3.1044274562 -0.8563899697 -0.6525959813
|  8> C 3.2273200445 -0.3162295218 0.7525084383
|  9> O 4.2842391555 -0.346599244 1.3726803255
| 10> N 2.1513469805 0.2953467196 1.3052175127
| 11> C 0.8431539639 0.4298177584 0.8167589261
| 12> C 0.2536971524 1.6930093366 0.7846938051
| 13> C -1.0372081103 1.8518552041 0.3204768776
| 14> C -1.7616265279 0.7511493371 -0.1122207032
| 15> C -1.1901768966 -0.514648791 -0.0517401795
| 16> C 0.1009870323 -0.6788676331 0.4194270278
| 17> Cl -2.0968401834 -1.9064096651 -0.5476855947
| 18> Cl -3.3768956826 0.9533911957 -0.7070573104
| 19> H 3.7826465559 0.9913318868 -1.5502100859
| 20> H 2.0225401453 0.8291741548 -1.4889954625
| 21> H 2.9564460133 -0.0999746651 -2.663189299
| 22> H 4.0205361415 -1.4099857926 -0.8621773408
| 23> H 2.2582627334 -1.5324736587 -0.7422195294
| 24> H 2.361570964 0.8106082266 2.1532002526
| 25> H 0.8128364027 2.5532596031 1.1148490945
| 26> H -1.4908257666 2.8282004799 0.2850512639
| 27> H 0.5090393722 -1.6724363799 0.4970521062
| 28> *
| 29>
| 30>                          ****END OF INPUT****

CARTESIAN COORDINATES (ANGSTROEM)
---------------------------------
  C      2.954525    0.293885   -1.650973
  C      3.104427   -0.856390   -0.652596
  C      3.227320   -0.316230    0.752508
  O      4.284239   -0.346599    1.372680
  N      2.151347    0.295347    1.305218
  C      0.843154    0.429818    0.816759
  C      0.253697    1.693009    0.784694
  C     -1.037208    1.851855    0.320477
  C     -1.761627    0.751149   -0.112221
  C     -1.190177   -0.514649   -0.051740
  C      0.100987   -0.678868    0.419427
  Cl    -2.096840   -1.906410   -0.547686
  Cl    -3.376896    0.953391   -0.707057
  H      3.782647    0.991332   -1.550210
  H      2.022540    0.829174   -1.488995
  H      2.956446   -0.099975   -2.663189
  H      4.020536   -1.409986   -0.862177
  H      2.258263   -1.532474   -0.742220
  H      2.361571    0.810608    2.153200
  H      0.812836    2.553260    1.114849
  H     -1.490826    2.828200    0.285051
  H      0.509039   -1.672436    0.497052

 Total Charge           Charge          ....    0
 Multiplicity           Mult            ....    1
 Number of Electrons    NEL             ....  112
 Basis Dimension        Dim             ....  208

ORBITAL ENERGIES
----------------

  NO   OCC          E(Eh)            E(eV)
   0   2.0000    -100.655521     -2738.9760
   1   2.0000    -100.653803     -2738.9292
   2   2.0000     -18.722013      -509.4519
   3   2.0000     -14.036939      -381.9645
   4   2.0000      -9.992346      -271.9055
   5   2.0000      -9.975825      -271.4560
   6   2.0000      -9.971377      -271.3350
   7   2.0000      -9.963919      -271.1320
   8   2.0000      -9.926049      -270.1015
   9   2.0000      -9.925491      -270.0864
  10   2.0000      -9.921529      -269.9785
  11   2.0000      -9.901270      -269.4273
  12   2.0000      -9.890729      -269.1404
  13   2.0000      -9.191240      -250.1063
  14   2.0000      -9.189489      -250.0587
  15   2.0000      -7.022829      -191.1009
  16   2.0000      -7.021098      -191.0538
  17   2.0000      -7.011271      -190.7864
  18   2.0000      -7.010379      -190.7621
  19   2.0000      -7.009483      -190.7377
  20   2.0000      -7.008661      -190.7154
  21   2.0000      -0.943269       -25.6677
  22   2.0000      -0.867019       -23.5928
  23   2.0000      -0.843537       -22.9538
  24   2.0000      -0.792238       -21.5579
  25   2.0000      -0.769828       -20.9481
  26   2.0000      -0.710979       -19.3467
  27   2.0000      -0.693347       -18.8669
  28   2.0000      -0.672305       -18.2944
  29   2.0000      -0.600949       -16.3526
  30   2.0000      -0.578005       -15.7283
  31   2.0000      -0.570795       -15.5321
  32   2.0000      -0.535024       -14.5587
  33   2.0000      -0.503352       -13.6969
  34   2.0000      -0.465458       -12.6658
  35   2.0000      -0.456662       -12.4264
  36   2.0000      -0.433700       -11.8016
  37   2.0000      -0.423570       -11.5259
  38   2.0000      -0.411599       -11.2002
  39   2.0000      -0.403227       -10.9724
  40   2.0000      -0.394020       -10.7218
  41   2.0000      -0.386473       -10.5165
  42   2.0000      -0.373153       -10.1540
  43   2.0000      -0.359503        -9.7826
  44   2.0000      -0.351322        -9.5599
  45   2.0000      -0.334015        -9.0890
  46   2.0000      -0.331205        -9.0125
  47   2.0000      -0.317876        -8.6498
  48   2.0000      -0.313975        -8.5437
  49   2.0000      -0.307285        -8.3617
  50   2.0000      -0.293065        -7.9747
  51   2.0000      -0.269968        -7.3462
  52   2.0000      -0.258745        -7.0408
  53   2.0000      -0.241961        -6.5841
  54   2.0000      -0.214652        -5.8410
  55   2.0000      -0.203805        -5.5458
  56   0.0000      -0.068665        -1.8685
  57   0.0000      -0.066856        -1.8192
  58   0.0000      -0.027810        -0.7567
  59   0.0000      -0.012074        -0.3286
  60   0.0000       0.028043         0.7631

MULLIKEN ATOMIC CHARGES
-----------------------
   0 C :   -0.310734
   1 C :   -0.174467
   2 C :    0.035986
   3 O :   -0.206296
   4 N :   -0.201453
   5 C :    0.173276
   6 C :   -0.092163
   7 C :   -0.110282
   8 C :    0.088531
   9 C :    0.071235
  10 C :   -0.152520
  11 Cl:   -0.048563
  12 Cl:   -0.051560
  13 H :    0.116284
  14 H :    0.132757
  15 H :    0.116241
  16 H :    0.105113
  17 H :    0.104742
  18 H :    0.236438
  19 H :    0.047626
  20 H :    0.060106
  21 H :    0.059703
Sum of atomic charges:   -0.0000000

LOEWDIN ATOMIC CHARGES
----------------------
   0 C :   -0.334565
   1 C :   -0.255085
   2 C :    0.028308
   3 O :   -0.192137
   4 N :   -0.117351
   5 C :   -0.008375
   6 C :   -0.131816
   7 C :   -0.124807
   8 C :   -0.160020
   9 C :   -0.147774
  10 C :   -0.143759
  11 Cl:    0.147931
  12 Cl:    0.144532
  13 H :    0.125853
  14 H :    0.123321
  15 H :    0.126455
  16 H :    0.137440
  17 H :    0.128265
  18 H :    0.243434
  19 H :    0.132726
  20 H :    0.137951
  21 H :    0.139474

  Mayer bond orders larger than 0.100000
B(  0-C ,  1-C ) :   1.1280 B(  0-C , 13-H ) :   0.9516 B(  0-C , 14-H ) :   0.9456
B(  0-C , 15-H ) :   0.9483 B(  1-C ,  2-C ) :   1.0387 B(  1-C , 16-H ) :   0.9040
B(  1-C , 17-H ) :   0.8913 B(  2-C ,  3-O ) :   2.1082 B(  2-C ,  4-N ) :   1.1569
B(  4-N ,  5-C ) :   0.9871 B(  4-N , 18-H ) :   0.8419 B(  5-C ,  6-C ) :   1.3439
B(  5-C , 10-C ) :   1.3258 B(  6-C ,  7-C ) :   1.3366 B(  6-C , 19-H ) :   0.9695
B(  7-C ,  8-C ) :   1.3707 B(  7-C , 20-H ) :   0.9637 B(  8-C ,  9-C ) :   1.4149
B(  8-C , 12-Cl) :   1.0387 B(  9-C , 10-C ) :   1.3624 B(  9-C , 11-Cl) :   1.0363
B( 10-C , 21-H ) :   0.9575

Dispersion correction           -0.029420076
FINAL SINGLE POINT ENERGY     -1397.087059611617

DIPOLE MOMENT
-------------

Method             : SCF
Type of density    : Electron Density
Multiplicity       :   1
Irrep              :   0
Energy             : -1397.1453975752015140 Eh
Relativity type    :
Basis              : AO
                                X                 Y                 Z
Electronic contribution:    -24.094999755      -3.768287082       1.170714153
Nuclear contribution   :     23.589722791       4.369462123      -1.343675472
                        -----------------------------------------
Total Dipole Moment    :     -0.505276965       0.601175041      -0.172961319
                        -----------------------------------------
Magnitude (a.u.)       :      0.804134229
Magnitude (Debye)      :      2.043946776

Rotational constants in cm-1:             0.039652             0.010847             0.009722
Rotational constants in MHz :          1188.732398           325.176947           291.443696

                             ****ORCA TERMINATED NORMALLY****
TOTAL RUN TIME: 0 days 0 hours 0 minutes 17 seconds 846 msec
