                         Program Version 6.0.0  -   RELEASE  -
|  1> ! r2scan-3c def2/J RI DEFGRID2 scfconv6 printgap
|  2> %output
|  3>     printlevel normal
|  4> end
|  5> * xyz 0 1
|  6> C -3.2357022201 -0.0823234939 -0.5845665124
|  7> C -1.7110886813 -0.0567053601 -0.5754914506
|  8> C -1.1675130571 -0.1957975525 0.8457269576
|  9> C 0.3604707021 -0.1561816378 0.982680867
| 10> C 1.088747406 -1.2001552757 0.111157977
| 11> C 1.773697824 -0.4000981883 -0.9949458227
| 12> C 2.1858646907 0.8821010863 -0.2796287275
| 13> C 0.9711447021 1.2059295037 0.5910020964
| 14> H -3.6350211948 0.7372691682 0.009062098
| 15> H -3.6137138057 0.0126505667 -1.599753632
| 16> H -3.6040638135 -1.016832957 -0.1667519937
| 17> H -1.3389454304 -0.8724493279 -1.196946922
| 18> H -1.3708415161 0.88042547 -1.0187940169
| 19> H -1.5852022822 0.6056575244 1.4612147508
| 20> H -1.523656298 -1.1429673064 1.2597846728
| 21> H 0.5806614719 -0.3575722602 2.0358148671
| 22> H 1.8463849562 -1.7116486948 0.7069490231
| 23> H 0.4090817298 -1.9554789991 -0.2787986694
| 24> H 2.6197916494 -0.9307918421 -1.4296401502
| 25> H 1.0646560227 -0.1681417388 -1.7904225531
| 26> H 3.0572135928 0.687892028 0.348207228
| 27> H 2.4313129874 1.6901509368 -0.9674393194
| 28> H 1.2442171677 1.7911621911 1.4683052557
| 29> H 0.2527529688 1.7891776325 0.0159611147
| 30> *
| 31>
| 32>                          ****END OF INPUT****

CARTESIAN COORDINATES (ANGSTROEM)
---------------------------------
  C     -3.235702   -0.082323   -0.584567
  C     -1.711089   -0.056705   -0.575491
  C     -1.167513   -0.195798    0.845727
  C      0.360471   -0.156182    0.982681
  C      1.088747   -1.200155    0.111158
  C      1.773698   -0.400098   -0.994946
  C      2.185865    0.882101   -0.279629
  C      0.971145    1.205930    0.591002
  H     -3.635021    0.737269    0.009062
  H     -3.613714    0.012651   -1.599754
  H     -3.604064   -1.016833   -0.166752
  H     -1.338945   -0.872449   -1.196947
  H     -1.370842    0.880425   -1.018794
  H     -1.585202    0.605658    1.461215
  H     -1.523656   -1.142967    1.259785
  H      0.580661   -0.357572    2.035815
  H      1.846385   -1.711649    0.706949
  H      0.409082   -1.955479   -0.278799
  H      2.619792   -0.930792   -1.429640
  H      1.064656   -0.168142   -1.790423
  H      3.057214    0.687892    0.348207
  H      2.431313    1.690151   -0.967439
  H      1.244217    1.791162    1.468305
  H      0.252753    1.789178    0.015961

 Total Charge           Charge          ....    0
 Multiplicity           Mult            ....    1
 Number of Electrons    NEL             ....   64
 Basis Dimension        Dim             ....  232

ORBITAL ENERGIES
----------------

  NO   OCC          E(Eh)            E(eV)
   0   2.0000     -10.024435      -272.7788
   1   2.0000     -10.020977      -272.6846
   2   2.0000     -10.018557      -272.6188
   3   2.0000     -10.017813      -272.5985
   4   2.0000     -10.017380      -272.5868
   5   2.0000     -10.015931      -272.5473
   6   2.0000     -10.015616      -272.5388
   7   2.0000     -10.013885      -272.4917
   8   2.0000      -0.804770       -21.8989
   9   2.0000      -0.748485       -20.3673
  10   2.0000      -0.688031       -18.7223
  11   2.0000      -0.671057       -18.2604
  12   2.0000      -0.617704       -16.8086
  13   2.0000      -0.558712       -15.2033
  14   2.0000      -0.533089       -14.5061
  15   2.0000      -0.499391       -13.5891
  16   2.0000      -0.449629       -12.2350
  17   2.0000      -0.439712       -11.9652
  18   2.0000      -0.428837       -11.6692
  19   2.0000      -0.388342       -10.5673
  20   2.0000      -0.378781       -10.3071
  21   2.0000      -0.376930       -10.2568
  22   2.0000      -0.355362        -9.6699
  23   2.0000      -0.326563        -8.8862
  24   2.0000      -0.316077        -8.6009
  25   2.0000      -0.308241        -8.3877
  26   2.0000      -0.301016        -8.1911
  27   2.0000      -0.298964        -8.1352
  28   2.0000      -0.286217        -7.7884
  29   2.0000      -0.278226        -7.5709
  30   2.0000      -0.275893        -7.5074
  31   2.0000      -0.266007        -7.2384
  32   0.0000       0.080884         2.2010
  33   0.0000       0.091372         2.4864
  34   0.0000       0.100122         2.7244
  35   0.0000       0.112838         3.0705
  36   0.0000       0.124430         3.3859

MULLIKEN ATOMIC CHARGES
-----------------------
   0 C :   -0.479113
   1 C :   -0.242224
   2 C :   -0.411651
   3 C :    0.122316
   4 C :   -0.426345
   5 C :   -0.254101
   6 C :   -0.290389
   7 C :   -0.409556
   8 H :    0.142542
   9 H :    0.145525
  10 H :    0.142337
  11 H :    0.146423
  12 H :    0.139576
  13 H :    0.143671
  14 H :    0.151369
  15 H :    0.156275
  16 H :    0.155246
  17 H :    0.159182
  18 H :    0.151749
  19 H :    0.153526
  20 H :    0.147042
  21 H :    0.151200
  22 H :    0.152403
  23 H :    0.152997
Sum of atomic charges:    0.0000000

LOEWDIN ATOMIC CHARGES
----------------------
   0 C :   -0.423455
   1 C :   -0.320009
   2 C :   -0.300641
   3 C :   -0.224809
   4 C :   -0.301521
   5 C :   -0.303580
   6 C :   -0.300692
   7 C :   -0.298999
   8 H :    0.149904
   9 H :    0.149353
  10 H :    0.149894
  11 H :    0.151880
  12 H :    0.149469
  13 H :    0.157723
  14 H :    0.156624
  15 H :    0.160068
  16 H :    0.157412
  17 H :    0.157764
  18 H :    0.154635
  19 H :    0.155392
  20 H :    0.154440
  21 H :    0.155108
  22 H :    0.157034
  23 H :    0.157007

  Mayer bond orders larger than 0.100000
B(  0-C ,  1-C ) :   0.9095 B(  0-C ,  8-H ) :   0.9848 B(  0-C ,  9-H ) :   0.9748
B(  0-C , 10-H ) :   0.9853 B(  1-C ,  2-C ) :   0.8785 B(  1-C , 11-H ) :   0.9671
B(  1-C , 12-H ) :   0.9642 B(  2-C ,  3-C ) :   0.8660 B(  2-C , 13-H ) :   0.9843
B(  2-C , 14-H ) :   0.9975 B(  3-C ,  4-C ) :   0.9102 B(  3-C ,  7-C ) :   0.9100
B(  3-C , 15-H ) :   0.9619 B(  4-C ,  5-C ) :   0.8904 B(  4-C , 16-H ) :   0.9725
B(  4-C , 17-H ) :   0.9784 B(  5-C ,  6-C ) :   0.9004 B(  5-C , 18-H ) :   0.9482
B(  5-C , 19-H ) :   0.9903 B(  6-C ,  7-C ) :   0.9040 B(  6-C , 20-H ) :   0.9874
B(  6-C , 21-H ) :   0.9587 B(  7-C , 22-H ) :   0.9558 B(  7-C , 23-H ) :   0.9968

Dispersion correction           -0.007168073
FINAL SINGLE POINT ENERGY      -314.380970479427

DIPOLE MOMENT
-------------

Method             : SCF
Type of density    : Electron Density
Multiplicity       :   1
Irrep              :   0
Energy             :  -314.3841388846172435 Eh
Relativity type    :
Basis              : AO
                                X                 Y                 Z
Electronic contribution:      2.984762055      -0.041027845       1.094173633
Nuclear contribution   :     -2.969634824       0.036121520      -1.072553250
                        -----------------------------------------
Total Dipole Moment    :      0.015127231      -0.004906325       0.021620383
                        -----------------------------------------
Magnitude (a.u.)       :      0.026839264
Magnitude (Debye)      :      0.068219988

Rotational constants in cm-1:             0.124941             0.038330             0.037235
Rotational constants in MHz :          3745.631945          1149.116847          1116.286936

                             ****ORCA TERMINATED NORMALLY****
TOTAL RUN TIME: 0 days 0 hours 0 minutes 25 seconds 678 msec
