                         Program Version 6.0.0  -   RELEASE  -
|  1> ! r2scan-3c def2/J RI DEFGRID2 scfconv6 printgap
|  2> %output
|  3>     printlevel normal
|  4> end
|  5> %cpcm
|  6>     smd true
|  7>     smdsolvent "water"
|  8> end
|  9> * xyz 0 1
| 10> C -3.2357022201 -0.0823234939 -0.5845665124
| 11> C -1.7110886813 -0.0567053601 -0.5754914506
| 12> C -1.1675130571 -0.1957975525 0.8457269576
| 13> C 0.3604707021 -0.1561816378 0.982680867
| 14> C 1.088747406 -1.2001552757 0.111157977
| 15> C 1.773697824 -0.4000981883 -0.9949458227
| 16> C 2.1858646907 0.8821010863 -0.2796287275
| 17> C 0.9711447021 1.2059295037 0.5910020964
| 18> H -3.6350211948 0.7372691682 0.009062098
| 19> H -3.6137138057 0.0126505667 -1.599753632
| 20> H -3.6040638135 -1.016832957 -0.1667519937
| 21> H -1.3389454304 -0.8724493279 -1.196946922
| 22> H -1.3708415161 0.88042547 -1.0187940169
| 23> H -1.5852022822 0.6056575244 1.4612147508
| 24> H -1.523656298 -1.1429673064 1.2597846728
| 25> H 0.5806614719 -0.3575722602 2.0358148671
| 26> H 1.8463849562 -1.7116486948 0.7069490231
| 27> H 0.4090817298 -1.9554789991 -0.2787986694
| 28> H 2.6197916494 -0.9307918421 -1.4296401502
| 29> H 1.0646560227 -0.1681417388 -1.7904225531
| 30> H 3.0572135928 0.687892028 0.348207228
| 31> H 2.4313129874 1.6901509368 -0.9674393194
| 32> H 1.2442171677 1.7911621911 1.4683052557
| 33> H 0.2527529688 1.7891776325 0.0159611147
| 34> *
| 35>
| 36>                          ****END OF INPUT****

CARTESIAN COORDINATES (ANGSTROEM)
---------------------------------
  C     -3.235702   -0.082323   -0.584567
  C     -1.711089   -0.056705   -0.575491
  C     -1.167513   -0.195798    0.845727
  C      0.360471   -0.156182    0.982681
  C      1.088747   -1.200155    0.111158
  C      1.773698   -0.400098   -0.994946
  C      2.185865    0.882101   -0.279629
  C      0.971145    1.205930    0.591002
  H     -3.635021    0.737269    0.009062
  H     -3.613714    0.012651   -1.599754
  H     -3.604064   -1.016833   -0.166752
  H     -1.338945   -0.872449   -1.196947
  H     -1.370842    0.880425   -1.018794
  H     -1.585202    0.605658    1.461215
  H     -1.523656   -1.142967    1.259785
  H      0.580661   -0.357572    2.035815
  H      1.846385   -1.711649    0.706949
  H      0.409082   -1.955479   -0.278799
  H      2.619792   -0.930792   -1.429640
  H      1.064656   -0.168142   -1.790423
  H      3.057214    0.687892    0.348207
  H      2.431313    1.690151   -0.967439
  H      1.244217    1.791162    1.468305
  H      0.252753    1.789178    0.015961

 Total Charge           Charge          ....    0
 Multiplicity           Mult            ....    1
 Number of Electrons    NEL             ....   64
 Basis Dimension        Dim             ....  232

ORBITAL ENERGIES
----------------

  NO   OCC          E(Eh)            E(eV)
   0   2.0000     -10.017486      -272.5897
   1   2.0000     -10.012771      -272.4614
   2   2.0000     -10.011451      -272.4254
   3   2.0000     -10.011151      -272.4173
   4   2.0000     -10.011082      -272.4154
   5   2.0000     -10.008931      -272.3569
   6   2.0000     -10.008649      -272.3492
   7   2.0000     -10.006810      -272.2991
   8   2.0000      -0.798094       -21.7172
   9   2.0000      -0.741326       -20.1725
  10   2.0000      -0.681482       -18.5441
  11   2.0000      -0.664693       -18.0872
  12   2.0000      -0.611140       -16.6300
  13   2.0000      -0.551616       -15.0102
  14   2.0000      -0.526938       -14.3387
  15   2.0000      -0.492674       -13.4063
  16   2.0000      -0.442840       -12.0503
  17   2.0000      -0.433125       -11.7859
  18   2.0000      -0.421258       -11.4630
  19   2.0000      -0.381553       -10.3826
  20   2.0000      -0.371851       -10.1186
  21   2.0000      -0.370216       -10.0741
  22   2.0000      -0.348374        -9.4798
  23   2.0000      -0.319507        -8.6942
  24   2.0000      -0.309010        -8.4086
  25   2.0000      -0.300687        -8.1821
  26   2.0000      -0.294741        -8.0203
  27   2.0000      -0.292884        -7.9698
  28   2.0000      -0.279291        -7.5999
  29   2.0000      -0.271280        -7.3819
  30   2.0000      -0.268762        -7.3134
  31   2.0000      -0.258689        -7.0393
  32   0.0000       0.088933         2.4200
  33   0.0000       0.099065         2.6957
  34   0.0000       0.106536         2.8990
  35   0.0000       0.119210         3.2439
  36   0.0000       0.130128         3.5410

MULLIKEN ATOMIC CHARGES
-----------------------
   0 C :   -0.521747
   1 C :   -0.249631
   2 C :   -0.421903
   3 C :    0.113435
   4 C :   -0.438771
   5 C :   -0.275530
   6 C :   -0.309354
   7 C :   -0.426944
   8 H :    0.153436
   9 H :    0.155059
  10 H :    0.153128
  11 H :    0.155859
  12 H :    0.150659
  13 H :    0.150212
  14 H :    0.158062
  15 H :    0.163218
  16 H :    0.162981
  17 H :    0.169079
  18 H :    0.158932
  19 H :    0.161124
  20 H :    0.156044
  21 H :    0.158630
  22 H :    0.159864
  23 H :    0.164158
Sum of atomic charges:    0.0000000

LOEWDIN ATOMIC CHARGES
----------------------
   0 C :   -0.432753
   1 C :   -0.321514
   2 C :   -0.303574
   3 C :   -0.225081
   4 C :   -0.305459
   5 C :   -0.307913
   6 C :   -0.305318
   7 C :   -0.303230
   8 H :    0.152011
   9 H :    0.151460
  10 H :    0.151957
  11 H :    0.154452
  12 H :    0.152464
  13 H :    0.158819
  14 H :    0.158013
  15 H :    0.161691
  16 H :    0.159092
  17 H :    0.160409
  18 H :    0.156073
  19 H :    0.156874
  20 H :    0.156547
  21 H :    0.156595
  22 H :    0.158451
  23 H :    0.159933

  Mayer bond orders larger than 0.100000
B(  0-C ,  1-C ) :   0.8980 B(  0-C ,  8-H ) :   0.9828 B(  0-C ,  9-H ) :   0.9721
B(  0-C , 10-H ) :   0.9833 B(  1-C ,  2-C ) :   0.8717 B(  1-C , 11-H ) :   0.9665
B(  1-C , 12-H ) :   0.9637 B(  2-C ,  3-C ) :   0.8660 B(  2-C , 13-H ) :   0.9836
B(  2-C , 14-H ) :   0.9954 B(  3-C ,  4-C ) :   0.9105 B(  3-C ,  7-C ) :   0.9104
B(  3-C , 15-H ) :   0.9636 B(  4-C ,  5-C ) :   0.8872 B(  4-C , 16-H ) :   0.9718
B(  4-C , 17-H ) :   0.9760 B(  5-C ,  6-C ) :   0.8979 B(  5-C , 18-H ) :   0.9469
B(  5-C , 19-H ) :   0.9903 B(  6-C ,  7-C ) :   0.8992 B(  6-C , 20-H ) :   0.9855
B(  6-C , 21-H ) :   0.9574 B(  7-C , 22-H ) :   0.9546 B(  7-C , 23-H ) :   0.9951

Dispersion correction           -0.007168073
FINAL SINGLE POINT ENERGY      -314.378366246099

DIPOLE MOMENT
-------------

Method             : SCF
Type of density    : Electron Density
Multiplicity       :   1
Irrep              :   0
Energy             :  -314.3815346512886322 Eh
Relativity type    :
Basis              : AO
                                X                 Y                 Z
Electronic contribution:      2.986755338      -0.043714290       1.093942251
Nuclear contribution   :     -2.969634824       0.036121520      -1.072553250
                        -----------------------------------------
Total Dipole Moment    :      0.017120515      -0.007592769       0.021389001
                        -----------------------------------------
Magnitude (a.u.)       :      0.028429765
Magnitude (Debye)      :      0.072262719

Rotational constants in cm-1:             0.124941             0.038330             0.037235
Rotational constants in MHz :          3745.631945          1149.116847          1116.286936

                             ****ORCA TERMINATED NORMALLY****
TOTAL RUN TIME: 0 days 0 hours 0 minutes 30 seconds 592 msec
