                         Program Version 6.0.0  -   RELEASE  -
|  1> ! r2scan-3c def2/J RI DEFGRID2 scfconv6 printgap
|  2> %output
|  3>     printlevel normal
|  4> end
|  5> * xyz 0 1
|  6> C -2.5593751673 -0.5414126728 0.3449601041
|  7> C -1.8133387499 0.6977065108 -0.13849263
|  8> C -0.3851748095 0.4012939728 -0.5964072995
|  9> C 0.5279041946 -0.0359376037 0.5549793099
| 10> C 1.8933375039 -0.2040732949 0.1020581378
| 11> C 3.0143524885 -0.3362461089 -0.2964287755
| 12> H -2.550764269 -1.3131170479 -0.4218710947
| 13> H -3.5940823275 -0.2929543101 0.5690641492
| 14> H -2.1079111584 -0.9456982284 1.2471810866
| 15> H -2.35971171 1.1326070856 -0.978635272
| 16> H -1.7899550626 1.4428905157 0.6601614113
| 17> H -0.400488561 -0.3804370267 -1.3594256666
| 18> H 0.0358282687 1.3002876623 -1.0533516588
| 19> H 0.1820361428 -0.9838499443 0.9731069735
| 20> H 0.5093101483 0.718302233 1.3466996399
| 21> H 4.0001236656 -0.4555666806 -0.6334162318
| 22> *
| 23>
| 24>                          ****END OF INPUT****

CARTESIAN COORDINATES (ANGSTROEM)
---------------------------------
  C     -2.559375   -0.541413    0.344960
  C     -1.813339    0.697707   -0.138493
  C     -0.385175    0.401294   -0.596407
  C      0.527904   -0.035938    0.554979
  C      1.893338   -0.204073    0.102058
  C      3.014352   -0.336246   -0.296429
  H     -2.550764   -1.313117   -0.421871
  H     -3.594082   -0.292954    0.569064
  H     -2.107911   -0.945698    1.247181
  H     -2.359712    1.132607   -0.978635
  H     -1.789955    1.442891    0.660161
  H     -0.400489   -0.380437   -1.359426
  H      0.035828    1.300288   -1.053352
  H      0.182036   -0.983850    0.973107
  H      0.509310    0.718302    1.346700
  H      4.000124   -0.455567   -0.633416

 Total Charge           Charge          ....    0
 Multiplicity           Mult            ....    1
 Number of Electrons    NEL             ....   46
 Basis Dimension        Dim             ....  164

ORBITAL ENERGIES
----------------

  NO   OCC          E(Eh)            E(eV)
   0   2.0000     -10.055509      -273.6243
   1   2.0000     -10.035186      -273.0713
   2   2.0000     -10.031698      -272.9764
   3   2.0000     -10.029562      -272.9182
   4   2.0000     -10.021502      -272.6989
   5   2.0000     -10.015014      -272.5224
   6   2.0000      -0.786635       -21.4054
   7   2.0000      -0.734164       -19.9776
   8   2.0000      -0.681531       -18.5454
   9   2.0000      -0.625357       -17.0168
  10   2.0000      -0.548079       -14.9140
  11   2.0000      -0.498468       -13.5640
  12   2.0000      -0.445883       -12.1331
  13   2.0000      -0.445224       -12.1152
  14   2.0000      -0.410361       -11.1665
  15   2.0000      -0.382738       -10.4148
  16   2.0000      -0.372857       -10.1460
  17   2.0000      -0.349387        -9.5073
  18   2.0000      -0.312988        -8.5168
  19   2.0000      -0.306427        -8.3383
  20   2.0000      -0.304686        -8.2909
  21   2.0000      -0.243213        -6.6182
  22   2.0000      -0.241570        -6.5735
  23   0.0000       0.026131         0.7111
  24   0.0000       0.029205         0.7947
  25   0.0000       0.083320         2.2673
  26   0.0000       0.106810         2.9064
  27   0.0000       0.117599         3.2000

MULLIKEN ATOMIC CHARGES
-----------------------
   0 C :   -0.492412
   1 C :   -0.218205
   2 C :   -0.243279
   3 C :   -0.516741
   4 C :    0.096035
   5 C :   -0.140300
   6 H :    0.146358
   7 H :    0.149558
   8 H :    0.146849
   9 H :    0.146606
  10 H :    0.136063
  11 H :    0.147348
  12 H :    0.152397
  13 H :    0.166848
  14 H :    0.167023
  15 H :    0.155850
Sum of atomic charges:    0.0000000

LOEWDIN ATOMIC CHARGES
----------------------
   0 C :   -0.425888
   1 C :   -0.317255
   2 C :   -0.291135
   3 C :   -0.277774
   4 C :   -0.079408
   5 C :   -0.220621
   6 H :    0.151462
   7 H :    0.152317
   8 H :    0.148134
   9 H :    0.154977
  10 H :    0.151873
  11 H :    0.160449
  12 H :    0.162333
  13 H :    0.175911
  14 H :    0.175776
  15 H :    0.178849

  Mayer bond orders larger than 0.100000
B(  0-C ,  1-C ) :   0.8864 B(  0-C ,  6-H ) :   0.9784 B(  0-C ,  7-H ) :   0.9697
B(  0-C ,  8-H ) :   0.9840 B(  1-C ,  2-C ) :   0.8889 B(  1-C ,  9-H ) :   0.9699
B(  1-C , 10-H ) :   0.9916 B(  2-C ,  3-C ) :   0.9092 B(  2-C , 11-H ) :   0.9640
B(  2-C , 12-H ) :   0.9634 B(  3-C ,  4-C ) :   1.0676 B(  3-C , 13-H ) :   0.9714
B(  3-C , 14-H ) :   1.0055 B(  4-C ,  5-C ) :   2.5657 B(  5-C , 15-H ) :   1.0605

Dispersion correction           -0.003734785
FINAL SINGLE POINT ENERGY      -234.508592069951

DIPOLE MOMENT
-------------

Method             : SCF
Type of density    : Electron Density
Multiplicity       :   1
Irrep              :   0
Energy             :  -234.5108709832346960 Eh
Relativity type    :
Basis              : AO
                                X                 Y                 Z
Electronic contribution:      7.162726704      -0.126560280      -0.293808125
Nuclear contribution   :     -7.576317207       0.208709779       0.327903689
                        -----------------------------------------
Total Dipole Moment    :     -0.413590503       0.082149499       0.034095564
                        -----------------------------------------
Magnitude (a.u.)       :      0.423046276
Magnitude (Debye)      :      1.075298179

Rotational constants in cm-1:             0.404068             0.049651             0.047442
Rotational constants in MHz :         12113.668456          1488.504798          1422.272309

                             ****ORCA TERMINATED NORMALLY****
TOTAL RUN TIME: 0 days 0 hours 0 minutes 16 seconds 610 msec
