                         Program Version 6.0.0  -   RELEASE  -
|  1> ! r2scan-3c def2/J RI DEFGRID2 scfconv6 printgap
|  2> %output
|  3>     printlevel normal
|  4> end
|  5> %cpcm
|  6>     smd true
|  7>     smdsolvent "water"
|  8> end
|  9> * xyz 0 1
| 10> C -2.5593751673 -0.5414126728 0.3449601041
| 11> C -1.8133387499 0.6977065108 -0.13849263
| 12> C -0.3851748095 0.4012939728 -0.5964072995
| 13> C 0.5279041946 -0.0359376037 0.5549793099
| 14> C 1.8933375039 -0.2040732949 0.1020581378
| 15> C 3.0143524885 -0.3362461089 -0.2964287755
| 16> H -2.550764269 -1.3131170479 -0.4218710947
| 17> H -3.5940823275 -0.2929543101 0.5690641492
| 18> H -2.1079111584 -0.9456982284 1.2471810866
| 19> H -2.35971171 1.1326070856 -0.978635272
| 20> H -1.7899550626 1.4428905157 0.6601614113
| 21> H -0.400488561 -0.3804370267 -1.3594256666
| 22> H 0.0358282687 1.3002876623 -1.0533516588
| 23> H 0.1820361428 -0.9838499443 0.9731069735
| 24> H 0.5093101483 0.718302233 1.3466996399
| 25> H 4.0001236656 -0.4555666806 -0.6334162318
| 26> *
| 27>
| 28>                          ****END OF INPUT****

CARTESIAN COORDINATES (ANGSTROEM)
---------------------------------
  C     -2.559375   -0.541413    0.344960
  C     -1.813339    0.697707   -0.138493
  C     -0.385175    0.401294   -0.596407
  C      0.527904   -0.035938    0.554979
  C      1.893338   -0.204073    0.102058
  C      3.014352   -0.336246   -0.296429
  H     -2.550764   -1.313117   -0.421871
  H     -3.594082   -0.292954    0.569064
  H     -2.107911   -0.945698    1.247181
  H     -2.359712    1.132607   -0.978635
  H     -1.789955    1.442891    0.660161
  H     -0.400489   -0.380437   -1.359426
  H      0.035828    1.300288   -1.053352
  H      0.182036   -0.983850    0.973107
  H      0.509310    0.718302    1.346700
  H      4.000124   -0.455567   -0.633416

 Total Charge           Charge          ....    0
 Multiplicity           Mult            ....    1
 Number of Electrons    NEL             ....   46
 Basis Dimension        Dim             ....  164

ORBITAL ENERGIES
----------------

  NO   OCC          E(Eh)            E(eV)
   0   2.0000     -10.047070      -273.3947
   1   2.0000     -10.037227      -273.1268
   2   2.0000     -10.025868      -272.8177
   3   2.0000     -10.019566      -272.6462
   4   2.0000     -10.019457      -272.6433
   5   2.0000     -10.008311      -272.3400
   6   2.0000      -0.780026       -21.2256
   7   2.0000      -0.730670       -19.8825
   8   2.0000      -0.680655       -18.5216
   9   2.0000      -0.616875       -16.7860
  10   2.0000      -0.537594       -14.6287
  11   2.0000      -0.496463       -13.5094
  12   2.0000      -0.439937       -11.9713
  13   2.0000      -0.435460       -11.8495
  14   2.0000      -0.400126       -10.8880
  15   2.0000      -0.372933       -10.1480
  16   2.0000      -0.363278        -9.8853
  17   2.0000      -0.339316        -9.2333
  18   2.0000      -0.303056        -8.2466
  19   2.0000      -0.294995        -8.0272
  20   2.0000      -0.293576        -7.9886
  21   2.0000      -0.251087        -6.8324
  22   2.0000      -0.248617        -6.7652
  23   0.0000       0.021729         0.5913
  24   0.0000       0.025004         0.6804
  25   0.0000       0.090576         2.4647
  26   0.0000       0.112293         3.0556
  27   0.0000       0.128900         3.5076

MULLIKEN ATOMIC CHARGES
-----------------------
   0 C :   -0.528382
   1 C :   -0.235822
   2 C :   -0.255555
   3 C :   -0.509393
   4 C :    0.015096
   5 C :   -0.169157
   6 H :    0.155512
   7 H :    0.158364
   8 H :    0.160599
   9 H :    0.155715
  10 H :    0.148657
  11 H :    0.158007
  12 H :    0.159294
  13 H :    0.191879
  14 H :    0.192317
  15 H :    0.202868
Sum of atomic charges:    0.0000000

LOEWDIN ATOMIC CHARGES
----------------------
   0 C :   -0.433366
   1 C :   -0.316852
   2 C :   -0.292597
   3 C :   -0.278519
   4 C :   -0.092647
   5 C :   -0.253456
   6 H :    0.153576
   7 H :    0.153848
   8 H :    0.152397
   9 H :    0.157459
  10 H :    0.155748
  11 H :    0.162512
  12 H :    0.163202
  13 H :    0.186266
  14 H :    0.186362
  15 H :    0.196068

  Mayer bond orders larger than 0.100000
B(  0-C ,  1-C ) :   0.8831 B(  0-C ,  6-H ) :   0.9761 B(  0-C ,  7-H ) :   0.9684
B(  0-C ,  8-H ) :   0.9795 B(  1-C ,  2-C ) :   0.8894 B(  1-C ,  9-H ) :   0.9707
B(  1-C , 10-H ) :   0.9917 B(  2-C ,  3-C ) :   0.8968 B(  2-C , 11-H ) :   0.9638
B(  2-C , 12-H ) :   0.9653 B(  3-C ,  4-C ) :   1.0609 B(  3-C , 13-H ) :   0.9632
B(  3-C , 14-H ) :   0.9928 B(  4-C ,  5-C ) :   2.5162 B(  4-C , 15-H ) :  -0.1018
B(  5-C , 15-H ) :   1.0607

Dispersion correction           -0.003734785
FINAL SINGLE POINT ENERGY      -234.509492085190

DIPOLE MOMENT
-------------

Method             : SCF
Type of density    : Electron Density
Multiplicity       :   1
Irrep              :   0
Energy             :  -234.5117709984735654 Eh
Relativity type    :
Basis              : AO
                                X                 Y                 Z
Electronic contribution:      7.023298547      -0.105494988      -0.225530193
Nuclear contribution   :     -7.576317207       0.208709779       0.327903689
                        -----------------------------------------
Total Dipole Moment    :     -0.553018660       0.103214790       0.102373496
                        -----------------------------------------
Magnitude (a.u.)       :      0.571807016
Magnitude (Debye)      :      1.453417931

Rotational constants in cm-1:             0.404068             0.049651             0.047442
Rotational constants in MHz :         12113.668456          1488.504798          1422.272309

                             ****ORCA TERMINATED NORMALLY****
TOTAL RUN TIME: 0 days 0 hours 0 minutes 19 seconds 557 msec
