                         Program Version 6.0.0  -   RELEASE  -
|  1> ! r2scan-3c def2/J RI DEFGRID2 scfconv6 printgap
|  2> %output
|  3>     printlevel normal
|  4> end
|  5> * xyz 0 1
|  6> C -2.8498008582 -2.2603207479 1.311501767
|  7> C -3.3709468132 -0.8966068124 0.8728934363
|  8> C -2.7790641187 -0.3299810827 -0.4276115717
|  9> H -3.4088910502 0.5226500555 -0.7085055352
| 10> C -2.7714698183 -1.3098405963 -1.5926500658
| 11> N -1.4537222443 0.2897416168 -0.1963164897
| 12> C -0.2790976764 -0.4621335502 -0.1846299967
| 13> O -0.2687294827 -1.6734355585 -0.2990442532
| 14> C 0.9320341372 0.3167238435 -0.0207653928
| 15> C 0.9365231653 1.6583843151 0.1726951364
| 16> N -0.2767880485 2.2752281581 0.2025664976
| 17> C -1.4839778124 1.6486016987 0.0317753072
| 18> O -2.515579284 2.2974967013 0.0791248571
| 19> C 2.1558569393 2.482745062 0.3604143884
| 20> Br 2.5486601491 -0.6800700333 -0.0597894606
| 21> H -3.2685065841 -2.5121724343 2.2827118115
| 22> H -3.1428195432 -3.0299098219 0.6035977596
| 23> H -1.7667281478 -2.2690316245 1.3912215519
| 24> H -4.4504009193 -0.965513403 0.7283088208
| 25> H -3.1958511618 -0.1621814862 1.6635108231
| 26> H -2.402761452 -0.8192209092 -2.4908732269
| 27> H -2.1481832502 -2.1736067933 -1.3882923101
| 28> H -3.79118412 -1.6388309933 -1.768965939
| 29> H -0.3292031436 3.2765311234 0.3627551873
| 30> H 2.8511777993 2.3097278423 -0.45914856
| 31> H 2.6659473894 2.1861263145 1.2758808589
| 32> H 1.9109593797 3.5379195796 0.4119732852
| 33> *
| 34>
| 35>                          ****END OF INPUT****

CARTESIAN COORDINATES (ANGSTROEM)
---------------------------------
  C     -2.849801   -2.260321    1.311502
  C     -3.370947   -0.896607    0.872893
  C     -2.779064   -0.329981   -0.427612
  H     -3.408891    0.522650   -0.708506
  C     -2.771470   -1.309841   -1.592650
  N     -1.453722    0.289742   -0.196316
  C     -0.279098   -0.462134   -0.184630
  O     -0.268729   -1.673436   -0.299044
  C      0.932034    0.316724   -0.020765
  C      0.936523    1.658384    0.172695
  N     -0.276788    2.275228    0.202566
  C     -1.483978    1.648602    0.031775
  O     -2.515579    2.297497    0.079125
  C      2.155857    2.482745    0.360414
  Br     2.548660   -0.680070   -0.059789
  H     -3.268507   -2.512172    2.282712
  H     -3.142820   -3.029910    0.603598
  H     -1.766728   -2.269032    1.391222
  H     -4.450401   -0.965513    0.728309
  H     -3.195851   -0.162181    1.663511
  H     -2.402761   -0.819221   -2.490873
  H     -2.148183   -2.173607   -1.388292
  H     -3.791184   -1.638831   -1.768966
  H     -0.329203    3.276531    0.362755
  H      2.851178    2.309728   -0.459149
  H      2.665947    2.186126    1.275881
  H      1.910959    3.537920    0.411973

 Total Charge           Charge          ....    0
 Multiplicity           Mult            ....    1
 Number of Electrons    NEL             ....  132
 Basis Dimension        Dim             ....  368

ORBITAL ENERGIES
----------------

  NO   OCC          E(Eh)            E(eV)
   0   2.0000    -482.235480    -13122.2945
   1   2.0000     -62.306701     -1695.4515
   2   2.0000     -56.087289     -1526.2127
   3   2.0000     -56.084509     -1526.1371
   4   2.0000     -56.084305     -1526.1315
   5   2.0000     -18.933151      -515.1972
   6   2.0000     -18.926445      -515.0148
   7   2.0000     -14.241722      -387.5370
   8   2.0000     -14.228656      -387.1814
   9   2.0000     -10.182428      -277.0779
  10   2.0000     -10.152687      -276.2687
  11   2.0000     -10.130076      -275.6534
  12   2.0000     -10.098167      -274.7851
  13   2.0000     -10.078407      -274.2474
  14   2.0000     -10.070466      -274.0313
  15   2.0000     -10.029781      -272.9242
  16   2.0000     -10.016728      -272.5690
  17   2.0000     -10.007431      -272.3160
  18   2.0000      -8.638527      -235.0663
  19   2.0000      -6.446652      -175.4223
  20   2.0000      -6.432342      -175.0329
  21   2.0000      -6.431496      -175.0099
  22   2.0000      -2.544095       -69.2284
  23   2.0000      -2.540586       -69.1329
  24   2.0000      -2.540001       -69.1169
  25   2.0000      -2.529349       -68.8271
  26   2.0000      -2.529326       -68.8265
  27   2.0000      -1.054369       -28.6908
  28   2.0000      -1.015734       -27.6395
  29   2.0000      -0.959073       -26.0977
  30   2.0000      -0.918933       -25.0054
  31   2.0000      -0.815082       -22.1795
  32   2.0000      -0.773642       -21.0519
  33   2.0000      -0.749722       -20.4010
  34   2.0000      -0.706651       -19.2289
  35   2.0000      -0.690610       -18.7925
  36   2.0000      -0.641722       -17.4621
  37   2.0000      -0.639159       -17.3924
  38   2.0000      -0.605803       -16.4847
  39   2.0000      -0.558968       -15.2103
  40   2.0000      -0.553617       -15.0647
  41   2.0000      -0.515620       -14.0307
  42   2.0000      -0.474146       -12.9022
  43   2.0000      -0.453184       -12.3318
  44   2.0000      -0.438342       -11.9279
  45   2.0000      -0.436220       -11.8701
  46   2.0000      -0.423472       -11.5233
  47   2.0000      -0.411578       -11.1996
  48   2.0000      -0.409906       -11.1541
  49   2.0000      -0.404122       -10.9967
  50   2.0000      -0.394481       -10.7344
  51   2.0000      -0.381734       -10.3875
  52   2.0000      -0.378071       -10.2878
  53   2.0000      -0.367372        -9.9967
  54   2.0000      -0.355551        -9.6750
  55   2.0000      -0.346665        -9.4332
  56   2.0000      -0.337297        -9.1783
  57   2.0000      -0.312143        -8.4938
  58   2.0000      -0.304308        -8.2806
  59   2.0000      -0.302039        -8.2189
  60   2.0000      -0.292580        -7.9615
  61   2.0000      -0.269661        -7.3379
  62   2.0000      -0.257474        -7.0062
  63   2.0000      -0.250399        -6.8137
  64   2.0000      -0.233134        -6.3439
  65   2.0000      -0.217990        -5.9318
  66   0.0000      -0.072890        -1.9834
  67   0.0000      -0.032680        -0.8893
  68   0.0000      -0.025660        -0.6982
  69   0.0000       0.038088         1.0364
  70   0.0000       0.065278         1.7763

MULLIKEN ATOMIC CHARGES
-----------------------
   0 C :   -0.479478
   1 C :   -0.328571
   2 C :   -0.030476
   3 H :    0.205318
   4 C :   -0.526956
   5 N :    0.172030
   6 C :    0.206622
   7 O :   -0.432879
   8 C :   -0.135074
   9 C :    0.161710
  10 N :   -0.036159
  11 C :    0.247351
  12 O :   -0.457317
  13 C :   -0.582644
  14 Br:   -0.078301
  15 H :    0.142116
  16 H :    0.149915
  17 H :    0.181975
  18 H :    0.150182
  19 H :    0.150841
  20 H :    0.149892
  21 H :    0.208198
  22 H :    0.154046
  23 H :    0.276027
  24 H :    0.191046
  25 H :    0.195197
  26 H :    0.145390
Sum of atomic charges:    0.0000000

LOEWDIN ATOMIC CHARGES
----------------------
   0 C :   -0.414750
   1 C :   -0.264953
   2 C :    0.043206
   3 H :    0.222968
   4 C :   -0.366767
   5 N :   -0.617139
   6 C :    0.356657
   7 O :   -0.483841
   8 C :   -0.196181
   9 C :    0.152414
  10 N :   -0.516998
  11 C :    0.458053
  12 O :   -0.424790
  13 C :   -0.351524
  14 Br:    0.262969
  15 H :    0.148538
  16 H :    0.153969
  17 H :    0.173218
  18 H :    0.160379
  19 H :    0.165529
  20 H :    0.160735
  21 H :    0.186484
  22 H :    0.159327
  23 H :    0.298647
  24 H :    0.185075
  25 H :    0.185272
  26 H :    0.163502

  Mayer bond orders larger than 0.100000
B(  0-C ,  1-C ) :   0.9019 B(  0-C , 15-H ) :   0.9695 B(  0-C , 16-H ) :   0.9743
B(  0-C , 17-H ) :   0.9702 B(  1-C ,  2-C ) :   0.8729 B(  1-C , 18-H ) :   0.9752
B(  1-C , 19-H ) :   0.9864 B(  2-C ,  3-H ) :   0.9546 B(  2-C ,  4-C ) :   0.8462
B(  2-C ,  5-N ) :   0.8536 B(  4-C , 20-H ) :   0.9728 B(  4-C , 21-H ) :   0.9675
B(  4-C , 22-H ) :   0.9688 B(  5-N ,  6-C ) :   1.1049 B(  5-N , 11-C ) :   1.1188
B(  6-C ,  7-O ) :   1.8864 B(  6-C ,  8-C ) :   0.9932 B(  6-C , 14-Br) :  -0.1007
B(  8-C ,  9-C ) :   1.4799 B(  8-C , 14-Br) :   1.1852 B(  9-C , 10-N ) :   1.1515
B(  9-C , 13-C ) :   0.8634 B( 10-N , 11-C ) :   1.0523 B( 10-N , 23-H ) :   0.9046
B( 11-C , 12-O ) :   1.8934 B( 13-C , 24-H ) :   0.9495 B( 13-C , 25-H ) :   0.9470
B( 13-C , 26-H ) :   0.9929

Dispersion correction           -0.011472366
FINAL SINGLE POINT ENERGY     -3184.781292342384

DIPOLE MOMENT
-------------

Method             : SCF
Type of density    : Electron Density
Multiplicity       :   1
Irrep              :   0
Energy             : -3184.7914088049992642 Eh
Relativity type    :
Basis              : AO
                                X                 Y                 Z
Electronic contribution:     43.517435328      -3.306902827      -2.156101048
Nuclear contribution   :    -42.925413908       4.707679111       2.338373130
                        -----------------------------------------
Total Dipole Moment    :      0.592021420       1.400776284       0.182272081
                        -----------------------------------------
Magnitude (a.u.)       :      1.531628764
Magnitude (Debye)      :      3.893090929

Rotational constants in cm-1:             0.026757             0.012217             0.009231
Rotational constants in MHz :           802.152301           366.262327           276.730467

                             ****ORCA TERMINATED NORMALLY****
TOTAL RUN TIME: 0 days 0 hours 1 minutes 15 seconds 365 msec
