                         Program Version 6.0.0  -   RELEASE  -
|  1> ! r2scan-3c def2/J RI DEFGRID2 scfconv6 printgap
|  2> %output
|  3>     printlevel normal
|  4> end
|  5> %cpcm
|  6>     smd true
|  7>     smdsolvent "water"
|  8> end
|  9> * xyz 0 1
| 10> C -2.8498008582 -2.2603207479 1.311501767
| 11> C -3.3709468132 -0.8966068124 0.8728934363
| 12> C -2.7790641187 -0.3299810827 -0.4276115717
| 13> H -3.4088910502 0.5226500555 -0.7085055352
| 14> C -2.7714698183 -1.3098405963 -1.5926500658
| 15> N -1.4537222443 0.2897416168 -0.1963164897
| 16> C -0.2790976764 -0.4621335502 -0.1846299967
| 17> O -0.2687294827 -1.6734355585 -0.2990442532
| 18> C 0.9320341372 0.3167238435 -0.0207653928
| 19> C 0.9365231653 1.6583843151 0.1726951364
| 20> N -0.2767880485 2.2752281581 0.2025664976
| 21> C -1.4839778124 1.6486016987 0.0317753072
| 22> O -2.515579284 2.2974967013 0.0791248571
| 23> C 2.1558569393 2.482745062 0.3604143884
| 24> Br 2.5486601491 -0.6800700333 -0.0597894606
| 25> H -3.2685065841 -2.5121724343 2.2827118115
| 26> H -3.1428195432 -3.0299098219 0.6035977596
| 27> H -1.7667281478 -2.2690316245 1.3912215519
| 28> H -4.4504009193 -0.965513403 0.7283088208
| 29> H -3.1958511618 -0.1621814862 1.6635108231
| 30> H -2.402761452 -0.8192209092 -2.4908732269
| 31> H -2.1481832502 -2.1736067933 -1.3882923101
| 32> H -3.79118412 -1.6388309933 -1.768965939
| 33> H -0.3292031436 3.2765311234 0.3627551873
| 34> H 2.8511777993 2.3097278423 -0.45914856
| 35> H 2.6659473894 2.1861263145 1.2758808589
| 36> H 1.9109593797 3.5379195796 0.4119732852
| 37> *
| 38>
| 39>                          ****END OF INPUT****

CARTESIAN COORDINATES (ANGSTROEM)
---------------------------------
  C     -2.849801   -2.260321    1.311502
  C     -3.370947   -0.896607    0.872893
  C     -2.779064   -0.329981   -0.427612
  H     -3.408891    0.522650   -0.708506
  C     -2.771470   -1.309841   -1.592650
  N     -1.453722    0.289742   -0.196316
  C     -0.279098   -0.462134   -0.184630
  O     -0.268729   -1.673436   -0.299044
  C      0.932034    0.316724   -0.020765
  C      0.936523    1.658384    0.172695
  N     -0.276788    2.275228    0.202566
  C     -1.483978    1.648602    0.031775
  O     -2.515579    2.297497    0.079125
  C      2.155857    2.482745    0.360414
  Br     2.548660   -0.680070   -0.059789
  H     -3.268507   -2.512172    2.282712
  H     -3.142820   -3.029910    0.603598
  H     -1.766728   -2.269032    1.391222
  H     -4.450401   -0.965513    0.728309
  H     -3.195851   -0.162181    1.663511
  H     -2.402761   -0.819221   -2.490873
  H     -2.148183   -2.173607   -1.388292
  H     -3.791184   -1.638831   -1.768966
  H     -0.329203    3.276531    0.362755
  H      2.851178    2.309728   -0.459149
  H      2.665947    2.186126    1.275881
  H      1.910959    3.537920    0.411973

 Total Charge           Charge          ....    0
 Multiplicity           Mult            ....    1
 Number of Electrons    NEL             ....  132
 Basis Dimension        Dim             ....  368

ORBITAL ENERGIES
----------------

  NO   OCC          E(Eh)            E(eV)
   0   2.0000    -482.233887    -13122.2512
   1   2.0000     -62.305171     -1695.4099
   2   2.0000     -56.085719     -1526.1700
   3   2.0000     -56.082992     -1526.0958
   4   2.0000     -56.082796     -1526.0905
   5   2.0000     -18.938933      -515.3546
   6   2.0000     -18.931720      -515.1583
   7   2.0000     -14.228619      -387.1804
   8   2.0000     -14.227972      -387.1628
   9   2.0000     -10.183401      -277.1044
  10   2.0000     -10.155469      -276.3444
  11   2.0000     -10.120171      -275.3839
  12   2.0000     -10.091253      -274.5969
  13   2.0000     -10.075167      -274.1592
  14   2.0000     -10.041302      -273.2377
  15   2.0000     -10.025074      -272.7961
  16   2.0000     -10.012723      -272.4600
  17   2.0000     -10.006977      -272.3037
  18   2.0000      -8.637054      -235.0262
  19   2.0000      -6.444980      -175.3768
  20   2.0000      -6.430963      -174.9954
  21   2.0000      -6.430143      -174.9731
  22   2.0000      -2.542487       -69.1846
  23   2.0000      -2.539043       -69.0909
  24   2.0000      -2.538475       -69.0754
  25   2.0000      -2.528035       -68.7913
  26   2.0000      -2.528016       -68.7908
  27   2.0000      -1.055117       -28.7112
  28   2.0000      -1.021614       -27.7995
  29   2.0000      -0.952538       -25.9199
  30   2.0000      -0.916319       -24.9343
  31   2.0000      -0.808061       -21.9885
  32   2.0000      -0.767519       -20.8853
  33   2.0000      -0.738276       -20.0895
  34   2.0000      -0.700293       -19.0560
  35   2.0000      -0.683888       -18.6096
  36   2.0000      -0.636353       -17.3161
  37   2.0000      -0.630049       -17.1445
  38   2.0000      -0.600739       -16.3469
  39   2.0000      -0.552814       -15.0428
  40   2.0000      -0.547322       -14.8934
  41   2.0000      -0.504191       -13.7197
  42   2.0000      -0.468124       -12.7383
  43   2.0000      -0.447938       -12.1890
  44   2.0000      -0.438873       -11.9424
  45   2.0000      -0.429241       -11.6802
  46   2.0000      -0.415936       -11.3182
  47   2.0000      -0.410662       -11.1747
  48   2.0000      -0.399530       -10.8718
  49   2.0000      -0.396059       -10.7773
  50   2.0000      -0.385083       -10.4787
  51   2.0000      -0.376790       -10.2530
  52   2.0000      -0.372782       -10.1439
  53   2.0000      -0.363716        -9.8972
  54   2.0000      -0.352694        -9.5973
  55   2.0000      -0.344629        -9.3778
  56   2.0000      -0.327289        -8.9060
  57   2.0000      -0.311626        -8.4798
  58   2.0000      -0.303256        -8.2520
  59   2.0000      -0.299350        -8.1457
  60   2.0000      -0.291922        -7.9436
  61   2.0000      -0.269440        -7.3318
  62   2.0000      -0.262744        -7.1496
  63   2.0000      -0.253337        -6.8937
  64   2.0000      -0.239657        -6.5214
  65   2.0000      -0.213943        -5.8217
  66   0.0000      -0.065284        -1.7765
  67   0.0000      -0.028701        -0.7810
  68   0.0000      -0.025588        -0.6963
  69   0.0000       0.055640         1.5141
  70   0.0000       0.076943         2.0937

MULLIKEN ATOMIC CHARGES
-----------------------
   0 C :   -0.535615
   1 C :   -0.318800
   2 C :   -0.021498
   3 H :    0.208188
   4 C :   -0.565375
   5 N :    0.197037
   6 C :    0.194872
   7 O :   -0.492810
   8 C :   -0.141537
   9 C :    0.206068
  10 N :   -0.045103
  11 C :    0.277094
  12 O :   -0.537955
  13 C :   -0.615769
  14 Br:   -0.109793
  15 H :    0.157229
  16 H :    0.165864
  17 H :    0.174933
  18 H :    0.168787
  19 H :    0.160277
  20 H :    0.171114
  21 H :    0.192724
  22 H :    0.175015
  23 H :    0.336323
  24 H :    0.198643
  25 H :    0.209133
  26 H :    0.190956
Sum of atomic charges:    0.0000000

LOEWDIN ATOMIC CHARGES
----------------------
   0 C :   -0.423238
   1 C :   -0.265407
   2 C :    0.045905
   3 H :    0.223898
   4 C :   -0.370700
   5 N :   -0.605399
   6 C :    0.357954
   7 O :   -0.541685
   8 C :   -0.204134
   9 C :    0.177531
  10 N :   -0.478139
  11 C :    0.465839
  12 O :   -0.482416
  13 C :   -0.347060
  14 Br:    0.243308
  15 H :    0.153188
  16 H :    0.156211
  17 H :    0.167849
  18 H :    0.166768
  19 H :    0.168366
  20 H :    0.165974
  21 H :    0.179353
  22 H :    0.166696
  23 H :    0.317630
  24 H :    0.188299
  25 H :    0.191009
  26 H :    0.182400

  Mayer bond orders larger than 0.100000
B(  0-C ,  1-C ) :   0.8822 B(  0-C , 15-H ) :   0.9661 B(  0-C , 16-H ) :   0.9744
B(  0-C , 17-H ) :   0.9747 B(  1-C ,  2-C ) :   0.8736 B(  1-C , 18-H ) :   0.9729
B(  1-C , 19-H ) :   0.9830 B(  2-C ,  3-H ) :   0.9507 B(  2-C ,  4-C ) :   0.8389
B(  2-C ,  5-N ) :   0.8430 B(  4-C , 20-H ) :   0.9726 B(  4-C , 21-H ) :   0.9705
B(  4-C , 22-H ) :   0.9640 B(  5-N ,  6-C ) :   1.1085 B(  5-N , 11-C ) :   1.1321
B(  6-C ,  7-O ) :   1.8529 B(  6-C ,  8-C ) :   1.0091 B(  8-C ,  9-C ) :   1.4560
B(  8-C , 14-Br) :   1.1287 B(  9-C , 10-N ) :   1.1585 B(  9-C , 13-C ) :   0.8358
B( 10-N , 11-C ) :   1.0778 B( 10-N , 23-H ) :   0.8796 B( 11-C , 12-O ) :   1.8273
B( 13-C , 24-H ) :   0.9465 B( 13-C , 25-H ) :   0.9413 B( 13-C , 26-H ) :   0.9827

Dispersion correction           -0.011472366
FINAL SINGLE POINT ENERGY     -3184.797893714677

DIPOLE MOMENT
-------------

Method             : SCF
Type of density    : Electron Density
Multiplicity       :   1
Irrep              :   0
Energy             : -3184.8080101772925445 Eh
Relativity type    :
Basis              : AO
                                X                 Y                 Z
Electronic contribution:     43.729542281      -2.511656232      -2.053581412
Nuclear contribution   :    -42.925413908       4.707679111       2.338373130
                        -----------------------------------------
Total Dipole Moment    :      0.804128373       2.196022879       0.284791717
                        -----------------------------------------
Magnitude (a.u.)       :      2.355895848
Magnitude (Debye)      :      5.988211356

Rotational constants in cm-1:             0.026757             0.012217             0.009231
Rotational constants in MHz :           802.152301           366.262327           276.730467

                             ****ORCA TERMINATED NORMALLY****
TOTAL RUN TIME: 0 days 0 hours 1 minutes 34 seconds 947 msec
