                         Program Version 6.0.0  -   RELEASE  -
|  1> ! r2scan-3c def2/J RI DEFGRID2 scfconv6 printgap
|  2> %output
|  3>     printlevel normal
|  4> end
|  5> * xyz 0 1
|  6> C 1.5011908007 -1.4393017342 -0.0558793338
|  7> C 1.1963733732 -0.0304645006 0.4508178994
|  8> C 1.7373865986 1.0156233883 -0.5225856081
|  9> C -0.296246068 0.1687153012 0.7433526843
| 10> C -1.2236335806 0.0318569318 -0.4615794672
| 11> O -2.5513139033 0.2450944925 -0.0116250726
| 12> H 2.5765175646 -1.5921195113 -0.1079008927
| 13> H 1.0902218188 -1.5910311521 -1.0506768254
| 14> H 1.0799989429 -2.1863982044 0.6123502334
| 15> H 1.7150472322 0.1014902741 1.4076458021
| 16> H 1.3300112191 0.8654794542 -1.5191005633
| 17> H 2.820368943 0.9409891384 -0.5857891689
| 18> H 1.481107951 2.0182277855 -0.1891473951
| 19> H -0.4527178906 1.1625834813 1.1685009679
| 20> H -0.6188324941 -0.5581095763 1.4921267369
| 21> H -0.9661280771 0.7761014088 -1.2251909705
| 22> H -1.1353761171 -0.9712792701 -0.8966426036
| 23> H -3.1591590704 0.1652020141 -0.7583385296
| 24> *
| 25>
| 26>                          ****END OF INPUT****

CARTESIAN COORDINATES (ANGSTROEM)
---------------------------------
  C      1.501191   -1.439302   -0.055879
  C      1.196373   -0.030465    0.450818
  C      1.737387    1.015623   -0.522586
  C     -0.296246    0.168715    0.743353
  C     -1.223634    0.031857   -0.461579
  O     -2.551314    0.245094   -0.011625
  H      2.576518   -1.592120   -0.107901
  H      1.090222   -1.591031   -1.050677
  H      1.079999   -2.186398    0.612350
  H      1.715047    0.101490    1.407646
  H      1.330011    0.865479   -1.519101
  H      2.820369    0.940989   -0.585789
  H      1.481108    2.018228   -0.189147
  H     -0.452718    1.162583    1.168501
  H     -0.618832   -0.558110    1.492127
  H     -0.966128    0.776101   -1.225191
  H     -1.135376   -0.971279   -0.896643
  H     -3.159159    0.165202   -0.758339

 Total Charge           Charge          ....    0
 Multiplicity           Mult            ....    1
 Number of Electrons    NEL             ....   50
 Basis Dimension        Dim             ....  179

ORBITAL ENERGIES
----------------

  NO   OCC          E(Eh)            E(eV)
   0   2.0000     -18.944828      -515.5150
   1   2.0000     -10.071962      -274.0720
   2   2.0000     -10.035819      -273.0885
   3   2.0000     -10.020525      -272.6723
   4   2.0000     -10.015985      -272.5488
   5   2.0000     -10.015963      -272.5482
   6   2.0000      -0.980149       -26.6712
   7   2.0000      -0.777363       -21.1531
   8   2.0000      -0.689258       -18.7557
   9   2.0000      -0.651232       -17.7209
  10   2.0000      -0.594726       -16.1833
  11   2.0000      -0.513792       -13.9810
  12   2.0000      -0.480838       -13.0843
  13   2.0000      -0.437411       -11.9025
  14   2.0000      -0.423824       -11.5329
  15   2.0000      -0.398096       -10.8327
  16   2.0000      -0.381482       -10.3806
  17   2.0000      -0.362727        -9.8703
  18   2.0000      -0.350844        -9.5469
  19   2.0000      -0.324396        -8.8273
  20   2.0000      -0.315205        -8.5772
  21   2.0000      -0.295729        -8.0472
  22   2.0000      -0.293860        -7.9963
  23   2.0000      -0.276063        -7.5120
  24   2.0000      -0.233433        -6.3520
  25   0.0000       0.058627         1.5953
  26   0.0000       0.078313         2.1310
  27   0.0000       0.118411         3.2221
  28   0.0000       0.125537         3.4160
  29   0.0000       0.129629         3.5274

MULLIKEN ATOMIC CHARGES
-----------------------
   0 C :   -0.504715
   1 C :   -0.026175
   2 C :   -0.504878
   3 C :   -0.238989
   4 C :   -0.185205
   5 O :   -0.427832
   6 H :    0.145869
   7 H :    0.150502
   8 H :    0.149489
   9 H :    0.146308
  10 H :    0.150483
  11 H :    0.145938
  12 H :    0.149533
  13 H :    0.151041
  14 H :    0.150885
  15 H :    0.129191
  16 H :    0.129184
  17 H :    0.289371
Sum of atomic charges:    0.0000000

LOEWDIN ATOMIC CHARGES
----------------------
   0 C :   -0.419080
   1 C :   -0.245968
   2 C :   -0.419133
   3 C :   -0.276802
   4 C :    0.007335
   5 O :   -0.628704
   6 H :    0.153448
   7 H :    0.150930
   8 H :    0.155056
   9 H :    0.156905
  10 H :    0.150950
  11 H :    0.153448
  12 H :    0.155065
  13 H :    0.164899
  14 H :    0.164893
  15 H :    0.155878
  16 H :    0.155842
  17 H :    0.265038

  Mayer bond orders larger than 0.100000
B(  0-C ,  1-C ) :   0.9125 B(  0-C ,  6-H ) :   0.9698 B(  0-C ,  7-H ) :   0.9830
B(  0-C ,  8-H ) :   0.9728 B(  1-C ,  2-C ) :   0.9119 B(  1-C ,  3-C ) :   0.8988
B(  1-C ,  9-H ) :   0.9589 B(  2-C , 10-H ) :   0.9829 B(  2-C , 11-H ) :   0.9697
B(  2-C , 12-H ) :   0.9728 B(  3-C ,  4-C ) :   0.9091 B(  3-C , 13-H ) :   0.9721
B(  3-C , 14-H ) :   0.9722 B(  4-C ,  5-O ) :   0.9300 B(  4-C , 15-H ) :   0.9669
B(  4-C , 16-H ) :   0.9671 B(  5-O , 17-H ) :   0.9022

Dispersion correction           -0.004365176
FINAL SINGLE POINT ENERGY      -272.896653382867

DIPOLE MOMENT
-------------

Method             : SCF
Type of density    : Electron Density
Multiplicity       :   1
Irrep              :   0
Energy             :  -272.9021439515335032 Eh
Relativity type    :
Basis              : AO
                                X                 Y                 Z
Electronic contribution:     -5.167017908       0.701495741       1.062022988
Nuclear contribution   :      5.366954322      -0.811499438      -1.550171951
                        -----------------------------------------
Total Dipole Moment    :      0.199936414      -0.110003697      -0.488148963
                        -----------------------------------------
Magnitude (a.u.)       :      0.538855076
Magnitude (Debye)      :      1.369660754

Rotational constants in cm-1:             0.201865             0.062671             0.056336
Rotational constants in MHz :          6051.773367          1878.818060          1688.908192

                             ****ORCA TERMINATED NORMALLY****
TOTAL RUN TIME: 0 days 0 hours 0 minutes 23 seconds 485 msec
