                         Program Version 6.0.0  -   RELEASE  -
|  1> ! r2scan-3c def2/J RI DEFGRID2 scfconv6 printgap
|  2> %output
|  3>     printlevel normal
|  4> end
|  5> %cpcm
|  6>     smd true
|  7>     smdsolvent "water"
|  8> end
|  9> * xyz 0 1
| 10> C 1.5011908007 -1.4393017342 -0.0558793338
| 11> C 1.1963733732 -0.0304645006 0.4508178994
| 12> C 1.7373865986 1.0156233883 -0.5225856081
| 13> C -0.296246068 0.1687153012 0.7433526843
| 14> C -1.2236335806 0.0318569318 -0.4615794672
| 15> O -2.5513139033 0.2450944925 -0.0116250726
| 16> H 2.5765175646 -1.5921195113 -0.1079008927
| 17> H 1.0902218188 -1.5910311521 -1.0506768254
| 18> H 1.0799989429 -2.1863982044 0.6123502334
| 19> H 1.7150472322 0.1014902741 1.4076458021
| 20> H 1.3300112191 0.8654794542 -1.5191005633
| 21> H 2.820368943 0.9409891384 -0.5857891689
| 22> H 1.481107951 2.0182277855 -0.1891473951
| 23> H -0.4527178906 1.1625834813 1.1685009679
| 24> H -0.6188324941 -0.5581095763 1.4921267369
| 25> H -0.9661280771 0.7761014088 -1.2251909705
| 26> H -1.1353761171 -0.9712792701 -0.8966426036
| 27> H -3.1591590704 0.1652020141 -0.7583385296
| 28> *
| 29>
| 30>                          ****END OF INPUT****

CARTESIAN COORDINATES (ANGSTROEM)
---------------------------------
  C      1.501191   -1.439302   -0.055879
  C      1.196373   -0.030465    0.450818
  C      1.737387    1.015623   -0.522586
  C     -0.296246    0.168715    0.743353
  C     -1.223634    0.031857   -0.461579
  O     -2.551314    0.245094   -0.011625
  H      2.576518   -1.592120   -0.107901
  H      1.090222   -1.591031   -1.050677
  H      1.079999   -2.186398    0.612350
  H      1.715047    0.101490    1.407646
  H      1.330011    0.865479   -1.519101
  H      2.820369    0.940989   -0.585789
  H      1.481108    2.018228   -0.189147
  H     -0.452718    1.162583    1.168501
  H     -0.618832   -0.558110    1.492127
  H     -0.966128    0.776101   -1.225191
  H     -1.135376   -0.971279   -0.896643
  H     -3.159159    0.165202   -0.758339

 Total Charge           Charge          ....    0
 Multiplicity           Mult            ....    1
 Number of Electrons    NEL             ....   50
 Basis Dimension        Dim             ....  179

ORBITAL ENERGIES
----------------

  NO   OCC          E(Eh)            E(eV)
   0   2.0000     -18.948988      -515.6282
   1   2.0000     -10.065949      -273.9084
   2   2.0000     -10.027875      -272.8723
   3   2.0000     -10.015809      -272.5440
   4   2.0000     -10.006269      -272.2844
   5   2.0000     -10.006247      -272.2838
   6   2.0000      -0.983102       -26.7516
   7   2.0000      -0.769796       -20.9472
   8   2.0000      -0.683899       -18.6098
   9   2.0000      -0.642213       -17.4755
  10   2.0000      -0.588765       -16.0211
  11   2.0000      -0.507449       -13.8084
  12   2.0000      -0.477817       -13.0021
  13   2.0000      -0.432915       -11.7802
  14   2.0000      -0.416471       -11.3327
  15   2.0000      -0.390148       -10.6165
  16   2.0000      -0.374097       -10.1797
  17   2.0000      -0.361451        -9.8356
  18   2.0000      -0.341603        -9.2955
  19   2.0000      -0.317712        -8.6454
  20   2.0000      -0.314049        -8.5457
  21   2.0000      -0.289051        -7.8655
  22   2.0000      -0.286848        -7.8055
  23   2.0000      -0.270935        -7.3725
  24   2.0000      -0.238243        -6.4829
  25   0.0000       0.072519         1.9734
  26   0.0000       0.089189         2.4270
  27   0.0000       0.127225         3.4620
  28   0.0000       0.134416         3.6577
  29   0.0000       0.140719         3.8292

MULLIKEN ATOMIC CHARGES
-----------------------
   0 C :   -0.545866
   1 C :   -0.010940
   2 C :   -0.545964
   3 C :   -0.258457
   4 C :   -0.184229
   5 O :   -0.515088
   6 H :    0.157265
   7 H :    0.165171
   8 H :    0.158021
   9 H :    0.153868
  10 H :    0.165143
  11 H :    0.157341
  12 H :    0.158051
  13 H :    0.154291
  14 H :    0.154102
  15 H :    0.146681
  16 H :    0.146680
  17 H :    0.343931
Sum of atomic charges:   -0.0000000

LOEWDIN ATOMIC CHARGES
----------------------
   0 C :   -0.426453
   1 C :   -0.241798
   2 C :   -0.426506
   3 C :   -0.284647
   4 C :    0.009306
   5 O :   -0.666466
   6 H :    0.155973
   7 H :    0.155259
   8 H :    0.156879
   9 H :    0.159456
  10 H :    0.155272
  11 H :    0.155985
  12 H :    0.156878
  13 H :    0.164266
  14 H :    0.164240
  15 H :    0.164209
  16 H :    0.164177
  17 H :    0.283970

  Mayer bond orders larger than 0.100000
B(  0-C ,  1-C ) :   0.9081 B(  0-C ,  6-H ) :   0.9686 B(  0-C ,  7-H ) :   0.9792
B(  0-C ,  8-H ) :   0.9707 B(  1-C ,  2-C ) :   0.9075 B(  1-C ,  3-C ) :   0.9061
B(  1-C ,  9-H ) :   0.9586 B(  2-C , 10-H ) :   0.9791 B(  2-C , 11-H ) :   0.9685
B(  2-C , 12-H ) :   0.9708 B(  3-C ,  4-C ) :   0.9003 B(  3-C , 13-H ) :   0.9673
B(  3-C , 14-H ) :   0.9674 B(  4-C ,  5-O ) :   0.9109 B(  4-C , 15-H ) :   0.9658
B(  4-C , 16-H ) :   0.9660 B(  5-O , 17-H ) :   0.8754

Dispersion correction           -0.004365176
FINAL SINGLE POINT ENERGY      -272.903111049542

DIPOLE MOMENT
-------------

Method             : SCF
Type of density    : Electron Density
Multiplicity       :   1
Irrep              :   0
Energy             :  -272.9086016182088770 Eh
Relativity type    :
Basis              : AO
                                X                 Y                 Z
Electronic contribution:     -5.079484460       0.645983860       0.811863557
Nuclear contribution   :      5.366954322      -0.811499438      -1.550171951
                        -----------------------------------------
Total Dipole Moment    :      0.287469862      -0.165515578      -0.738308394
                        -----------------------------------------
Magnitude (a.u.)       :      0.809403245
Magnitude (Debye)      :      2.057339550

Rotational constants in cm-1:             0.201865             0.062671             0.056336
Rotational constants in MHz :          6051.773367          1878.818060          1688.908192

                             ****ORCA TERMINATED NORMALLY****
TOTAL RUN TIME: 0 days 0 hours 0 minutes 27 seconds 514 msec
