                         Program Version 6.0.0  -   RELEASE  -
|  1> ! r2scan-3c def2/J RI DEFGRID2 scfconv6 printgap
|  2> %output
|  3>     printlevel normal
|  4> end
|  5> %cpcm
|  6>     smd true
|  7>     smdsolvent "water"
|  8> end
|  9> * xyz 0 1
| 10> C 2.0161526401 -0.9158658134 -0.1769135261
| 11> C 1.6114220239 0.3928146901 0.4954264986
| 12> C 0.5839055165 1.1880099566 -0.3219647627
| 13> C -0.8563916188 1.0018133779 0.1346648387
| 14> S -1.513488743 -0.6957485539 -0.0845121024
| 15> H 2.532419607 -0.7131087139 -1.1127995972
| 16> H 1.1478482045 -1.5311581944 -0.397115035
| 17> H 2.6861634013 -1.4814020239 0.4664215544
| 18> H 2.5074121613 1.0008403802 0.632857044
| 19> H 1.2063218617 0.1875728664 1.488892123
| 20> H 0.6647469377 0.913268767 -1.3752726605
| 21> H 0.7973185985 2.2563571424 -0.2409844757
| 22> H -0.9790083363 1.2597085968 1.1854608399
| 23> H -1.5246408202 1.6218550485 -0.4632480044
| 24> H -0.8708275526 -1.242105254 0.9407524751
| 25> *
| 26>
| 27>                          ****END OF INPUT****

CARTESIAN COORDINATES (ANGSTROEM)
---------------------------------
  C      2.016153   -0.915866   -0.176914
  C      1.611422    0.392815    0.495426
  C      0.583906    1.188010   -0.321965
  C     -0.856392    1.001813    0.134665
  S     -1.513489   -0.695749   -0.084512
  H      2.532420   -0.713109   -1.112800
  H      1.147848   -1.531158   -0.397115
  H      2.686163   -1.481402    0.466422
  H      2.507412    1.000840    0.632857
  H      1.206322    0.187573    1.488892
  H      0.664747    0.913269   -1.375273
  H      0.797319    2.256357   -0.240984
  H     -0.979008    1.259709    1.185461
  H     -1.524641    1.621855   -0.463248
  H     -0.870828   -1.242105    0.940752

 Total Charge           Charge          ....    0
 Multiplicity           Mult            ....    1
 Number of Electrons    NEL             ....   50
 Basis Dimension        Dim             ....  153

ORBITAL ENERGIES
----------------

  NO   OCC          E(Eh)            E(eV)
   0   2.0000     -88.546906     -2409.4838
   1   2.0000     -10.054686      -273.6019
   2   2.0000     -10.021436      -272.6971
   3   2.0000     -10.018097      -272.6063
   4   2.0000     -10.006003      -272.2772
   5   2.0000      -7.842321      -213.4004
   6   2.0000      -5.789203      -157.5322
   7   2.0000      -5.785734      -157.4378
   8   2.0000      -5.779722      -157.2742
   9   2.0000      -0.773290       -21.0423
  10   2.0000      -0.716656       -19.5012
  11   2.0000      -0.655211       -17.8292
  12   2.0000      -0.580381       -15.7930
  13   2.0000      -0.531248       -14.4560
  14   2.0000      -0.434715       -11.8292
  15   2.0000      -0.420338       -11.4380
  16   2.0000      -0.396123       -10.7791
  17   2.0000      -0.359572        -9.7844
  18   2.0000      -0.357344        -9.7238
  19   2.0000      -0.337696        -9.1892
  20   2.0000      -0.310450        -8.4478
  21   2.0000      -0.296998        -8.0817
  22   2.0000      -0.287721        -7.8293
  23   2.0000      -0.280284        -7.6269
  24   2.0000      -0.207012        -5.6331
  25   0.0000       0.018629         0.5069
  26   0.0000       0.053504         1.4559
  27   0.0000       0.107515         2.9256
  28   0.0000       0.119677         3.2566
  29   0.0000       0.124535         3.3888

MULLIKEN ATOMIC CHARGES
-----------------------
   0 C :   -0.531253
   1 C :   -0.264005
   2 C :   -0.196494
   3 C :   -0.296529
   4 S :   -0.341966
   5 H :    0.157370
   6 H :    0.160583
   7 H :    0.153604
   8 H :    0.151178
   9 H :    0.155951
  10 H :    0.155504
  11 H :    0.158295
  12 H :    0.188791
  13 H :    0.174631
  14 H :    0.174339
Sum of atomic charges:   -0.0000000

LOEWDIN ATOMIC CHARGES
----------------------
   0 C :   -0.442517
   1 C :   -0.325011
   2 C :   -0.318348
   3 C :   -0.357879
   4 S :   -0.135497
   5 H :    0.151426
   6 H :    0.152246
   7 H :    0.151576
   8 H :    0.156745
   9 H :    0.155870
  10 H :    0.161968
  11 H :    0.164014
  12 H :    0.170047
  13 H :    0.175256
  14 H :    0.140104

  Mayer bond orders larger than 0.100000
B(  0-C ,  1-C ) :   0.8965 B(  0-C ,  5-H ) :   0.9812 B(  0-C ,  6-H ) :   0.9736
B(  0-C ,  7-H ) :   0.9721 B(  1-C ,  2-C ) :   0.8324 B(  1-C ,  8-H ) :   0.9615
B(  1-C ,  9-H ) :   0.9820 B(  2-C ,  3-C ) :   0.8842 B(  2-C , 10-H ) :   0.9783
B(  2-C , 11-H ) :   0.9518 B(  3-C ,  4-S ) :   0.9754 B(  3-C , 12-H ) :   0.9702
B(  3-C , 13-H ) :   0.9508 B(  4-S , 14-H ) :   0.9517

Dispersion correction           -0.003848303
FINAL SINGLE POINT ENERGY      -556.553381936474

DIPOLE MOMENT
-------------

Method             : SCF
Type of density    : Electron Density
Multiplicity       :   1
Irrep              :   0
Energy             :  -556.5600419535578567 Eh
Relativity type    :
Basis              : AO
                                X                 Y                 Z
Electronic contribution:     -7.130963683      -1.481297914      -0.662294067
Nuclear contribution   :      7.705715102       2.151112391       1.057809039
                        -----------------------------------------
Total Dipole Moment    :      0.574751419       0.669814477       0.395514971
                        -----------------------------------------
Magnitude (a.u.)       :      0.967172539
Magnitude (Debye)      :      2.458357226

Rotational constants in cm-1:             0.194248             0.080544             0.062677
Rotational constants in MHz :          5823.423154          2414.648904          1879.015335

                             ****ORCA TERMINATED NORMALLY****
TOTAL RUN TIME: 0 days 0 hours 0 minutes 16 seconds 663 msec
