                         Program Version 6.0.0  -   RELEASE  -
|  1> ! r2scan-3c def2/J RI DEFGRID2 scfconv6 printgap
|  2> %output
|  3>     printlevel normal
|  4> end
|  5> * xyz 0 1
|  6> C 1.5814998794 -2.4384178647 0.9113091004
|  7> O 1.0306910012 -1.7794097026 -0.2330870723
|  8> C 0.6989356162 -0.4661839893 -0.0701501478
|  9> C 1.6572704797 0.5481941888 0.005043145
| 10> C 1.2852620598 1.8791803805 0.1044403042
| 11> C -0.0514278186 2.2312072342 0.1036242937
| 12> C -1.0147936711 1.2425663017 -0.0093778733
| 13> C -0.65535353 -0.1015570315 -0.0802873819
| 14> C -1.6941481162 -1.1686757803 -0.2135408341
| 15> O -2.5872736166 -1.1366285434 -1.0312143142
| 16> O -1.5429866056 -2.142171427 0.6585439499
| 17> Cl -2.6853399089 1.682364095 -0.0259842485
| 18> Cl 3.3402158106 0.1521918982 -0.0814906197
| 19> H 1.8350746252 -3.4366522718 0.5658505159
| 20> H 0.8318109683 -2.4918264005 1.7034467272
| 21> H 2.4747316423 -1.9313241975 1.2773383606
| 22> H 2.0470515874 2.6387090519 0.1688653207
| 23> H -0.3486524133 3.2633438298 0.1770854432
| 24> H -2.2094836502 -2.8512037823 0.5533637214
| 25> *
| 26>
| 27>                          ****END OF INPUT****

CARTESIAN COORDINATES (ANGSTROEM)
---------------------------------
  C      1.581500   -2.438418    0.911309
  O      1.030691   -1.779410   -0.233087
  C      0.698936   -0.466184   -0.070150
  C      1.657270    0.548194    0.005043
  C      1.285262    1.879180    0.104440
  C     -0.051428    2.231207    0.103624
  C     -1.014794    1.242566   -0.009378
  C     -0.655354   -0.101557   -0.080287
  C     -1.694148   -1.168676   -0.213541
  O     -2.587274   -1.136629   -1.031214
  O     -1.542987   -2.142171    0.658544
  Cl    -2.685340    1.682364   -0.025984
  Cl     3.340216    0.152192   -0.081491
  H      1.835075   -3.436652    0.565851
  H      0.831811   -2.491826    1.703447
  H      2.474732   -1.931324    1.277338
  H      2.047052    2.638709    0.168865
  H     -0.348652    3.263344    0.177085
  H     -2.209484   -2.851204    0.553364

 Total Charge           Charge          ....    0
 Multiplicity           Mult            ....    1
 Number of Electrons    NEL             ....  112
 Basis Dimension        Dim             ....  308

ORBITAL ENERGIES
----------------

  NO   OCC          E(Eh)            E(eV)
   0   2.0000    -101.235042     -2754.7455
   1   2.0000    -101.227150     -2754.5308
   2   2.0000     -19.016948      -517.4775
   3   2.0000     -18.993654      -516.8436
   4   2.0000     -18.945327      -515.5286
   5   2.0000     -10.179676      -277.0031
   6   2.0000     -10.130156      -275.6556
   7   2.0000     -10.122478      -275.4466
   8   2.0000     -10.116980      -275.2970
   9   2.0000     -10.089839      -274.5585
  10   2.0000     -10.080812      -274.3128
  11   2.0000     -10.071530      -274.0603
  12   2.0000     -10.065748      -273.9029
  13   2.0000      -9.390863      -255.5384
  14   2.0000      -9.383071      -255.3264
  15   2.0000      -7.137220      -194.2136
  16   2.0000      -7.129556      -194.0051
  17   2.0000      -7.127111      -193.9386
  18   2.0000      -7.126531      -193.9228
  19   2.0000      -7.119396      -193.7286
  20   2.0000      -7.118509      -193.7045
  21   2.0000      -1.093340       -29.7513
  22   2.0000      -1.043455       -28.3939
  23   2.0000      -0.992333       -27.0027
  24   2.0000      -0.887612       -24.1532
  25   2.0000      -0.856695       -23.3119
  26   2.0000      -0.803331       -21.8598
  27   2.0000      -0.764609       -20.8061
  28   2.0000      -0.712739       -19.3946
  29   2.0000      -0.676406       -18.4059
  30   2.0000      -0.656344       -17.8600
  31   2.0000      -0.598310       -16.2809
  32   2.0000      -0.576023       -15.6744
  33   2.0000      -0.519274       -14.1302
  34   2.0000      -0.499721       -13.5981
  35   2.0000      -0.491377       -13.3710
  36   2.0000      -0.461807       -12.5664
  37   2.0000      -0.457885       -12.4597
  38   2.0000      -0.445298       -12.1172
  39   2.0000      -0.434814       -11.8319
  40   2.0000      -0.425506       -11.5786
  41   2.0000      -0.420635       -11.4461
  42   2.0000      -0.394040       -10.7224
  43   2.0000      -0.390033       -10.6133
  44   2.0000      -0.378990       -10.3128
  45   2.0000      -0.361211        -9.8290
  46   2.0000      -0.354701        -9.6519
  47   2.0000      -0.339611        -9.2413
  48   2.0000      -0.311656        -8.4806
  49   2.0000      -0.302376        -8.2281
  50   2.0000      -0.297690        -8.1006
  51   2.0000      -0.288696        -7.8558
  52   2.0000      -0.270534        -7.3616
  53   2.0000      -0.261124        -7.1055
  54   2.0000      -0.244359        -6.6493
  55   2.0000      -0.230939        -6.2842
  56   0.0000      -0.081727        -2.2239
  57   0.0000      -0.057741        -1.5712
  58   0.0000      -0.017840        -0.4855
  59   0.0000      -0.007537        -0.2051
  60   0.0000       0.011103         0.3021

MULLIKEN ATOMIC CHARGES
-----------------------
   0 C :   -0.273037
   1 O :   -0.230970
   2 C :    0.198787
   3 C :    0.044126
   4 C :   -0.163951
   5 C :   -0.249194
   6 C :    0.100965
   7 C :    0.044270
   8 C :    0.278398
   9 O :   -0.372217
  10 O :   -0.299619
  11 Cl:   -0.094647
  12 Cl:   -0.121053
  13 H :    0.155065
  14 H :    0.158893
  15 H :    0.153131
  16 H :    0.165999
  17 H :    0.166257
  18 H :    0.338796
Sum of atomic charges:    0.0000000

LOEWDIN ATOMIC CHARGES
----------------------
   0 C :   -0.049547
   1 O :   -0.688329
   2 C :    0.195283
   3 C :   -0.145632
   4 C :   -0.145991
   5 C :   -0.166814
   6 C :   -0.129228
   7 C :   -0.011105
   8 C :    0.361711
   9 O :   -0.398475
  10 O :   -0.371304
  11 Cl:    0.194156
  12 Cl:    0.165908
  13 H :    0.180682
  14 H :    0.170545
  15 H :    0.166640
  16 H :    0.183479
  17 H :    0.183109
  18 H :    0.304912

  Mayer bond orders larger than 0.100000
B(  0-C ,  1-O ) :   0.8394 B(  0-C , 13-H ) :   0.9724 B(  0-C , 14-H ) :   0.9621
B(  0-C , 15-H ) :   0.9510 B(  1-O ,  2-C ) :   1.1561 B(  2-C ,  3-C ) :   1.2468
B(  2-C ,  7-C ) :   1.3675 B(  3-C ,  4-C ) :   1.2942 B(  3-C , 12-Cl) :   1.0363
B(  4-C ,  5-C ) :   1.3270 B(  4-C , 16-H ) :   0.9424 B(  5-C ,  6-C ) :   1.3317
B(  5-C , 17-H ) :   0.9372 B(  6-C ,  7-C ) :   1.2306 B(  6-C , 11-Cl) :   1.0340
B(  7-C ,  8-C ) :   0.9424 B(  8-C ,  9-O ) :   1.9533 B(  8-C , 10-O ) :   1.0712
B( 10-O , 18-H ) :   0.8539

Dispersion correction           -0.008715712
FINAL SINGLE POINT ENERGY     -1454.386806934798

DIPOLE MOMENT
-------------

Method             : SCF
Type of density    : Electron Density
Multiplicity       :   1
Irrep              :   0
Energy             : -1454.3910254595366496 Eh
Relativity type    :
Basis              : AO
                                X                 Y                 Z
Electronic contribution:     -2.792676686       6.768533802      -3.311915929
Nuclear contribution   :      3.419413838      -7.048829958       4.306371074
                        -----------------------------------------
Total Dipole Moment    :      0.626737152      -0.280296155       0.994455145
                        -----------------------------------------
Magnitude (a.u.)       :      1.208431392
Magnitude (Debye)      :      3.071588494

Rotational constants in cm-1:             0.031488             0.016424             0.011348
Rotational constants in MHz :           943.992800           492.392566           340.192905

                             ****ORCA TERMINATED NORMALLY****
TOTAL RUN TIME: 0 days 0 hours 0 minutes 46 seconds 714 msec
