                         Program Version 6.0.0  -   RELEASE  -
|  1> ! r2scan-3c def2/J RI DEFGRID2 scfconv6 printgap
|  2> %output
|  3>     printlevel normal
|  4> end
|  5> %cpcm
|  6>     smd true
|  7>     smdsolvent "water"
|  8> end
|  9> * xyz 0 1
| 10> C 1.5814998794 -2.4384178647 0.9113091004
| 11> O 1.0306910012 -1.7794097026 -0.2330870723
| 12> C 0.6989356162 -0.4661839893 -0.0701501478
| 13> C 1.6572704797 0.5481941888 0.005043145
| 14> C 1.2852620598 1.8791803805 0.1044403042
| 15> C -0.0514278186 2.2312072342 0.1036242937
| 16> C -1.0147936711 1.2425663017 -0.0093778733
| 17> C -0.65535353 -0.1015570315 -0.0802873819
| 18> C -1.6941481162 -1.1686757803 -0.2135408341
| 19> O -2.5872736166 -1.1366285434 -1.0312143142
| 20> O -1.5429866056 -2.142171427 0.6585439499
| 21> Cl -2.6853399089 1.682364095 -0.0259842485
| 22> Cl 3.3402158106 0.1521918982 -0.0814906197
| 23> H 1.8350746252 -3.4366522718 0.5658505159
| 24> H 0.8318109683 -2.4918264005 1.7034467272
| 25> H 2.4747316423 -1.9313241975 1.2773383606
| 26> H 2.0470515874 2.6387090519 0.1688653207
| 27> H -0.3486524133 3.2633438298 0.1770854432
| 28> H -2.2094836502 -2.8512037823 0.5533637214
| 29> *
| 30>
| 31>                          ****END OF INPUT****

CARTESIAN COORDINATES (ANGSTROEM)
---------------------------------
  C      1.581500   -2.438418    0.911309
  O      1.030691   -1.779410   -0.233087
  C      0.698936   -0.466184   -0.070150
  C      1.657270    0.548194    0.005043
  C      1.285262    1.879180    0.104440
  C     -0.051428    2.231207    0.103624
  C     -1.014794    1.242566   -0.009378
  C     -0.655354   -0.101557   -0.080287
  C     -1.694148   -1.168676   -0.213541
  O     -2.587274   -1.136629   -1.031214
  O     -1.542987   -2.142171    0.658544
  Cl    -2.685340    1.682364   -0.025984
  Cl     3.340216    0.152192   -0.081491
  H      1.835075   -3.436652    0.565851
  H      0.831811   -2.491826    1.703447
  H      2.474732   -1.931324    1.277338
  H      2.047052    2.638709    0.168865
  H     -0.348652    3.263344    0.177085
  H     -2.209484   -2.851204    0.553364

 Total Charge           Charge          ....    0
 Multiplicity           Mult            ....    1
 Number of Electrons    NEL             ....  112
 Basis Dimension        Dim             ....  308

ORBITAL ENERGIES
----------------

  NO   OCC          E(Eh)            E(eV)
   0   2.0000    -101.233144     -2754.6939
   1   2.0000    -101.231352     -2754.6451
   2   2.0000     -19.009178      -517.2660
   3   2.0000     -18.991858      -516.7947
   4   2.0000     -18.955064      -515.7935
   5   2.0000     -10.185611      -277.1646
   6   2.0000     -10.127836      -275.5924
   7   2.0000     -10.120583      -275.3951
   8   2.0000     -10.113776      -275.2098
   9   2.0000     -10.078563      -274.2516
  10   2.0000     -10.075669      -274.1729
  11   2.0000     -10.064875      -273.8792
  12   2.0000     -10.059469      -273.7321
  13   2.0000      -9.389057      -255.4892
  14   2.0000      -9.387485      -255.4464
  15   2.0000      -7.135353      -194.1628
  16   2.0000      -7.133811      -194.1209
  17   2.0000      -7.125342      -193.8904
  18   2.0000      -7.124731      -193.8738
  19   2.0000      -7.123843      -193.8496
  20   2.0000      -7.123006      -193.8269
  21   2.0000      -1.090916       -29.6853
  22   2.0000      -1.041353       -28.3366
  23   2.0000      -0.998041       -27.1581
  24   2.0000      -0.885899       -24.1065
  25   2.0000      -0.856389       -23.3035
  26   2.0000      -0.803101       -21.8535
  27   2.0000      -0.759933       -20.6788
  28   2.0000      -0.709876       -19.3167
  29   2.0000      -0.668749       -18.1976
  30   2.0000      -0.649708       -17.6794
  31   2.0000      -0.591191       -16.0871
  32   2.0000      -0.571274       -15.5452
  33   2.0000      -0.516176       -14.0459
  34   2.0000      -0.496393       -13.5076
  35   2.0000      -0.486922       -13.2498
  36   2.0000      -0.467473       -12.7206
  37   2.0000      -0.451784       -12.2937
  38   2.0000      -0.443315       -12.0632
  39   2.0000      -0.435032       -11.8378
  40   2.0000      -0.425242       -11.5714
  41   2.0000      -0.412231       -11.2174
  42   2.0000      -0.390220       -10.6184
  43   2.0000      -0.384801       -10.4710
  44   2.0000      -0.374187       -10.1821
  45   2.0000      -0.358950        -9.7675
  46   2.0000      -0.354452        -9.6451
  47   2.0000      -0.333280        -9.0690
  48   2.0000      -0.315521        -8.5858
  49   2.0000      -0.302847        -8.2409
  50   2.0000      -0.296830        -8.0772
  51   2.0000      -0.292828        -7.9683
  52   2.0000      -0.268842        -7.3156
  53   2.0000      -0.265602        -7.2274
  54   2.0000      -0.246928        -6.7193
  55   2.0000      -0.229888        -6.2556
  56   0.0000      -0.081041        -2.2052
  57   0.0000      -0.054559        -1.4846
  58   0.0000      -0.018434        -0.5016
  59   0.0000      -0.006206        -0.1689
  60   0.0000       0.010684         0.2907

MULLIKEN ATOMIC CHARGES
-----------------------
   0 C :   -0.285014
   1 O :   -0.274548
   2 C :    0.228034
   3 C :    0.037650
   4 C :   -0.175585
   5 C :   -0.264940
   6 C :    0.092086
   7 C :    0.045447
   8 C :    0.292353
   9 O :   -0.445635
  10 O :   -0.313828
  11 Cl:   -0.117548
  12 Cl:   -0.129568
  13 H :    0.178480
  14 H :    0.172172
  15 H :    0.163105
  16 H :    0.204150
  17 H :    0.202720
  18 H :    0.390468
Sum of atomic charges:   -0.0000000

LOEWDIN ATOMIC CHARGES
----------------------
   0 C :   -0.045743
   1 O :   -0.712934
   2 C :    0.197021
   3 C :   -0.145889
   4 C :   -0.135090
   5 C :   -0.159349
   6 C :   -0.135137
   7 C :   -0.015805
   8 C :    0.367873
   9 O :   -0.459338
  10 O :   -0.352333
  11 Cl:    0.176776
  12 Cl:    0.160430
  13 H :    0.189296
  14 H :    0.177017
  15 H :    0.171455
  16 H :    0.198045
  17 H :    0.196569
  18 H :    0.327135

  Mayer bond orders larger than 0.100000
B(  0-C ,  1-O ) :   0.8311 B(  0-C , 13-H ) :   0.9635 B(  0-C , 14-H ) :   0.9560
B(  0-C , 15-H ) :   0.9462 B(  1-O ,  2-C ) :   1.1522 B(  2-C ,  3-C ) :   1.2347
B(  2-C ,  7-C ) :   1.3645 B(  3-C ,  4-C ) :   1.2709 B(  3-C , 12-Cl) :   1.0301
B(  4-C ,  5-C ) :   1.3489 B(  4-C , 16-H ) :   0.9403 B(  5-C ,  6-C ) :   1.3072
B(  5-C , 17-H ) :   0.9379 B(  6-C ,  7-C ) :   1.2042 B(  6-C , 11-Cl) :   1.0244
B(  7-C ,  8-C ) :   0.9461 B(  8-C ,  9-O ) :   1.8962 B(  8-C , 10-O ) :   1.1119
B( 10-O , 18-H ) :   0.8269

Dispersion correction           -0.008715712
FINAL SINGLE POINT ENERGY     -1454.398334399683

DIPOLE MOMENT
-------------

Method             : SCF
Type of density    : Electron Density
Multiplicity       :   1
Irrep              :   0
Energy             : -1454.4025529244217978 Eh
Relativity type    :
Basis              : AO
                                X                 Y                 Z
Electronic contribution:     -2.449519148       6.805752949      -2.845337071
Nuclear contribution   :      3.419413838      -7.048829958       4.306371074
                        -----------------------------------------
Total Dipole Moment    :      0.969894690      -0.243077008       1.461034004
                        -----------------------------------------
Magnitude (a.u.)       :      1.770424385
Magnitude (Debye)      :      4.500061160

Rotational constants in cm-1:             0.031488             0.016424             0.011348
Rotational constants in MHz :           943.992800           492.392566           340.192905

                             ****ORCA TERMINATED NORMALLY****
TOTAL RUN TIME: 0 days 0 hours 1 minutes 0 seconds 564 msec
