                         Program Version 6.0.0  -   RELEASE  -
|  1> ! pbe def2-sv(p) def2/J RI DEFGRID1 loosescf d4 GCP(DFT/SV(P)) printgap
|  2> %output
|  3>     printlevel normal
|  4> end
|  5> * xyz 0 1
|  6> C 2.1419334793 -0.2358116609 1.083498225
|  7> C 1.4364456881 0.7996791331 0.2133901116
|  8> C 0.247193412 0.2651061762 -0.6048014872
|  9> H -0.0903913097 1.0848372405 -1.2518083045
| 10> C 0.7073200401 -0.8812268342 -1.5082271311
| 11> C -0.9442163512 -0.1361480367 0.2888218585
| 12> C -1.5422611538 1.0861408253 1.011169457
| 13> C -2.0445433075 -0.8370615012 -0.5107657326
| 14> H 1.459606606 -0.6688880865 1.80999872
| 15> H 2.5611162806 -1.0359366745 0.4802859264
| 16> H 2.9551591703 0.2390637892 1.6279944428
| 17> H 2.1646408262 1.2185726077 -0.4860896851
| 18> H 1.0998646136 1.6165698282 0.8536532234
| 19> H 1.6569848426 -0.6268734123 -1.9743564801
| 20> H 0.8371978569 -1.7972540792 -0.937441047
| 21> H -0.0131223094 -1.0669856419 -2.2995818345
| 22> H -0.5793490239 -0.8487230074 1.0345268261
| 23> H -0.9828934415 1.9924545414 0.7969846485
| 24> H -1.5488940435 0.9438875265 2.0885562348
| 25> H -2.5669623587 1.2559116609 0.6902047751
| 26> H -2.3708582373 -0.2103431105 -1.3384598296
| 27> H -2.8999206504 -1.0301555627 0.1331564047
| 28> H -1.7044848776 -1.789229868 -0.9068854096
| 29> *
| 30>
| 31>                          ****END OF INPUT****

CARTESIAN COORDINATES (ANGSTROEM)
---------------------------------
  C      2.141933   -0.235812    1.083498
  C      1.436446    0.799679    0.213390
  C      0.247193    0.265106   -0.604801
  H     -0.090391    1.084837   -1.251808
  C      0.707320   -0.881227   -1.508227
  C     -0.944216   -0.136148    0.288822
  C     -1.542261    1.086141    1.011169
  C     -2.044543   -0.837062   -0.510766
  H      1.459607   -0.668888    1.809999
  H      2.561116   -1.035937    0.480286
  H      2.955159    0.239064    1.627994
  H      2.164641    1.218573   -0.486090
  H      1.099865    1.616570    0.853653
  H      1.656985   -0.626873   -1.974356
  H      0.837198   -1.797254   -0.937441
  H     -0.013122   -1.066986   -2.299582
  H     -0.579349   -0.848723    1.034527
  H     -0.982893    1.992455    0.796985
  H     -1.548894    0.943888    2.088556
  H     -2.566962    1.255912    0.690205
  H     -2.370858   -0.210343   -1.338460
  H     -2.899921   -1.030156    0.133156
  H     -1.704485   -1.789230   -0.906885

 Total Charge           Charge          ....    0
 Multiplicity           Mult            ....    1
 Number of Electrons    NEL             ....   58
 Basis Dimension        Dim             ....  130

ORBITAL ENERGIES
----------------

  NO   OCC          E(Eh)            E(eV)
   0   2.0000      -9.888337      -269.0753
   1   2.0000      -9.887253      -269.0458
   2   2.0000      -9.877253      -268.7737
   3   2.0000      -9.868756      -268.5425
   4   2.0000      -9.867628      -268.5118
   5   2.0000      -9.867456      -268.5071
   6   2.0000      -9.867031      -268.4956
   7   2.0000      -0.740554       -20.1515
   8   2.0000      -0.681899       -18.5554
   9   2.0000      -0.639534       -17.4026
  10   2.0000      -0.605449       -16.4751
  11   2.0000      -0.567935       -15.4543
  12   2.0000      -0.527435       -14.3522
  13   2.0000      -0.474066       -12.9000
  14   2.0000      -0.416742       -11.3401
  15   2.0000      -0.410976       -11.1832
  16   2.0000      -0.383271       -10.4293
  17   2.0000      -0.382752       -10.4152
  18   2.0000      -0.362726        -9.8703
  19   2.0000      -0.343495        -9.3470
  20   2.0000      -0.335911        -9.1406
  21   2.0000      -0.331423        -9.0185
  22   2.0000      -0.324220        -8.8225
  23   2.0000      -0.303392        -8.2557
  24   2.0000      -0.297042        -8.0829
  25   2.0000      -0.292605        -7.9622
  26   2.0000      -0.270258        -7.3541
  27   2.0000      -0.262081        -7.1316
  28   2.0000      -0.257940        -7.0189
  29   0.0000       0.033785         0.9193
  30   0.0000       0.055386         1.5071
  31   0.0000       0.061734         1.6799
  32   0.0000       0.070017         1.9053
  33   0.0000       0.092177         2.5083

MULLIKEN ATOMIC CHARGES
-----------------------
   0 C :   -0.297823
   1 C :   -0.145867
   2 C :   -0.144434
   3 H :    0.061175
   4 C :   -0.256758
   5 C :   -0.161853
   6 C :   -0.247039
   7 C :   -0.247340
   8 H :    0.106753
   9 H :    0.103300
  10 H :    0.100870
  11 H :    0.081662
  12 H :    0.080201
  13 H :    0.096250
  14 H :    0.103428
  15 H :    0.104437
  16 H :    0.071621
  17 H :    0.105492
  18 H :    0.097022
  19 H :    0.093112
  20 H :    0.094645
  21 H :    0.099684
  22 H :    0.101464
Sum of atomic charges:   -0.0000000

LOEWDIN ATOMIC CHARGES
----------------------
   0 C :   -0.343628
   1 C :   -0.226633
   2 C :   -0.144982
   3 H :    0.111592
   4 C :   -0.332295
   5 C :   -0.150853
   6 C :   -0.334578
   7 C :   -0.330278
   8 H :    0.116050
   9 H :    0.117213
  10 H :    0.120196
  11 H :    0.113852
  12 H :    0.112735
  13 H :    0.117392
  14 H :    0.117719
  15 H :    0.118707
  16 H :    0.112045
  17 H :    0.118176
  18 H :    0.120790
  19 H :    0.118824
  20 H :    0.115739
  21 H :    0.116593
  22 H :    0.115623

  Mayer bond orders larger than 0.100000
B(  0-C ,  1-C ) :   1.1521 B(  0-C ,  8-H ) :   0.9489 B(  0-C ,  9-H ) :   0.9484
B(  0-C , 10-H ) :   0.9495 B(  1-C ,  2-C ) :   1.0898 B(  1-C , 11-H ) :   0.9216
B(  1-C , 12-H ) :   0.9168 B(  2-C ,  3-H ) :   0.8901 B(  2-C ,  4-C ) :   1.1162
B(  2-C ,  5-C ) :   1.0587 B(  4-C , 13-H ) :   0.9469 B(  4-C , 14-H ) :   0.9413
B(  4-C , 15-H ) :   0.9389 B(  5-C ,  6-C ) :   1.0907 B(  5-C ,  7-C ) :   1.1371
B(  5-C , 16-H ) :   0.8997 B(  6-C , 17-H ) :   0.9450 B(  6-C , 18-H ) :   0.9532
B(  6-C , 19-H ) :   0.9519 B(  7-C , 20-H ) :   0.9455 B(  7-C , 21-H ) :   0.9475
B(  7-C , 22-H ) :   0.9396

Dispersion correction           -0.019346284
FINAL SINGLE POINT ENERGY      -275.654414118608

DIPOLE MOMENT
-------------

Method             : SCF
Type of density    : Electron Density
Multiplicity       :   1
Irrep              :   0
Energy             :  -275.7318776911840246 Eh
Relativity type    :
Basis              : AO
                                X                 Y                 Z
Electronic contribution:      0.031666337       0.689486763      -0.284482111
Nuclear contribution   :     -0.020926681      -0.678377263       0.300904596
                        -----------------------------------------
Total Dipole Moment    :      0.010739656       0.011109500       0.016422485
                        -----------------------------------------
Magnitude (a.u.)       :      0.022549040
Magnitude (Debye)      :      0.057315105

Rotational constants in cm-1:             0.109019             0.063079             0.048128
Rotational constants in MHz :          3268.318286          1891.054419          1442.843928

                             ****ORCA TERMINATED NORMALLY****
TOTAL RUN TIME: 0 days 0 hours 0 minutes 9 seconds 120 msec
