                         Program Version 6.0.0  -   RELEASE  -
|  1> ! r2scan-3c def2/J RI DEFGRID2 scfconv6 printgap
|  2> %output
|  3>     printlevel normal
|  4> end
|  5> * xyz 0 1
|  6> C 4.5038312646 0.2612390314 0.1217773877
|  7> N 3.0722320295 0.3739813441 0.2978539796
|  8> C 2.6451117643 1.417527339 1.2010940813
|  9> C 2.2501347076 -0.4628995201 -0.3356124459
| 10> O 2.6372563146 -1.3807471961 -1.0638080662
| 11> C 0.7720203123 -0.2553421695 -0.1605253159
| 12> C 0.1373660008 0.8293832632 -0.7655481192
| 13> C -1.2349221646 0.9547743454 -0.6969590282
| 14> C -1.9726529447 -0.0127110919 -0.0175131724
| 15> C -1.3502196439 -1.1048208212 0.5832075435
| 16> C 0.0221765137 -1.225023318 0.5016537454
| 17> N -3.3898208015 0.1123429972 0.0558747622
| 18> O -4.0199207598 -0.7446741368 0.6550607705
| 19> O -3.918212436 1.0707497689 -0.4850849001
| 20> H 4.9045861091 1.2032228472 -0.2522419423
| 21> H 4.7022793705 -0.5315754859 -0.5963706419
| 22> H 4.98140757 0.0184548395 1.0712952141
| 23> H 1.5856049298 1.3268025858 1.4206687441
| 24> H 2.8410957212 2.397171881 0.7618168146
| 25> H 3.2085727083 1.335244441 2.130910973
| 26> H 0.7201132142 1.5674657811 -1.2928564545
| 27> H -1.7494392867 1.7841042067 -1.1563191893
| 28> H -1.9509438042 -1.8390586603 1.0964544599
| 29> H 0.5221458323 -2.0704791551 0.9465785503
| 30> *
| 31>
| 32>                          ****END OF INPUT****

CARTESIAN COORDINATES (ANGSTROEM)
---------------------------------
  C      4.503831    0.261239    0.121777
  N      3.072232    0.373981    0.297854
  C      2.645112    1.417527    1.201094
  C      2.250135   -0.462900   -0.335612
  O      2.637256   -1.380747   -1.063808
  C      0.772020   -0.255342   -0.160525
  C      0.137366    0.829383   -0.765548
  C     -1.234922    0.954774   -0.696959
  C     -1.972653   -0.012711   -0.017513
  C     -1.350220   -1.104821    0.583208
  C      0.022177   -1.225023    0.501654
  N     -3.389821    0.112343    0.055875
  O     -4.019921   -0.744674    0.655061
  O     -3.918212    1.070750   -0.485085
  H      4.904586    1.203223   -0.252242
  H      4.702279   -0.531575   -0.596371
  H      4.981408    0.018455    1.071295
  H      1.585605    1.326803    1.420669
  H      2.841096    2.397172    0.761817
  H      3.208573    1.335244    2.130911
  H      0.720113    1.567466   -1.292856
  H     -1.749439    1.784104   -1.156319
  H     -1.950944   -1.839059    1.096454
  H      0.522146   -2.070479    0.946579

 Total Charge           Charge          ....    0
 Multiplicity           Mult            ....    1
 Number of Electrons    NEL             ....  102
 Basis Dimension        Dim             ....  341

ORBITAL ENERGIES
----------------

  NO   OCC          E(Eh)            E(eV)
   0   2.0000     -18.981050      -516.5006
   1   2.0000     -18.980946      -516.4978
   2   2.0000     -18.925460      -514.9879
   3   2.0000     -14.394181      -391.6856
   4   2.0000     -14.218505      -386.9052
   5   2.0000     -10.144311      -276.0407
   6   2.0000     -10.107182      -275.0304
   7   2.0000     -10.087523      -274.4955
   8   2.0000     -10.082321      -274.3539
   9   2.0000     -10.076186      -274.1870
  10   2.0000     -10.074820      -274.1498
  11   2.0000     -10.073657      -274.1182
  12   2.0000     -10.071989      -274.0728
  13   2.0000     -10.069842      -274.0143
  14   2.0000      -1.202724       -32.7278
  15   2.0000      -1.022470       -27.8228
  16   2.0000      -1.015444       -27.6316
  17   2.0000      -0.928511       -25.2661
  18   2.0000      -0.873246       -23.7622
  19   2.0000      -0.798298       -21.7228
  20   2.0000      -0.754987       -20.5443
  21   2.0000      -0.721257       -19.6264
  22   2.0000      -0.707318       -19.2471
  23   2.0000      -0.673578       -18.3290
  24   2.0000      -0.615089       -16.7374
  25   2.0000      -0.582608       -15.8536
  26   2.0000      -0.549264       -14.9462
  27   2.0000      -0.530243       -14.4286
  28   2.0000      -0.512350       -13.9418
  29   2.0000      -0.509433       -13.8624
  30   2.0000      -0.491208       -13.3665
  31   2.0000      -0.471518       -12.8307
  32   2.0000      -0.462902       -12.5962
  33   2.0000      -0.450272       -12.2525
  34   2.0000      -0.443873       -12.0784
  35   2.0000      -0.426536       -11.6066
  36   2.0000      -0.422393       -11.4939
  37   2.0000      -0.395726       -10.7682
  38   2.0000      -0.391636       -10.6570
  39   2.0000      -0.383720       -10.4416
  40   2.0000      -0.369424       -10.0525
  41   2.0000      -0.364860        -9.9283
  42   2.0000      -0.361611        -9.8399
  43   2.0000      -0.342104        -9.3091
  44   2.0000      -0.291362        -7.9284
  45   2.0000      -0.281565        -7.6618
  46   2.0000      -0.277562        -7.5528
  47   2.0000      -0.272470        -7.4143
  48   2.0000      -0.256074        -6.9681
  49   2.0000      -0.237319        -6.4578
  50   2.0000      -0.230574        -6.2742
  51   0.0000      -0.126977        -3.4552
  52   0.0000      -0.065456        -1.7812
  53   0.0000      -0.042682        -1.1614
  54   0.0000      -0.010427        -0.2837
  55   0.0000       0.043847         1.1931

MULLIKEN ATOMIC CHARGES
-----------------------
   0 C :   -0.406540
   1 N :    0.081867
   2 C :   -0.385163
   3 C :    0.224808
   4 O :   -0.438654
   5 C :    0.055907
   6 C :   -0.153116
   7 C :   -0.224606
   8 C :    0.038326
   9 C :   -0.228822
  10 C :   -0.140244
  11 N :    0.369091
  12 O :   -0.227521
  13 O :   -0.229010
  14 H :    0.144360
  15 H :    0.203668
  16 H :    0.150346
  17 H :    0.170127
  18 H :    0.162989
  19 H :    0.149005
  20 H :    0.154156
  21 H :    0.184226
  22 H :    0.184532
  23 H :    0.160267
Sum of atomic charges:    0.0000000

LOEWDIN ATOMIC CHARGES
----------------------
   0 C :   -0.105205
   1 N :   -0.828252
   2 C :   -0.099003
   3 C :    0.345351
   4 O :   -0.460443
   5 C :   -0.005596
   6 C :   -0.131982
   7 C :   -0.067890
   8 C :    0.190597
   9 C :   -0.066407
  10 C :   -0.115405
  11 N :   -0.494145
  12 O :   -0.018545
  13 O :   -0.020223
  14 H :    0.176260
  15 H :    0.210853
  16 H :    0.175921
  17 H :    0.195262
  18 H :    0.173956
  19 H :    0.178314
  20 H :    0.180496
  21 H :    0.200448
  22 H :    0.200802
  23 H :    0.184837

  Mayer bond orders larger than 0.100000
B(  0-C ,  1-N ) :   0.9289 B(  0-C , 14-H ) :   0.9485 B(  0-C , 15-H ) :   0.9542
B(  0-C , 16-H ) :   0.9552 B(  1-N ,  2-C ) :   0.9198 B(  1-N ,  3-C ) :   1.2527
B(  2-C , 17-H ) :   0.9535 B(  2-C , 18-H ) :   0.9556 B(  2-C , 19-H ) :   0.9516
B(  3-C ,  4-O ) :   1.8638 B(  3-C ,  5-C ) :   0.8612 B(  5-C ,  6-C ) :   1.3908
B(  5-C , 10-C ) :   1.3890 B(  6-C ,  7-C ) :   1.3182 B(  6-C , 20-H ) :   0.9476
B(  7-C ,  8-C ) :   1.4066 B(  7-C , 21-H ) :   0.9465 B(  8-C ,  9-C ) :   1.3966
B(  8-C , 11-N ) :   0.9646 B(  9-C , 10-C ) :   1.2947 B(  9-C , 22-H ) :   0.9513
B( 10-C , 23-H ) :   0.9605 B( 11-N , 12-O ) :   1.8409 B( 11-N , 13-O ) :   1.8407
B( 12-O , 13-O ) :   0.2451

Dispersion correction           -0.009417257
FINAL SINGLE POINT ENERGY      -683.930497407571

DIPOLE MOMENT
-------------

Method             : SCF
Type of density    : Electron Density
Multiplicity       :   1
Irrep              :   0
Energy             :  -683.9417392395761226 Eh
Relativity type    :
Basis              : AO
                                X                 Y                 Z
Electronic contribution:    -16.414716433      -3.803366500      -2.968041367
Nuclear contribution   :     18.463113554       4.857432564       3.863295160
                        -----------------------------------------
Total Dipole Moment    :      2.048397121       1.054066065       0.895253793
                        -----------------------------------------
Magnitude (a.u.)       :      2.471530981
Magnitude (Debye)      :      6.282132504

Rotational constants in cm-1:             0.068061             0.010704             0.010178
Rotational constants in MHz :          2040.409114           320.907796           305.119919

                             ****ORCA TERMINATED NORMALLY****
TOTAL RUN TIME: 0 days 0 hours 0 minutes 55 seconds 529 msec
