                         Program Version 6.0.0  -   RELEASE  -
|  1> ! r2scan-3c def2/J RI DEFGRID2 scfconv6 printgap
|  2> %output
|  3>     printlevel normal
|  4> end
|  5> %cpcm
|  6>     smd true
|  7>     smdsolvent "water"
|  8> end
|  9> * xyz 0 1
| 10> C 4.5038312646 0.2612390314 0.1217773877
| 11> N 3.0722320295 0.3739813441 0.2978539796
| 12> C 2.6451117643 1.417527339 1.2010940813
| 13> C 2.2501347076 -0.4628995201 -0.3356124459
| 14> O 2.6372563146 -1.3807471961 -1.0638080662
| 15> C 0.7720203123 -0.2553421695 -0.1605253159
| 16> C 0.1373660008 0.8293832632 -0.7655481192
| 17> C -1.2349221646 0.9547743454 -0.6969590282
| 18> C -1.9726529447 -0.0127110919 -0.0175131724
| 19> C -1.3502196439 -1.1048208212 0.5832075435
| 20> C 0.0221765137 -1.225023318 0.5016537454
| 21> N -3.3898208015 0.1123429972 0.0558747622
| 22> O -4.0199207598 -0.7446741368 0.6550607705
| 23> O -3.918212436 1.0707497689 -0.4850849001
| 24> H 4.9045861091 1.2032228472 -0.2522419423
| 25> H 4.7022793705 -0.5315754859 -0.5963706419
| 26> H 4.98140757 0.0184548395 1.0712952141
| 27> H 1.5856049298 1.3268025858 1.4206687441
| 28> H 2.8410957212 2.397171881 0.7618168146
| 29> H 3.2085727083 1.335244441 2.130910973
| 30> H 0.7201132142 1.5674657811 -1.2928564545
| 31> H -1.7494392867 1.7841042067 -1.1563191893
| 32> H -1.9509438042 -1.8390586603 1.0964544599
| 33> H 0.5221458323 -2.0704791551 0.9465785503
| 34> *
| 35>
| 36>                          ****END OF INPUT****

CARTESIAN COORDINATES (ANGSTROEM)
---------------------------------
  C      4.503831    0.261239    0.121777
  N      3.072232    0.373981    0.297854
  C      2.645112    1.417527    1.201094
  C      2.250135   -0.462900   -0.335612
  O      2.637256   -1.380747   -1.063808
  C      0.772020   -0.255342   -0.160525
  C      0.137366    0.829383   -0.765548
  C     -1.234922    0.954774   -0.696959
  C     -1.972653   -0.012711   -0.017513
  C     -1.350220   -1.104821    0.583208
  C      0.022177   -1.225023    0.501654
  N     -3.389821    0.112343    0.055875
  O     -4.019921   -0.744674    0.655061
  O     -3.918212    1.070750   -0.485085
  H      4.904586    1.203223   -0.252242
  H      4.702279   -0.531575   -0.596371
  H      4.981408    0.018455    1.071295
  H      1.585605    1.326803    1.420669
  H      2.841096    2.397172    0.761817
  H      3.208573    1.335244    2.130911
  H      0.720113    1.567466   -1.292856
  H     -1.749439    1.784104   -1.156319
  H     -1.950944   -1.839059    1.096454
  H      0.522146   -2.070479    0.946579

 Total Charge           Charge          ....    0
 Multiplicity           Mult            ....    1
 Number of Electrons    NEL             ....  102
 Basis Dimension        Dim             ....  341

ORBITAL ENERGIES
----------------

  NO   OCC          E(Eh)            E(eV)
   0   2.0000     -18.993544      -516.8406
   1   2.0000     -18.993357      -516.8355
   2   2.0000     -18.929914      -515.1092
   3   2.0000     -14.404669      -391.9710
   4   2.0000     -14.206896      -386.5893
   5   2.0000     -10.141857      -275.9740
   6   2.0000     -10.101676      -274.8806
   7   2.0000     -10.074357      -274.1372
   8   2.0000     -10.065007      -273.8828
   9   2.0000     -10.064705      -273.8746
  10   2.0000     -10.059104      -273.7221
  11   2.0000     -10.058494      -273.7055
  12   2.0000     -10.057758      -273.6855
  13   2.0000     -10.053541      -273.5708
  14   2.0000      -1.214605       -33.0511
  15   2.0000      -1.035252       -28.1706
  16   2.0000      -1.017236       -27.6804
  17   2.0000      -0.917461       -24.9654
  18   2.0000      -0.866138       -23.5688
  19   2.0000      -0.794610       -21.6224
  20   2.0000      -0.743678       -20.2365
  21   2.0000      -0.709380       -19.3032
  22   2.0000      -0.686627       -18.6841
  23   2.0000      -0.662414       -18.0252
  24   2.0000      -0.604635       -16.4530
  25   2.0000      -0.578403       -15.7391
  26   2.0000      -0.540941       -14.7198
  27   2.0000      -0.527609       -14.3570
  28   2.0000      -0.521421       -14.1886
  29   2.0000      -0.501969       -13.6593
  30   2.0000      -0.497467       -13.5368
  31   2.0000      -0.459917       -12.5150
  32   2.0000      -0.450775       -12.2662
  33   2.0000      -0.437091       -11.8938
  34   2.0000      -0.429932       -11.6990
  35   2.0000      -0.416147       -11.3239
  36   2.0000      -0.412546       -11.2260
  37   2.0000      -0.378026       -10.2866
  38   2.0000      -0.369356       -10.0507
  39   2.0000      -0.367228        -9.9928
  40   2.0000      -0.361574        -9.8389
  41   2.0000      -0.356307        -9.6956
  42   2.0000      -0.347725        -9.4621
  43   2.0000      -0.331461        -9.0195
  44   2.0000      -0.305673        -8.3178
  45   2.0000      -0.296505        -8.0683
  46   2.0000      -0.273152        -7.4328
  47   2.0000      -0.271378        -7.3846
  48   2.0000      -0.262475        -7.1423
  49   2.0000      -0.237356        -6.4588
  50   2.0000      -0.228059        -6.2058
  51   0.0000      -0.132590        -3.6080
  52   0.0000      -0.054408        -1.4805
  53   0.0000      -0.039293        -1.0692
  54   0.0000      -0.005567        -0.1515
  55   0.0000       0.064013         1.7419

MULLIKEN ATOMIC CHARGES
-----------------------
   0 C :   -0.429738
   1 N :    0.097112
   2 C :   -0.405355
   3 C :    0.263288
   4 O :   -0.554019
   5 C :    0.046709
   6 C :   -0.165873
   7 C :   -0.241656
   8 C :    0.079242
   9 C :   -0.248638
  10 C :   -0.178305
  11 N :    0.422442
  12 O :   -0.288131
  13 O :   -0.287814
  14 H :    0.174832
  15 H :    0.189066
  16 H :    0.179713
  17 H :    0.180302
  18 H :    0.186530
  19 H :    0.173760
  20 H :    0.197520
  21 H :    0.206898
  22 H :    0.206912
  23 H :    0.195202
Sum of atomic charges:    0.0000000

LOEWDIN ATOMIC CHARGES
----------------------
   0 C :   -0.103020
   1 N :   -0.805876
   2 C :   -0.091138
   3 C :    0.347942
   4 O :   -0.550157
   5 C :   -0.003281
   6 C :   -0.117732
   7 C :   -0.060331
   8 C :    0.191256
   9 C :   -0.061142
  10 C :   -0.113213
  11 N :   -0.491283
  12 O :   -0.053200
  13 O :   -0.053243
  14 H :    0.189207
  15 H :    0.203721
  16 H :    0.188198
  17 H :    0.199201
  18 H :    0.185928
  19 H :    0.189755
  20 H :    0.196594
  21 H :    0.207922
  22 H :    0.207770
  23 H :    0.196120

  Mayer bond orders larger than 0.100000
B(  0-C ,  1-N ) :   0.9171 B(  0-C , 14-H ) :   0.9408 B(  0-C , 15-H ) :   0.9564
B(  0-C , 16-H ) :   0.9458 B(  1-N ,  2-C ) :   0.9172 B(  1-N ,  3-C ) :   1.3253
B(  2-C , 17-H ) :   0.9472 B(  2-C , 18-H ) :   0.9453 B(  2-C , 19-H ) :   0.9437
B(  3-C ,  4-O ) :   1.7859 B(  3-C ,  5-C ) :   0.8603 B(  4-O ,  5-C ) :  -0.1016
B(  5-C ,  6-C ) :   1.3872 B(  5-C , 10-C ) :   1.3535 B(  6-C ,  7-C ) :   1.3355
B(  6-C , 20-H ) :   0.9414 B(  7-C ,  8-C ) :   1.3283 B(  7-C , 21-H ) :   0.9527
B(  8-C ,  9-C ) :   1.3227 B(  8-C , 11-N ) :   0.9966 B(  9-C , 10-C ) :   1.3226
B(  9-C , 22-H ) :   0.9551 B( 10-C , 23-H ) :   0.9543 B( 11-N , 12-O ) :   1.7851
B( 11-N , 13-O ) :   1.7860 B( 12-O , 13-O ) :   0.2304

Dispersion correction           -0.009417257
FINAL SINGLE POINT ENERGY      -683.945351293992

DIPOLE MOMENT
-------------

Method             : SCF
Type of density    : Electron Density
Multiplicity       :   1
Irrep              :   0
Energy             :  -683.9565931259973013 Eh
Relativity type    :
Basis              : AO
                                X                 Y                 Z
Electronic contribution:    -15.728510226      -3.182214178      -2.509304875
Nuclear contribution   :     18.463113554       4.857432564       3.863295160
                        -----------------------------------------
Total Dipole Moment    :      2.734603328       1.675218387       1.353990285
                        -----------------------------------------
Magnitude (a.u.)       :      3.481048937
Magnitude (Debye)      :      8.848123225

Rotational constants in cm-1:             0.068061             0.010704             0.010178
Rotational constants in MHz :          2040.409114           320.907796           305.119919

                             ****ORCA TERMINATED NORMALLY****
TOTAL RUN TIME: 0 days 0 hours 1 minutes 4 seconds 524 msec
