                         Program Version 6.0.0  -   RELEASE  -
|  1> ! pbe def2-sv(p) def2/J RI DEFGRID1 loosescf d4 GCP(DFT/SV(P)) printgap
|  2> %output
|  3>     printlevel normal
|  4> end
|  5> * xyz 0 1
|  6> C 1.9838763295 -1.2186825237 -0.2956949556
|  7> C 0.8252128672 -0.3560775081 0.2038680719
|  8> C 1.3414065936 1.0374829489 0.5650455731
|  9> C -0.2876326101 -0.2777862697 -0.8550078689
| 10> C -1.7010965006 -0.2301123601 -0.2656735349
| 11> O -1.9696033693 0.9110675232 0.523955283
| 12> H 1.65367489 -2.2375322208 -0.4840855393
| 13> H 2.7808988319 -1.2473085791 0.4436744226
| 14> H 2.387157346 -0.8098685888 -1.2194938183
| 15> H 0.4183650188 -0.8303318841 1.105123135
| 16> H 1.8901842104 1.4573963615 -0.2757228151
| 17> H 2.0128789927 0.9880022071 1.4194272328
| 18> H 0.5246060239 1.7136104387 0.8025596819
| 19> H -0.2467750043 -1.1580744232 -1.4981033805
| 20> H -0.1345447028 0.6026890742 -1.4807841713
| 21> H -2.4310023202 -0.1908851572 -1.0786128824
| 22> H -1.8868172552 -1.1411134911 0.318956679
| 23> H -1.4646151593 0.846343889 1.345518157
| 24> *
| 25>
| 26>                          ****END OF INPUT****

CARTESIAN COORDINATES (ANGSTROEM)
---------------------------------
  C      1.983876   -1.218683   -0.295695
  C      0.825213   -0.356078    0.203868
  C      1.341407    1.037483    0.565046
  C     -0.287633   -0.277786   -0.855008
  C     -1.701097   -0.230112   -0.265674
  O     -1.969603    0.911068    0.523955
  H      1.653675   -2.237532   -0.484086
  H      2.780899   -1.247309    0.443674
  H      2.387157   -0.809869   -1.219494
  H      0.418365   -0.830332    1.105123
  H      1.890184    1.457396   -0.275723
  H      2.012879    0.988002    1.419427
  H      0.524606    1.713610    0.802560
  H     -0.246775   -1.158074   -1.498103
  H     -0.134545    0.602689   -1.480784
  H     -2.431002   -0.190885   -1.078613
  H     -1.886817   -1.141113    0.318957
  H     -1.464615    0.846344    1.345518

 Total Charge           Charge          ....    0
 Multiplicity           Mult            ....    1
 Number of Electrons    NEL             ....   50
 Basis Dimension        Dim             ....  108

ORBITAL ENERGIES
----------------

  NO   OCC          E(Eh)            E(eV)
   0   2.0000     -18.740599      -509.9576
   1   2.0000      -9.926780      -270.1214
   2   2.0000      -9.899251      -269.3723
   3   2.0000      -9.880251      -268.8553
   4   2.0000      -9.875096      -268.7150
   5   2.0000      -9.874525      -268.6995
   6   2.0000      -0.916435       -24.9375
   7   2.0000      -0.731534       -19.9060
   8   2.0000      -0.652037       -17.7428
   9   2.0000      -0.612310       -16.6618
  10   2.0000      -0.558940       -15.2095
  11   2.0000      -0.502399       -13.6710
  12   2.0000      -0.457775       -12.4567
  13   2.0000      -0.408366       -11.1122
  14   2.0000      -0.402464       -10.9516
  15   2.0000      -0.393282       -10.7017
  16   2.0000      -0.367101        -9.9893
  17   2.0000      -0.343123        -9.3369
  18   2.0000      -0.339373        -9.2348
  19   2.0000      -0.323568        -8.8047
  20   2.0000      -0.300264        -8.1706
  21   2.0000      -0.288774        -7.8579
  22   2.0000      -0.285958        -7.7813
  23   2.0000      -0.263519        -7.1707
  24   2.0000      -0.211883        -5.7656
  25   0.0000       0.021080         0.5736
  26   0.0000       0.050699         1.3796
  27   0.0000       0.063211         1.7201
  28   0.0000       0.070488         1.9181
  29   0.0000       0.094267         2.5651

MULLIKEN ATOMIC CHARGES
-----------------------
   0 C :   -0.247718
   1 C :   -0.207052
   2 C :   -0.251918
   3 C :   -0.131123
   4 C :   -0.003281
   5 O :   -0.435472
   6 H :    0.100961
   7 H :    0.097335
   8 H :    0.098486
   9 H :    0.064859
  10 H :    0.098836
  11 H :    0.097952
  12 H :    0.090971
  13 H :    0.076507
  14 H :    0.086748
  15 H :    0.087951
  16 H :    0.072431
  17 H :    0.303526
Sum of atomic charges:    0.0000000

LOEWDIN ATOMIC CHARGES
----------------------
   0 C :   -0.328514
   1 C :   -0.163557
   2 C :   -0.334591
   3 C :   -0.241489
   4 C :   -0.120764
   5 O :   -0.340399
   6 H :    0.116140
   7 H :    0.116226
   8 H :    0.118026
   9 H :    0.106028
  10 H :    0.119129
  11 H :    0.116347
  12 H :    0.110944
  13 H :    0.119400
  14 H :    0.121104
  15 H :    0.111715
  16 H :    0.093617
  17 H :    0.280638

  Mayer bond orders larger than 0.100000
B(  0-C ,  1-C ) :   1.1183 B(  0-C ,  6-H ) :   0.9489 B(  0-C ,  7-H ) :   0.9529
B(  0-C ,  8-H ) :   0.9490 B(  1-C ,  2-C ) :   1.1105 B(  1-C ,  3-C ) :   1.0420
B(  1-C ,  9-H ) :   0.9115 B(  2-C , 10-H ) :   0.9468 B(  2-C , 11-H ) :   0.9497
B(  2-C , 12-H ) :   0.9366 B(  3-C ,  4-C ) :   1.0992 B(  3-C , 13-H ) :   0.9120
B(  3-C , 14-H ) :   0.9093 B(  4-C ,  5-O ) :   1.0806 B(  4-C , 15-H ) :   0.9314
B(  4-C , 16-H ) :   0.9282 B(  5-O , 17-H ) :   0.8418

Dispersion correction           -0.012954466
FINAL SINGLE POINT ENERGY      -272.299029431872

DIPOLE MOMENT
-------------

Method             : SCF
Type of density    : Electron Density
Multiplicity       :   1
Irrep              :   0
Energy             :  -272.3690972950863625 Eh
Relativity type    :
Basis              : AO
                                X                 Y                 Z
Electronic contribution:     -4.735214324       1.445703040       0.746145634
Nuclear contribution   :      5.134433006      -1.869441647      -0.556570311
                        -----------------------------------------
Total Dipole Moment    :      0.399218681      -0.423738607       0.189575323
                        -----------------------------------------
Magnitude (a.u.)       :      0.612265274
Magnitude (Debye)      :      1.556254649

Rotational constants in cm-1:             0.194616             0.070704             0.057552
Rotational constants in MHz :          5834.439690          2119.647670          1725.364266

                             ****ORCA TERMINATED NORMALLY****
TOTAL RUN TIME: 0 days 0 hours 0 minutes 8 seconds 236 msec
