                         Program Version 6.0.0  -   RELEASE  -
|  1> ! pbe def2-sv(p) def2/J RI DEFGRID1 loosescf d4 GCP(DFT/SV(P)) printgap
|  2> %output
|  3>     printlevel normal
|  4> end
|  5> * xyz 0 1
|  6> C 2.0922757105 -0.6960881831 -0.7790814627
|  7> C 1.4758112085 -0.4735439297 0.5971649504
|  8> C 0.1987224243 0.3781015207 0.5671097882
|  9> H -0.1899683071 0.4291504634 1.5993989935
| 10> C -0.9192980097 -0.1840714872 -0.3354593388
| 11> C -1.2890512258 -1.6100014685 0.0678210405
| 12> C -2.1647985437 0.7030758428 -0.2645797099
| 13> O 0.5996577574 1.678575185 0.1617849579
| 14> H 3.0700297195 -1.1598502782 -0.6762601618
| 15> H 2.2115078223 0.2587557722 -1.2845489809
| 16> H 1.4695640488 -1.3426090156 -1.3914386548
| 17> H 1.2631718988 -1.4267357255 1.0797058766
| 18> H 2.1932782818 0.0659073377 1.2192490282
| 19> H -0.5541120084 -0.1807564048 -1.3666641104
| 20> H -1.5603845 -1.6450633405 1.1208852675
| 21> H -2.1402022607 -1.9501665613 -0.5170833623
| 22> H -0.467036264 -2.29849664 -0.1016829772
| 23> H -1.9702468177 1.6946564046 -0.6657675375
| 24> H -2.5075636652 0.7967104629 0.7644517752
| 25> H -2.966061738 0.2615283931 -0.8520048112
| 26> H -0.1452923824 2.2850874469 0.2556586586
| 27> *
| 28>
| 29>                          ****END OF INPUT****

CARTESIAN COORDINATES (ANGSTROEM)
---------------------------------
  C      2.092276   -0.696088   -0.779081
  C      1.475811   -0.473544    0.597165
  C      0.198722    0.378102    0.567110
  H     -0.189968    0.429150    1.599399
  C     -0.919298   -0.184071   -0.335459
  C     -1.289051   -1.610001    0.067821
  C     -2.164799    0.703076   -0.264580
  O      0.599658    1.678575    0.161785
  H      3.070030   -1.159850   -0.676260
  H      2.211508    0.258756   -1.284549
  H      1.469564   -1.342609   -1.391439
  H      1.263172   -1.426736    1.079706
  H      2.193278    0.065907    1.219249
  H     -0.554112   -0.180756   -1.366664
  H     -1.560385   -1.645063    1.120885
  H     -2.140202   -1.950167   -0.517083
  H     -0.467036   -2.298497   -0.101683
  H     -1.970247    1.694656   -0.665768
  H     -2.507564    0.796710    0.764452
  H     -2.966062    0.261528   -0.852005
  H     -0.145292    2.285087    0.255659

 Total Charge           Charge          ....    0
 Multiplicity           Mult            ....    1
 Number of Electrons    NEL             ....   58
 Basis Dimension        Dim             ....  126

ORBITAL ENERGIES
----------------

  NO   OCC          E(Eh)            E(eV)
   0   2.0000     -18.737757      -509.8803
   1   2.0000      -9.931717      -270.2558
   2   2.0000      -9.892526      -269.1893
   3   2.0000      -9.879265      -268.8285
   4   2.0000      -9.877263      -268.7740
   5   2.0000      -9.875530      -268.7268
   6   2.0000      -9.865430      -268.4520
   7   2.0000      -0.915367       -24.9084
   8   2.0000      -0.726860       -19.7789
   9   2.0000      -0.682706       -18.5774
  10   2.0000      -0.613767       -16.7014
  11   2.0000      -0.597506       -16.2590
  12   2.0000      -0.534764       -14.5517
  13   2.0000      -0.490450       -13.3458
  14   2.0000      -0.467308       -12.7161
  15   2.0000      -0.415319       -11.3014
  16   2.0000      -0.389693       -10.6041
  17   2.0000      -0.388017       -10.5585
  18   2.0000      -0.373356       -10.1595
  19   2.0000      -0.352521        -9.5926
  20   2.0000      -0.345283        -9.3956
  21   2.0000      -0.330498        -8.9933
  22   2.0000      -0.314471        -8.5572
  23   2.0000      -0.306645        -8.3442
  24   2.0000      -0.299628        -8.1533
  25   2.0000      -0.287662        -7.8277
  26   2.0000      -0.280742        -7.6394
  27   2.0000      -0.260342        -7.0843
  28   2.0000      -0.209395        -5.6979
  29   0.0000       0.021791         0.5930
  30   0.0000       0.052474         1.4279
  31   0.0000       0.060197         1.6381
  32   0.0000       0.066216         1.8018
  33   0.0000       0.090647         2.4666

MULLIKEN ATOMIC CHARGES
-----------------------
   0 C :   -0.296708
   1 C :   -0.144112
   2 C :    0.047203
   3 H :    0.047109
   4 C :   -0.166205
   5 C :   -0.260580
   6 C :   -0.267267
   7 O :   -0.424910
   8 H :    0.099795
   9 H :    0.116625
  10 H :    0.103223
  11 H :    0.086592
  12 H :    0.086435
  13 H :    0.079361
  14 H :    0.094709
  15 H :    0.098793
  16 H :    0.113129
  17 H :    0.090662
  18 H :    0.094128
  19 H :    0.105199
  20 H :    0.296820
Sum of atomic charges:    0.0000000

LOEWDIN ATOMIC CHARGES
----------------------
   0 C :   -0.344479
   1 C :   -0.236210
   2 C :   -0.044002
   3 H :    0.092691
   4 C :   -0.172348
   5 C :   -0.329352
   6 C :   -0.336418
   7 O :   -0.329169
   8 H :    0.119168
   9 H :    0.124640
  10 H :    0.113681
  11 H :    0.116547
  12 H :    0.122352
  13 H :    0.119066
  14 H :    0.117362
  15 H :    0.119016
  16 H :    0.119039
  17 H :    0.110346
  18 H :    0.116029
  19 H :    0.122115
  20 H :    0.279924

  Mayer bond orders larger than 0.100000
B(  0-C ,  1-C ) :   1.1565 B(  0-C ,  8-H ) :   0.9509 B(  0-C ,  9-H ) :   0.9482
B(  0-C , 10-H ) :   0.9452 B(  1-C ,  2-C ) :   1.0877 B(  1-C , 11-H ) :   0.9160
B(  1-C , 12-H ) :   0.9138 B(  2-C ,  3-H ) :   0.8990 B(  2-C ,  4-C ) :   1.0134
B(  2-C ,  7-O ) :   1.0532 B(  4-C ,  5-C ) :   1.0944 B(  4-C ,  6-C ) :   1.1040
B(  4-C , 13-H ) :   0.8832 B(  5-C , 14-H ) :   0.9484 B(  5-C , 15-H ) :   0.9464
B(  5-C , 16-H ) :   0.9409 B(  6-C , 17-H ) :   0.9398 B(  6-C , 18-H ) :   0.9487
B(  6-C , 19-H ) :   0.9490 B(  7-O , 20-H ) :   0.8447

Dispersion correction           -0.017018892
FINAL SINGLE POINT ENERGY      -311.517915513469

DIPOLE MOMENT
-------------

Method             : SCF
Type of density    : Electron Density
Multiplicity       :   1
Irrep              :   0
Energy             :  -311.5977205789238837 Eh
Relativity type    :
Basis              : AO
                                X                 Y                 Z
Electronic contribution:      1.608382173       3.849270412       0.888115495
Nuclear contribution   :     -2.142606250      -3.926522507      -0.763235192
                        -----------------------------------------
Total Dipole Moment    :     -0.534224077      -0.077252095       0.124880303
                        -----------------------------------------
Magnitude (a.u.)       :      0.554038212
Magnitude (Debye)      :      1.408253219

Rotational constants in cm-1:             0.111316             0.066530             0.049423
Rotational constants in MHz :          3337.165183          1994.530212          1481.667701

                             ****ORCA TERMINATED NORMALLY****
TOTAL RUN TIME: 0 days 0 hours 0 minutes 9 seconds 194 msec
