                         Program Version 6.0.0  -   RELEASE  -
|  1> ! r2scan-3c def2/J RI DEFGRID2 scfconv6 printgap
|  2> %output
|  3>     printlevel normal
|  4> end
|  5> * xyz 0 1
|  6> C 1.8347528274 0.9020707876 -0.9747615152
|  7> C 1.4497448541 -0.232330882 -0.0253550142
|  8> H 2.191576573 -1.0333292727 -0.1433332216
|  9> C 0.0670949468 -0.8575267389 -0.3174828071
| 10> C -1.1718097289 -0.1329177038 0.2293971385
| 11> C -1.5434369695 1.1214360095 -0.5596773311
| 12> C -2.3562030663 -1.102039901 0.2088897654
| 13> O 1.5897594036 0.1592773155 1.3296856776
| 14> H 1.7630630893 0.5657456229 -2.00441601
| 15> H 1.1905476576 1.7659854427 -0.8424404571
| 16> H 2.8603065786 1.2057900437 -0.7766766995
| 17> H -0.028291027 -0.9807258217 -1.3972011152
| 18> H 0.0766708804 -1.8545078041 0.129295683
| 19> H -0.9832934759 0.1402206288 1.2734046393
| 20> H -1.6279513372 0.8898241282 -1.6190265628
| 21> H -0.8115236453 1.9134326652 -0.4373796285
| 22> H -2.5028715941 1.5026418371 -0.2160947744
| 23> H -3.2467598169 -0.6232609192 0.6092910232
| 24> H -2.5657546161 -1.4196861576 -0.8103070125
| 25> H -2.1452750303 -1.9848089149 0.8079813774
| 26> H 1.0890135102 0.9749605468 1.4677133755
| 27> *
| 28>
| 29>                          ****END OF INPUT****

CARTESIAN COORDINATES (ANGSTROEM)
---------------------------------
  C      1.834753    0.902071   -0.974762
  C      1.449745   -0.232331   -0.025355
  H      2.191577   -1.033329   -0.143333
  C      0.067095   -0.857527   -0.317483
  C     -1.171810   -0.132918    0.229397
  C     -1.543437    1.121436   -0.559677
  C     -2.356203   -1.102040    0.208890
  O      1.589759    0.159277    1.329686
  H      1.763063    0.565746   -2.004416
  H      1.190548    1.765985   -0.842440
  H      2.860307    1.205790   -0.776677
  H     -0.028291   -0.980726   -1.397201
  H      0.076671   -1.854508    0.129296
  H     -0.983293    0.140221    1.273405
  H     -1.627951    0.889824   -1.619027
  H     -0.811524    1.913433   -0.437380
  H     -2.502872    1.502642   -0.216095
  H     -3.246760   -0.623261    0.609291
  H     -2.565755   -1.419686   -0.810307
  H     -2.145275   -1.984809    0.807981
  H      1.089014    0.974961    1.467713

 Total Charge           Charge          ....    0
 Multiplicity           Mult            ....    1
 Number of Electrons    NEL             ....   58
 Basis Dimension        Dim             ....  208

ORBITAL ENERGIES
----------------

  NO   OCC          E(Eh)            E(eV)
   0   2.0000     -18.944554      -515.5075
   1   2.0000     -10.080197      -274.2961
   2   2.0000     -10.036413      -273.1047
   3   2.0000     -10.021882      -272.7093
   4   2.0000     -10.019203      -272.6364
   5   2.0000     -10.019101      -272.6336
   6   2.0000     -10.016141      -272.5531
   7   2.0000      -0.982849       -26.7447
   8   2.0000      -0.777625       -21.1603
   9   2.0000      -0.720851       -19.6154
  10   2.0000      -0.657926       -17.9031
  11   2.0000      -0.647023       -17.6064
  12   2.0000      -0.575151       -15.6507
  13   2.0000      -0.525777       -14.3071
  14   2.0000      -0.453927       -12.3520
  15   2.0000      -0.436759       -11.8848
  16   2.0000      -0.433804       -11.8044
  17   2.0000      -0.398887       -10.8543
  18   2.0000      -0.390477       -10.6254
  19   2.0000      -0.373123       -10.1532
  20   2.0000      -0.363116        -9.8809
  21   2.0000      -0.353985        -9.6324
  22   2.0000      -0.348330        -9.4785
  23   2.0000      -0.321248        -8.7416
  24   2.0000      -0.307165        -8.3584
  25   2.0000      -0.295376        -8.0376
  26   2.0000      -0.294151        -8.0043
  27   2.0000      -0.273930        -7.4540
  28   2.0000      -0.233312        -6.3487
  29   0.0000       0.051421         1.3992
  30   0.0000       0.093557         2.5458
  31   0.0000       0.106802         2.9062
  32   0.0000       0.110055         2.9947
  33   0.0000       0.130067         3.5393

MULLIKEN ATOMIC CHARGES
-----------------------
   0 C :   -0.484788
   1 C :   -0.025167
   2 H :    0.141706
   3 C :   -0.237768
   4 C :   -0.064607
   5 C :   -0.499702
   6 C :   -0.481950
   7 O :   -0.408733
   8 H :    0.147960
   9 H :    0.133264
  10 H :    0.161336
  11 H :    0.143955
  12 H :    0.149085
  13 H :    0.156392
  14 H :    0.158395
  15 H :    0.133778
  16 H :    0.144267
  17 H :    0.146046
  18 H :    0.145231
  19 H :    0.148643
  20 H :    0.292657
Sum of atomic charges:   -0.0000000

LOEWDIN ATOMIC CHARGES
----------------------
   0 C :   -0.399983
   1 C :    0.046191
   2 H :    0.181183
   3 C :   -0.282449
   4 C :   -0.244212
   5 C :   -0.416105
   6 C :   -0.414900
   7 O :   -0.606981
   8 H :    0.158342
   9 H :    0.151052
  10 H :    0.160082
  11 H :    0.162491
  12 H :    0.165697
  13 H :    0.159274
  14 H :    0.155299
  15 H :    0.146048
  16 H :    0.153645
  17 H :    0.151544
  18 H :    0.154295
  19 H :    0.153766
  20 H :    0.265723

  Mayer bond orders larger than 0.100000
B(  0-C ,  1-C ) :   0.9628 B(  0-C ,  8-H ) :   0.9748 B(  0-C ,  9-H ) :   0.9669
B(  0-C , 10-H ) :   0.9725 B(  1-C ,  2-H ) :   0.9635 B(  1-C ,  3-C ) :   0.9059
B(  1-C ,  7-O ) :   0.9559 B(  3-C ,  4-C ) :   0.8486 B(  3-C , 11-H ) :   0.9786
B(  3-C , 12-H ) :   0.9731 B(  4-C ,  5-C ) :   0.8967 B(  4-C ,  6-C ) :   0.9091
B(  4-C , 13-H ) :   0.9689 B(  5-C , 14-H ) :   0.9885 B(  5-C , 15-H ) :   0.9677
B(  5-C , 16-H ) :   0.9730 B(  6-C , 17-H ) :   0.9781 B(  6-C , 18-H ) :   0.9832
B(  6-C , 19-H ) :   0.9782 B(  7-O , 20-H ) :   0.8944

Dispersion correction           -0.005688705
FINAL SINGLE POINT ENERGY      -312.198340464177

DIPOLE MOMENT
-------------

Method             : SCF
Type of density    : Electron Density
Multiplicity       :   1
Irrep              :   0
Energy             :  -312.2039662345083002 Eh
Relativity type    :
Basis              : AO
                                X                 Y                 Z
Electronic contribution:      4.088408535      -0.748183414       3.275059467
Nuclear contribution   :     -4.423810676       0.998958072      -3.694633591
                        -----------------------------------------
Total Dipole Moment    :     -0.335402141       0.250774658      -0.419574124
                        -----------------------------------------
Magnitude (a.u.)       :      0.592811075
Magnitude (Debye)      :      1.506806005

Rotational constants in cm-1:             0.131847             0.052490             0.046680
Rotational constants in MHz :          3952.660223          1573.611695          1399.439820

                             ****ORCA TERMINATED NORMALLY****
TOTAL RUN TIME: 0 days 0 hours 0 minutes 28 seconds 262 msec
