                         Program Version 6.0.0  -   RELEASE  -
|  1> ! r2scan-3c def2/J RI DEFGRID2 scfconv6 printgap
|  2> %output
|  3>     printlevel normal
|  4> end
|  5> * xyz 0 1
|  6> C 2.0357931888 1.9091576283 -0.3983286345
|  7> C 2.2984131156 0.4111215632 -0.4960231767
|  8> C 1.4464395841 -0.3901522557 0.4983810079
|  9> H 1.66281753 -0.0154998105 1.5053234168
| 10> C 1.813748985 -1.8758207613 0.454086912
| 11> C -0.0266665314 -0.1988753565 0.2340958657
| 12> C -0.8464892619 0.373428496 1.198563871
| 13> C -2.1992814102 0.5542408744 0.968086254
| 14> C -2.7557528974 0.1630479443 -0.2370786633
| 15> C -1.9496589586 -0.409702655 -1.2064952968
| 16> C -0.5984986186 -0.5887799957 -0.9717211011
| 17> H 2.2563056353 2.2705552558 0.6037723118
| 18> H 2.6596656017 2.451618609 -1.1044513657
| 19> H 0.9930330653 2.128340618 -0.6185847782
| 20> H 2.088685857 0.0721866169 -1.5119822938
| 21> H 3.352941346 0.2140435495 -0.2910542029
| 22> H 2.8589798819 -2.0128049743 0.7211516269
| 23> H 1.1996859087 -2.4369628105 1.1548500696
| 24> H 1.6575238053 -2.2831831933 -0.5414146998
| 25> H -0.4202913263 0.683868721 2.1422300181
| 26> H -2.8194937327 1.0021531195 1.7306774203
| 27> H -3.8106476216 0.3033446033 -0.4204595653
| 28> H -2.3762140361 -0.7178461339 -2.1499353469
| 29> H 0.0154277084 -1.0361512124 -1.7393047669
| 30> *
| 31>
| 32>                          ****END OF INPUT****

CARTESIAN COORDINATES (ANGSTROEM)
---------------------------------
  C      2.035793    1.909158   -0.398329
  C      2.298413    0.411122   -0.496023
  C      1.446440   -0.390152    0.498381
  H      1.662818   -0.015500    1.505323
  C      1.813749   -1.875821    0.454087
  C     -0.026667   -0.198875    0.234096
  C     -0.846489    0.373428    1.198564
  C     -2.199281    0.554241    0.968086
  C     -2.755753    0.163048   -0.237079
  C     -1.949659   -0.409703   -1.206495
  C     -0.598499   -0.588780   -0.971721
  H      2.256306    2.270555    0.603772
  H      2.659666    2.451619   -1.104451
  H      0.993033    2.128341   -0.618585
  H      2.088686    0.072187   -1.511982
  H      3.352941    0.214044   -0.291054
  H      2.858980   -2.012805    0.721152
  H      1.199686   -2.436963    1.154850
  H      1.657524   -2.283183   -0.541415
  H     -0.420291    0.683869    2.142230
  H     -2.819494    1.002153    1.730677
  H     -3.810648    0.303345   -0.420460
  H     -2.376214   -0.717846   -2.149935
  H      0.015428   -1.036151   -1.739305

 Total Charge           Charge          ....    0
 Multiplicity           Mult            ....    1
 Number of Electrons    NEL             ....   74
 Basis Dimension        Dim             ....  260

ORBITAL ENERGIES
----------------

  NO   OCC          E(Eh)            E(eV)
   0   2.0000     -10.038635      -273.1652
   1   2.0000     -10.038476      -273.1608
   2   2.0000     -10.032259      -272.9917
   3   2.0000     -10.031442      -272.9694
   4   2.0000     -10.030194      -272.9355
   5   2.0000     -10.029489      -272.9163
   6   2.0000     -10.029299      -272.9111
   7   2.0000     -10.026080      -272.8235
   8   2.0000     -10.018265      -272.6109
   9   2.0000     -10.012557      -272.4555
  10   2.0000      -0.829662       -22.5763
  11   2.0000      -0.777004       -21.1433
  12   2.0000      -0.713737       -19.4218
  13   2.0000      -0.711105       -19.3502
  14   2.0000      -0.686267       -18.6743
  15   2.0000      -0.603170       -16.4131
  16   2.0000      -0.579633       -15.7726
  17   2.0000      -0.569667       -15.5014
  18   2.0000      -0.527602       -14.3568
  19   2.0000      -0.481602       -13.1051
  20   2.0000      -0.441573       -12.0158
  21   2.0000      -0.419480       -11.4146
  22   2.0000      -0.410400       -11.1675
  23   2.0000      -0.404718       -11.0129
  24   2.0000      -0.388896       -10.5824
  25   2.0000      -0.384267       -10.4564
  26   2.0000      -0.380880       -10.3643
  27   2.0000      -0.351670        -9.5694
  28   2.0000      -0.336695        -9.1619
  29   2.0000      -0.334482        -9.1017
  30   2.0000      -0.319570        -8.6959
  31   2.0000      -0.311853        -8.4860
  32   2.0000      -0.298650        -8.1267
  33   2.0000      -0.292652        -7.9635
  34   2.0000      -0.285154        -7.7594
  35   2.0000      -0.234877        -6.3913
  36   2.0000      -0.224758        -6.1160
  37   0.0000      -0.030849        -0.8394
  38   0.0000      -0.026282        -0.7152
  39   0.0000       0.077029         2.0961
  40   0.0000       0.097438         2.6514
  41   0.0000       0.098512         2.6806

MULLIKEN ATOMIC CHARGES
-----------------------
   0 C :   -0.493719
   1 C :   -0.234162
   2 C :   -0.126200
   3 H :    0.157700
   4 C :   -0.480901
   5 C :    0.163891
   6 C :   -0.213355
   7 C :   -0.164612
   8 C :   -0.148912
   9 C :   -0.160836
  10 C :   -0.234487
  11 H :    0.143611
  12 H :    0.144298
  13 H :    0.167256
  14 H :    0.146641
  15 H :    0.143213
  16 H :    0.147648
  17 H :    0.157896
  18 H :    0.151048
  19 H :    0.148253
  20 H :    0.144551
  21 H :    0.145839
  22 H :    0.144025
  23 H :    0.151314
Sum of atomic charges:    0.0000000

LOEWDIN ATOMIC CHARGES
----------------------
   0 C :   -0.417394
   1 C :   -0.296617
   2 C :   -0.216591
   3 H :    0.163115
   4 C :   -0.397633
   5 C :   -0.087185
   6 C :   -0.163571
   7 C :   -0.162384
   8 C :   -0.173404
   9 C :   -0.160917
  10 C :   -0.160211
  11 H :    0.150192
  12 H :    0.150134
  13 H :    0.159705
  14 H :    0.155781
  15 H :    0.154484
  16 H :    0.152770
  17 H :    0.158628
  18 H :    0.154845
  19 H :    0.168602
  20 H :    0.166422
  21 H :    0.166136
  22 H :    0.166245
  23 H :    0.168849

  Mayer bond orders larger than 0.100000
B(  0-C ,  1-C ) :   0.8860 B(  0-C , 11-H ) :   0.9831 B(  0-C , 12-H ) :   0.9697
B(  0-C , 13-H ) :   0.9777 B(  1-C ,  2-C ) :   0.9287 B(  1-C , 14-H ) :   0.9712
B(  1-C , 15-H ) :   0.9670 B(  2-C ,  3-H ) :   1.0292 B(  2-C ,  4-C ) :   0.9250
B(  2-C ,  5-C ) :   0.7692 B(  4-C , 16-H ) :   0.9765 B(  4-C , 17-H ) :   0.9760
B(  4-C , 18-H ) :   0.9765 B(  5-C ,  6-C ) :   1.4092 B(  5-C , 10-C ) :   1.3880
B(  6-C ,  7-C ) :   1.4358 B(  6-C , 19-H ) :   0.9464 B(  7-C ,  8-C ) :   1.4322
B(  7-C , 20-H ) :   0.9484 B(  8-C ,  9-C ) :   1.4219 B(  8-C , 21-H ) :   0.9482
B(  9-C , 10-C ) :   1.4579 B(  9-C , 22-H ) :   0.9517 B( 10-C , 23-H ) :   0.9435

Dispersion correction           -0.008499636
FINAL SINGLE POINT ENERGY      -389.380570134502

DIPOLE MOMENT
-------------

Method             : SCF
Type of density    : Electron Density
Multiplicity       :   1
Irrep              :   0
Energy             :  -389.3803423441754603 Eh
Relativity type    :
Basis              : AO
                                X                 Y                 Z
Electronic contribution:     -8.602275259      -0.594124315       0.496685960
Nuclear contribution   :      8.742230341       0.585099776      -0.487079374
                        -----------------------------------------
Total Dipole Moment    :      0.139955081      -0.009024539       0.009606586
                        -----------------------------------------
Magnitude (a.u.)       :      0.140574370
Magnitude (Debye)      :      0.357311654

Rotational constants in cm-1:             0.073308             0.030548             0.028326
Rotational constants in MHz :          2197.709170           915.794351           849.205491

                             ****ORCA TERMINATED NORMALLY****
TOTAL RUN TIME: 0 days 0 hours 0 minutes 31 seconds 646 msec
