                         Program Version 6.0.0  -   RELEASE  -
|  1> ! r2scan-3c def2/J RI DEFGRID2 scfconv6 printgap
|  2> %output
|  3>     printlevel normal
|  4> end
|  5> %cpcm
|  6>     smd true
|  7>     smdsolvent "water"
|  8> end
|  9> * xyz 0 1
| 10> C 2.0357931888 1.9091576283 -0.3983286345
| 11> C 2.2984131156 0.4111215632 -0.4960231767
| 12> C 1.4464395841 -0.3901522557 0.4983810079
| 13> H 1.66281753 -0.0154998105 1.5053234168
| 14> C 1.813748985 -1.8758207613 0.454086912
| 15> C -0.0266665314 -0.1988753565 0.2340958657
| 16> C -0.8464892619 0.373428496 1.198563871
| 17> C -2.1992814102 0.5542408744 0.968086254
| 18> C -2.7557528974 0.1630479443 -0.2370786633
| 19> C -1.9496589586 -0.409702655 -1.2064952968
| 20> C -0.5984986186 -0.5887799957 -0.9717211011
| 21> H 2.2563056353 2.2705552558 0.6037723118
| 22> H 2.6596656017 2.451618609 -1.1044513657
| 23> H 0.9930330653 2.128340618 -0.6185847782
| 24> H 2.088685857 0.0721866169 -1.5119822938
| 25> H 3.352941346 0.2140435495 -0.2910542029
| 26> H 2.8589798819 -2.0128049743 0.7211516269
| 27> H 1.1996859087 -2.4369628105 1.1548500696
| 28> H 1.6575238053 -2.2831831933 -0.5414146998
| 29> H -0.4202913263 0.683868721 2.1422300181
| 30> H -2.8194937327 1.0021531195 1.7306774203
| 31> H -3.8106476216 0.3033446033 -0.4204595653
| 32> H -2.3762140361 -0.7178461339 -2.1499353469
| 33> H 0.0154277084 -1.0361512124 -1.7393047669
| 34> *
| 35>
| 36>                          ****END OF INPUT****

CARTESIAN COORDINATES (ANGSTROEM)
---------------------------------
  C      2.035793    1.909158   -0.398329
  C      2.298413    0.411122   -0.496023
  C      1.446440   -0.390152    0.498381
  H      1.662818   -0.015500    1.505323
  C      1.813749   -1.875821    0.454087
  C     -0.026667   -0.198875    0.234096
  C     -0.846489    0.373428    1.198564
  C     -2.199281    0.554241    0.968086
  C     -2.755753    0.163048   -0.237079
  C     -1.949659   -0.409703   -1.206495
  C     -0.598499   -0.588780   -0.971721
  H      2.256306    2.270555    0.603772
  H      2.659666    2.451619   -1.104451
  H      0.993033    2.128341   -0.618585
  H      2.088686    0.072187   -1.511982
  H      3.352941    0.214044   -0.291054
  H      2.858980   -2.012805    0.721152
  H      1.199686   -2.436963    1.154850
  H      1.657524   -2.283183   -0.541415
  H     -0.420291    0.683869    2.142230
  H     -2.819494    1.002153    1.730677
  H     -3.810648    0.303345   -0.420460
  H     -2.376214   -0.717846   -2.149935
  H      0.015428   -1.036151   -1.739305

 Total Charge           Charge          ....    0
 Multiplicity           Mult            ....    1
 Number of Electrons    NEL             ....   74
 Basis Dimension        Dim             ....  260

ORBITAL ENERGIES
----------------

  NO   OCC          E(Eh)            E(eV)
   0   2.0000     -10.037298      -273.1288
   1   2.0000     -10.031354      -272.9670
   2   2.0000     -10.030558      -272.9454
   3   2.0000     -10.029967      -272.9293
   4   2.0000     -10.027970      -272.8749
   5   2.0000     -10.027651      -272.8663
   6   2.0000     -10.027186      -272.8536
   7   2.0000     -10.018294      -272.6116
   8   2.0000     -10.010436      -272.3978
   9   2.0000     -10.007539      -272.3190
  10   2.0000      -0.829106       -22.5611
  11   2.0000      -0.772133       -21.0108
  12   2.0000      -0.712713       -19.3939
  13   2.0000      -0.707876       -19.2623
  14   2.0000      -0.681258       -18.5380
  15   2.0000      -0.597867       -16.2688
  16   2.0000      -0.575747       -15.6669
  17   2.0000      -0.566501       -15.4153
  18   2.0000      -0.522708       -14.2236
  19   2.0000      -0.476870       -12.9763
  20   2.0000      -0.436574       -11.8798
  21   2.0000      -0.415144       -11.2966
  22   2.0000      -0.406158       -11.0521
  23   2.0000      -0.399620       -10.8742
  24   2.0000      -0.384468       -10.4619
  25   2.0000      -0.378580       -10.3017
  26   2.0000      -0.375035       -10.2052
  27   2.0000      -0.348218        -9.4755
  28   2.0000      -0.336856        -9.1663
  29   2.0000      -0.328495        -8.9388
  30   2.0000      -0.313966        -8.5435
  31   2.0000      -0.306461        -8.3392
  32   2.0000      -0.293217        -7.9789
  33   2.0000      -0.285588        -7.7712
  34   2.0000      -0.279460        -7.6045
  35   2.0000      -0.237424        -6.4606
  36   2.0000      -0.226057        -6.1513
  37   0.0000      -0.032130        -0.8743
  38   0.0000      -0.027583        -0.7506
  39   0.0000       0.085378         2.3233
  40   0.0000       0.104589         2.8460
  41   0.0000       0.108883         2.9629

MULLIKEN ATOMIC CHARGES
-----------------------
   0 C :   -0.536899
   1 C :   -0.253612
   2 C :   -0.067512
   3 H :    0.175161
   4 C :   -0.535930
   5 C :    0.105072
   6 C :   -0.237613
   7 C :   -0.202865
   8 C :   -0.183177
   9 C :   -0.198590
  10 C :   -0.252641
  11 H :    0.159373
  12 H :    0.157215
  13 H :    0.164187
  14 H :    0.162323
  15 H :    0.156223
  16 H :    0.162715
  17 H :    0.164809
  18 H :    0.168890
  19 H :    0.179067
  20 H :    0.175784
  21 H :    0.177595
  22 H :    0.175300
  23 H :    0.185125
Sum of atomic charges:    0.0000000

LOEWDIN ATOMIC CHARGES
----------------------
   0 C :   -0.425647
   1 C :   -0.297876
   2 C :   -0.214056
   3 H :    0.169199
   4 C :   -0.405632
   5 C :   -0.093337
   6 C :   -0.174044
   7 C :   -0.175184
   8 C :   -0.187709
   9 C :   -0.173385
  10 C :   -0.168471
  11 H :    0.153994
  12 H :    0.153307
  13 H :    0.155973
  14 H :    0.159923
  15 H :    0.158808
  16 H :    0.157591
  17 H :    0.158755
  18 H :    0.159223
  19 H :    0.178931
  20 H :    0.176551
  21 H :    0.175937
  22 H :    0.176430
  23 H :    0.180717

  Mayer bond orders larger than 0.100000
B(  0-C ,  1-C ) :   0.8747 B(  0-C , 11-H ) :   0.9800 B(  0-C , 12-H ) :   0.9677
B(  0-C , 13-H ) :   0.9790 B(  1-C ,  2-C ) :   0.9147 B(  1-C , 14-H ) :   0.9732
B(  1-C , 15-H ) :   0.9651 B(  2-C ,  3-H ) :   1.0246 B(  2-C ,  4-C ) :   0.8997
B(  2-C ,  5-C ) :   0.7737 B(  4-C , 16-H ) :   0.9725 B(  4-C , 17-H ) :   0.9756
B(  4-C , 18-H ) :   0.9759 B(  5-C ,  6-C ) :   1.3807 B(  5-C , 10-C ) :   1.3692
B(  6-C ,  7-C ) :   1.4001 B(  6-C , 19-H ) :   0.9544 B(  7-C ,  8-C ) :   1.3917
B(  7-C , 20-H ) :   0.9587 B(  8-C ,  9-C ) :   1.3804 B(  8-C , 21-H ) :   0.9555
B(  9-C , 10-C ) :   1.4177 B(  9-C , 22-H ) :   0.9624 B( 10-C , 23-H ) :   0.9491

Dispersion correction           -0.008499636
FINAL SINGLE POINT ENERGY      -389.380927436853

DIPOLE MOMENT
-------------

Method             : SCF
Type of density    : Electron Density
Multiplicity       :   1
Irrep              :   0
Energy             :  -389.3806996465262955 Eh
Relativity type    :
Basis              : AO
                                X                 Y                 Z
Electronic contribution:     -8.462329825      -0.615177286       0.495072023
Nuclear contribution   :      8.742230341       0.585099776      -0.487079374
                        -----------------------------------------
Total Dipole Moment    :      0.279900516      -0.030077510       0.007992648
                        -----------------------------------------
Magnitude (a.u.)       :      0.281625350
Magnitude (Debye)      :      0.715834751

Rotational constants in cm-1:             0.073308             0.030548             0.028326
Rotational constants in MHz :          2197.709170           915.794351           849.205491

                             ****ORCA TERMINATED NORMALLY****
TOTAL RUN TIME: 0 days 0 hours 0 minutes 38 seconds 587 msec
