                         Program Version 6.0.0  -   RELEASE  -
|  1> ! pbe def2-sv(p) def2/J RI DEFGRID1 loosescf d4 GCP(DFT/SV(P)) printgap
|  2> %output
|  3>     printlevel normal
|  4> end
|  5> * xyz 0 1
|  6> C -1.6008494103 -0.1665885079 1.5072863661
|  7> C -1.2985051114 -0.4716571238 0.0411730685
|  8> C -2.5134817517 -0.1284947285 -0.8210960803
|  9> C -0.0147151536 0.2231413318 -0.4661003141
| 10> C -0.0448356101 1.7341530906 -0.2384006213
| 11> C 1.2468828689 -0.4875482049 0.1041726452
| 12> C 1.9987233332 -1.1977512707 -1.0233835938
| 13> C 2.2196093 0.4142938818 0.8633777846
| 14> H -0.7269065362 -0.3377212053 2.1306736612
| 15> H -1.917554225 0.8659446593 1.6281636101
| 16> H -2.4037978745 -0.8089690581 1.8625780582
| 17> H -1.1296690042 -1.5516944023 -0.0542938049
| 18> H -2.3148546025 -0.3427742536 -1.8689188648
| 19> H -2.7781788415 0.9215297888 -0.7269877082
| 20> H -3.3709487213 -0.7199123816 -0.5077018503
| 21> H 0.0007143118 0.0772773912 -1.5526506268
| 22> H -0.9389697351 2.1568053223 -0.6893544638
| 23> H 0.8143685651 2.2039631357 -0.7092662423
| 24> H -0.0406163404 1.9868213721 0.8168394005
| 25> H 0.9128758958 -1.2573090827 0.8086423221
| 26> H 2.8470302575 -1.7525964395 -0.628137317
| 27> H 1.344956897 -1.8970337249 -1.5400827846
| 28> H 2.3706079013 -0.4735160968 -1.7454088778
| 29> H 3.03701488 -0.1892604706 1.2533629805
| 30> H 1.7350440698 0.9036962604 1.7031322276
| 31> H 2.6443452587 1.1734785703 0.212317929
| 32> *
| 33>
| 34>                          ****END OF INPUT****

CARTESIAN COORDINATES (ANGSTROEM)
---------------------------------
  C     -1.600849   -0.166589    1.507286
  C     -1.298505   -0.471657    0.041173
  C     -2.513482   -0.128495   -0.821096
  C     -0.014715    0.223141   -0.466100
  C     -0.044836    1.734153   -0.238401
  C      1.246883   -0.487548    0.104173
  C      1.998723   -1.197751   -1.023384
  C      2.219609    0.414294    0.863378
  H     -0.726907   -0.337721    2.130674
  H     -1.917554    0.865945    1.628164
  H     -2.403798   -0.808969    1.862578
  H     -1.129669   -1.551694   -0.054294
  H     -2.314855   -0.342774   -1.868919
  H     -2.778179    0.921530   -0.726988
  H     -3.370949   -0.719912   -0.507702
  H      0.000714    0.077277   -1.552651
  H     -0.938970    2.156805   -0.689354
  H      0.814369    2.203963   -0.709266
  H     -0.040616    1.986821    0.816839
  H      0.912876   -1.257309    0.808642
  H      2.847030   -1.752596   -0.628137
  H      1.344957   -1.897034   -1.540083
  H      2.370608   -0.473516   -1.745409
  H      3.037015   -0.189260    1.253363
  H      1.735044    0.903696    1.703132
  H      2.644345    1.173479    0.212318

 Total Charge           Charge          ....    0
 Multiplicity           Mult            ....    1
 Number of Electrons    NEL             ....   66
 Basis Dimension        Dim             ....  148

ORBITAL ENERGIES
----------------

  NO   OCC          E(Eh)            E(eV)
   0   2.0000      -9.888767      -269.0870
   1   2.0000      -9.887797      -269.0606
   2   2.0000      -9.885515      -268.9985
   3   2.0000      -9.868588      -268.5379
   4   2.0000      -9.868397      -268.5327
   5   2.0000      -9.867719      -268.5143
   6   2.0000      -9.867451      -268.5070
   7   2.0000      -9.867171      -268.4994
   8   2.0000      -0.745388       -20.2830
   9   2.0000      -0.697162       -18.9707
  10   2.0000      -0.643322       -17.5057
  11   2.0000      -0.609601       -16.5881
  12   2.0000      -0.604759       -16.4563
  13   2.0000      -0.567704       -15.4480
  14   2.0000      -0.500498       -13.6192
  15   2.0000      -0.472517       -12.8578
  16   2.0000      -0.425615       -11.5816
  17   2.0000      -0.404448       -11.0056
  18   2.0000      -0.402675       -10.9573
  19   2.0000      -0.375760       -10.2250
  20   2.0000      -0.365579        -9.9479
  21   2.0000      -0.353936        -9.6311
  22   2.0000      -0.344261        -9.3678
  23   2.0000      -0.341576        -9.2948
  24   2.0000      -0.330494        -8.9932
  25   2.0000      -0.320533        -8.7222
  26   2.0000      -0.315717        -8.5911
  27   2.0000      -0.305267        -8.3067
  28   2.0000      -0.290223        -7.8974
  29   2.0000      -0.284222        -7.7341
  30   2.0000      -0.265119        -7.2143
  31   2.0000      -0.261561        -7.1174
  32   2.0000      -0.253666        -6.9026
  33   0.0000       0.027999         0.7619
  34   0.0000       0.057462         1.5636
  35   0.0000       0.059797         1.6272
  36   0.0000       0.062505         1.7008
  37   0.0000       0.084580         2.3015

MULLIKEN ATOMIC CHARGES
-----------------------
   0 C :   -0.253968
   1 C :   -0.180276
   2 C :   -0.239304
   3 C :   -0.107647
   4 C :   -0.237066
   5 C :   -0.156814
   6 C :   -0.258963
   7 C :   -0.223261
   8 H :    0.103158
   9 H :    0.100392
  10 H :    0.097792
  11 H :    0.070563
  12 H :    0.095578
  13 H :    0.098392
  14 H :    0.095157
  15 H :    0.056592
  16 H :    0.100137
  17 H :    0.094557
  18 H :    0.099395
  19 H :    0.073666
  20 H :    0.094135
  21 H :    0.099895
  22 H :    0.096197
  23 H :    0.095790
  24 H :    0.096935
  25 H :    0.088971
Sum of atomic charges:   -0.0000000

LOEWDIN ATOMIC CHARGES
----------------------
   0 C :   -0.331125
   1 C :   -0.149977
   2 C :   -0.330413
   3 C :   -0.133747
   4 C :   -0.331053
   5 C :   -0.149971
   6 C :   -0.327710
   7 C :   -0.329661
   8 H :    0.116224
   9 H :    0.116817
  10 H :    0.118784
  11 H :    0.111964
  12 H :    0.115683
  13 H :    0.114809
  14 H :    0.117619
  15 H :    0.112866
  16 H :    0.117638
  17 H :    0.118462
  18 H :    0.117361
  19 H :    0.113216
  20 H :    0.114145
  21 H :    0.115025
  22 H :    0.114906
  23 H :    0.117388
  24 H :    0.115003
  25 H :    0.115746

  Mayer bond orders larger than 0.100000
B(  0-C ,  1-C ) :   1.1071 B(  0-C ,  8-H ) :   0.9439 B(  0-C ,  9-H ) :   0.9423
B(  0-C , 10-H ) :   0.9496 B(  1-C ,  2-C ) :   1.1125 B(  1-C ,  3-C ) :   1.0407
B(  1-C , 11-H ) :   0.8987 B(  2-C , 12-H ) :   0.9479 B(  2-C , 13-H ) :   0.9421
B(  2-C , 14-H ) :   0.9492 B(  3-C ,  4-C ) :   1.1637 B(  3-C ,  5-C ) :   0.9944
B(  3-C , 15-H ) :   0.8966 B(  4-C , 16-H ) :   0.9399 B(  4-C , 17-H ) :   0.9364
B(  4-C , 18-H ) :   0.9268 B(  5-C ,  6-C ) :   1.1127 B(  5-C ,  7-C ) :   1.1652
B(  5-C , 19-H ) :   0.8957 B(  6-C , 20-H ) :   0.9492 B(  6-C , 21-H ) :   0.9475
B(  6-C , 22-H ) :   0.9488 B(  7-C , 23-H ) :   0.9451 B(  7-C , 24-H ) :   0.9398
B(  7-C , 25-H ) :   0.9360

Dispersion correction           -0.023337635
FINAL SINGLE POINT ENERGY      -314.867647582502

DIPOLE MOMENT
-------------

Method             : SCF
Type of density    : Electron Density
Multiplicity       :   1
Irrep              :   0
Energy             :  -314.9545492579598545 Eh
Relativity type    :
Basis              : AO
                                X                 Y                 Z
Electronic contribution:     -0.092678820      -0.931375501      -0.357394875
Nuclear contribution   :      0.080177316       0.899443125       0.368610881
                        -----------------------------------------
Total Dipole Moment    :     -0.012501504      -0.031932376       0.011216007
                        -----------------------------------------
Magnitude (a.u.)       :      0.036079953
Magnitude (Debye)      :      0.091707953

Rotational constants in cm-1:             0.092940             0.041658             0.039088
Rotational constants in MHz :          2786.278129          1248.884811          1171.821591

                             ****ORCA TERMINATED NORMALLY****
TOTAL RUN TIME: 0 days 0 hours 0 minutes 11 seconds 798 msec
