                         Program Version 6.0.0  -   RELEASE  -
|  1> ! r2scan-3c def2/J RI DEFGRID2 scfconv6 printgap
|  2> %output
|  3>     printlevel normal
|  4> end
|  5> * xyz 0 1
|  6> C -2.5268741297 0.0670875994 -0.5422886698
|  7> C -1.9429238345 -1.1620800758 -0.2835787274
|  8> C -0.6735315612 -1.225817484 0.2609734957
|  9> C 0.0315639067 -0.0646988622 0.5568455298
| 10> C -0.5633834128 1.1618264331 0.2953764723
| 11> C -1.833885351 1.2287361719 -0.2504023811
| 12> C 1.4254624614 -0.1502840222 1.1109574628
| 13> C 2.4404832927 -0.4825751865 0.0052484772
| 14> O 2.5424112186 0.5177540818 -0.9826492101
| 15> H -3.5176118614 0.1180152227 -0.9686006627
| 16> H -2.478825485 -2.0727316125 -0.5076079782
| 17> H -0.2225030981 -2.1871659275 0.4620092996
| 18> H -0.0323378177 2.0746376036 0.5227561793
| 19> H -2.2833703777 2.1906334899 -0.4483324009
| 20> H 1.7010379117 0.7965098427 1.5791925203
| 21> H 1.4811588635 -0.9395181919 1.8619051931
| 22> H 3.4242754436 -0.6703835458 0.4569497077
| 23> H 2.1261894343 -1.3822902082 -0.5290819904
| 24> H 2.857928515 1.3349347781 -0.5723256831
| 25> *
| 26>
| 27>                          ****END OF INPUT****

CARTESIAN COORDINATES (ANGSTROEM)
---------------------------------
  C     -2.526874    0.067088   -0.542289
  C     -1.942924   -1.162080   -0.283579
  C     -0.673532   -1.225817    0.260973
  C      0.031564   -0.064699    0.556846
  C     -0.563383    1.161826    0.295376
  C     -1.833885    1.228736   -0.250402
  C      1.425462   -0.150284    1.110957
  C      2.440483   -0.482575    0.005248
  O      2.542411    0.517754   -0.982649
  H     -3.517612    0.118015   -0.968601
  H     -2.478825   -2.072732   -0.507608
  H     -0.222503   -2.187166    0.462009
  H     -0.032338    2.074638    0.522756
  H     -2.283370    2.190633   -0.448332
  H      1.701038    0.796510    1.579193
  H      1.481159   -0.939518    1.861905
  H      3.424275   -0.670384    0.456950
  H      2.126189   -1.382290   -0.529082
  H      2.857929    1.334935   -0.572326

 Total Charge           Charge          ....    0
 Multiplicity           Mult            ....    1
 Number of Electrons    NEL             ....   66
 Basis Dimension        Dim             ....  226

ORBITAL ENERGIES
----------------

  NO   OCC          E(Eh)            E(eV)
   0   2.0000     -18.950203      -515.6612
   1   2.0000     -10.080712      -274.3101
   2   2.0000     -10.040281      -273.2099
   3   2.0000     -10.038434      -273.1597
   4   2.0000     -10.031846      -272.9804
   5   2.0000     -10.031145      -272.9613
   6   2.0000     -10.030315      -272.9387
   7   2.0000     -10.029585      -272.9189
   8   2.0000     -10.029490      -272.9163
   9   2.0000      -0.987831       -26.8802
  10   2.0000      -0.827168       -22.5084
  11   2.0000      -0.753241       -20.4967
  12   2.0000      -0.713415       -19.4130
  13   2.0000      -0.685063       -18.6415
  14   2.0000      -0.604719       -16.4552
  15   2.0000      -0.573882       -15.6161
  16   2.0000      -0.550744       -14.9865
  17   2.0000      -0.489429       -13.3180
  18   2.0000      -0.462370       -12.5817
  19   2.0000      -0.441475       -12.0132
  20   2.0000      -0.420860       -11.4522
  21   2.0000      -0.411987       -11.2107
  22   2.0000      -0.403884       -10.9903
  23   2.0000      -0.386965       -10.5298
  24   2.0000      -0.369712       -10.0604
  25   2.0000      -0.344153        -9.3649
  26   2.0000      -0.336378        -9.1533
  27   2.0000      -0.310512        -8.4495
  28   2.0000      -0.305957        -8.3255
  29   2.0000      -0.295700        -8.0464
  30   2.0000      -0.244991        -6.6665
  31   2.0000      -0.233363        -6.3501
  32   2.0000      -0.222126        -6.0443
  33   0.0000      -0.030027        -0.8171
  34   0.0000      -0.026284        -0.7152
  35   0.0000       0.056412         1.5350
  36   0.0000       0.082437         2.2432
  37   0.0000       0.101138         2.7521

MULLIKEN ATOMIC CHARGES
-----------------------
   0 C :   -0.146777
   1 C :   -0.160916
   2 C :   -0.217622
   3 C :    0.256306
   4 C :   -0.222211
   5 C :   -0.165368
   6 C :   -0.371869
   7 C :   -0.176941
   8 O :   -0.401718
   9 H :    0.145720
  10 H :    0.144333
  11 H :    0.145953
  12 H :    0.144183
  13 H :    0.144178
  14 H :    0.153166
  15 H :    0.157077
  16 H :    0.132078
  17 H :    0.147894
  18 H :    0.292535
Sum of atomic charges:   -0.0000000

LOEWDIN ATOMIC CHARGES
----------------------
   0 C :   -0.171973
   1 C :   -0.160835
   2 C :   -0.162616
   3 C :   -0.088505
   4 C :   -0.160026
   5 C :   -0.160526
   6 C :   -0.272604
   7 C :    0.013816
   8 O :   -0.606610
   9 H :    0.166300
  10 H :    0.166405
  11 H :    0.168062
  12 H :    0.166797
  13 H :    0.166391
  14 H :    0.164112
  15 H :    0.171481
  16 H :    0.155337
  17 H :    0.180486
  18 H :    0.264509

  Mayer bond orders larger than 0.100000
B(  0-C ,  1-C ) :   1.4262 B(  0-C ,  5-C ) :   1.4381 B(  0-C ,  9-H ) :   0.9474
B(  1-C ,  2-C ) :   1.4571 B(  1-C , 10-H ) :   0.9482 B(  2-C ,  3-C ) :   1.3936
B(  2-C , 11-H ) :   0.9458 B(  3-C ,  4-C ) :   1.4135 B(  3-C ,  6-C ) :   0.7665
B(  4-C ,  5-C ) :   1.4555 B(  4-C , 12-H ) :   0.9367 B(  5-C , 13-H ) :   0.9458
B(  6-C ,  7-C ) :   0.9319 B(  6-C , 14-H ) :   1.0122 B(  6-C , 15-H ) :   0.9820
B(  7-C ,  8-O ) :   0.9634 B(  7-C , 16-H ) :   0.9752 B(  7-C , 17-H ) :   0.9758
B(  8-O , 18-H ) :   0.8963

Dispersion correction           -0.006182954
FINAL SINGLE POINT ENERGY      -385.988459102616

DIPOLE MOMENT
-------------

Method             : SCF
Type of density    : Electron Density
Multiplicity       :   1
Irrep              :   0
Energy             :  -385.9893537334277198 Eh
Relativity type    :
Basis              : AO
                                X                 Y                 Z
Electronic contribution:     -2.665862702       0.773041651      -1.155070119
Nuclear contribution   :      2.904667464      -0.684093581       1.727488980
                        -----------------------------------------
Total Dipole Moment    :      0.238804762       0.088948070       0.572418861
                        -----------------------------------------
Magnitude (a.u.)       :      0.626580263
Magnitude (Debye)      :      1.592640458

Rotational constants in cm-1:             0.112806             0.035701             0.031937
Rotational constants in MHz :          3381.827857          1070.298838           957.435240

                             ****ORCA TERMINATED NORMALLY****
TOTAL RUN TIME: 0 days 0 hours 0 minutes 25 seconds 669 msec
