                         Program Version 6.0.0  -   RELEASE  -
|  1> ! r2scan-3c def2/J RI DEFGRID2 scfconv6 printgap
|  2> %output
|  3>     printlevel normal
|  4> end
|  5> %cpcm
|  6>     smd true
|  7>     smdsolvent "water"
|  8> end
|  9> * xyz 0 1
| 10> C -2.5268741297 0.0670875994 -0.5422886698
| 11> C -1.9429238345 -1.1620800758 -0.2835787274
| 12> C -0.6735315612 -1.225817484 0.2609734957
| 13> C 0.0315639067 -0.0646988622 0.5568455298
| 14> C -0.5633834128 1.1618264331 0.2953764723
| 15> C -1.833885351 1.2287361719 -0.2504023811
| 16> C 1.4254624614 -0.1502840222 1.1109574628
| 17> C 2.4404832927 -0.4825751865 0.0052484772
| 18> O 2.5424112186 0.5177540818 -0.9826492101
| 19> H -3.5176118614 0.1180152227 -0.9686006627
| 20> H -2.478825485 -2.0727316125 -0.5076079782
| 21> H -0.2225030981 -2.1871659275 0.4620092996
| 22> H -0.0323378177 2.0746376036 0.5227561793
| 23> H -2.2833703777 2.1906334899 -0.4483324009
| 24> H 1.7010379117 0.7965098427 1.5791925203
| 25> H 1.4811588635 -0.9395181919 1.8619051931
| 26> H 3.4242754436 -0.6703835458 0.4569497077
| 27> H 2.1261894343 -1.3822902082 -0.5290819904
| 28> H 2.857928515 1.3349347781 -0.5723256831
| 29> *
| 30>
| 31>                          ****END OF INPUT****

CARTESIAN COORDINATES (ANGSTROEM)
---------------------------------
  C     -2.526874    0.067088   -0.542289
  C     -1.942924   -1.162080   -0.283579
  C     -0.673532   -1.225817    0.260973
  C      0.031564   -0.064699    0.556846
  C     -0.563383    1.161826    0.295376
  C     -1.833885    1.228736   -0.250402
  C      1.425462   -0.150284    1.110957
  C      2.440483   -0.482575    0.005248
  O      2.542411    0.517754   -0.982649
  H     -3.517612    0.118015   -0.968601
  H     -2.478825   -2.072732   -0.507608
  H     -0.222503   -2.187166    0.462009
  H     -0.032338    2.074638    0.522756
  H     -2.283370    2.190633   -0.448332
  H      1.701038    0.796510    1.579193
  H      1.481159   -0.939518    1.861905
  H      3.424275   -0.670384    0.456950
  H      2.126189   -1.382290   -0.529082
  H      2.857929    1.334935   -0.572326

 Total Charge           Charge          ....    0
 Multiplicity           Mult            ....    1
 Number of Electrons    NEL             ....   66
 Basis Dimension        Dim             ....  226

ORBITAL ENERGIES
----------------

  NO   OCC          E(Eh)            E(eV)
   0   2.0000     -18.952783      -515.7315
   1   2.0000     -10.073183      -274.1052
   2   2.0000     -10.039582      -273.1909
   3   2.0000     -10.031350      -272.9669
   4   2.0000     -10.031039      -272.9584
   5   2.0000     -10.029311      -272.9114
   6   2.0000     -10.028751      -272.8962
   7   2.0000     -10.028539      -272.8904
   8   2.0000     -10.026746      -272.8416
   9   2.0000      -0.989098       -26.9147
  10   2.0000      -0.828200       -22.5365
  11   2.0000      -0.749033       -20.3822
  12   2.0000      -0.713605       -19.4182
  13   2.0000      -0.681222       -18.5370
  14   2.0000      -0.599646       -16.3172
  15   2.0000      -0.571966       -15.5640
  16   2.0000      -0.547520       -14.8988
  17   2.0000      -0.485739       -13.2176
  18   2.0000      -0.457751       -12.4560
  19   2.0000      -0.436658       -11.8821
  20   2.0000      -0.415616       -11.3095
  21   2.0000      -0.407927       -11.1003
  22   2.0000      -0.402269       -10.9463
  23   2.0000      -0.383961       -10.4481
  24   2.0000      -0.366514        -9.9734
  25   2.0000      -0.342136        -9.3100
  26   2.0000      -0.334141        -9.0924
  27   2.0000      -0.308784        -8.4024
  28   2.0000      -0.301798        -8.2123
  29   2.0000      -0.293746        -7.9932
  30   2.0000      -0.249249        -6.7824
  31   2.0000      -0.237580        -6.4649
  32   2.0000      -0.224756        -6.1159
  33   0.0000      -0.032541        -0.8855
  34   0.0000      -0.028891        -0.7862
  35   0.0000       0.073157         1.9907
  36   0.0000       0.094630         2.5750
  37   0.0000       0.108966         2.9651

MULLIKEN ATOMIC CHARGES
-----------------------
   0 C :   -0.180115
   1 C :   -0.203085
   2 C :   -0.224288
   3 C :    0.157352
   4 C :   -0.257350
   5 C :   -0.200169
   6 C :   -0.313026
   7 C :   -0.186216
   8 O :   -0.495875
   9 H :    0.178426
  10 H :    0.176597
  11 H :    0.179749
  12 H :    0.180679
  13 H :    0.176743
  14 H :    0.174679
  15 H :    0.173542
  16 H :    0.148798
  17 H :    0.161623
  18 H :    0.351935
Sum of atomic charges:   -0.0000000

LOEWDIN ATOMIC CHARGES
----------------------
   0 C :   -0.186720
   1 C :   -0.173745
   2 C :   -0.169123
   3 C :   -0.100021
   4 C :   -0.176043
   5 C :   -0.174481
   6 C :   -0.267730
   7 C :    0.016269
   8 O :   -0.646883
   9 H :    0.176359
  10 H :    0.176892
  11 H :    0.180594
  12 H :    0.179610
  13 H :    0.176863
  14 H :    0.174921
  15 H :    0.180048
  16 H :    0.165642
  17 H :    0.182756
  18 H :    0.284792

  Mayer bond orders larger than 0.100000
B(  0-C ,  1-C ) :   1.3815 B(  0-C ,  5-C ) :   1.3944 B(  0-C ,  9-H ) :   0.9542
B(  1-C ,  2-C ) :   1.4141 B(  1-C , 10-H ) :   0.9591 B(  2-C ,  3-C ) :   1.3695
B(  2-C , 11-H ) :   0.9526 B(  3-C ,  4-C ) :   1.3881 B(  3-C ,  6-C ) :   0.7892
B(  4-C ,  5-C ) :   1.4059 B(  4-C , 12-H ) :   0.9504 B(  5-C , 13-H ) :   0.9571
B(  6-C ,  7-C ) :   0.9320 B(  6-C , 14-H ) :   0.9954 B(  6-C , 15-H ) :   0.9722
B(  7-C ,  8-O ) :   0.9509 B(  7-C , 16-H ) :   0.9671 B(  7-C , 17-H ) :   0.9777
B(  8-O , 18-H ) :   0.8671

Dispersion correction           -0.006182954
FINAL SINGLE POINT ENERGY      -386.000520067703

DIPOLE MOMENT
-------------

Method             : SCF
Type of density    : Electron Density
Multiplicity       :   1
Irrep              :   0
Energy             :  -386.0014146985145089 Eh
Relativity type    :
Basis              : AO
                                X                 Y                 Z
Electronic contribution:     -2.492757842       0.781031545      -0.829292735
Nuclear contribution   :      2.904667464      -0.684093581       1.727488980
                        -----------------------------------------
Total Dipole Moment    :      0.411909622       0.096937964       0.898196244
                        -----------------------------------------
Magnitude (a.u.)       :      0.992886196
Magnitude (Debye)      :      2.523716148

Rotational constants in cm-1:             0.112806             0.035701             0.031937
Rotational constants in MHz :          3381.827857          1070.298838           957.435240

                             ****ORCA TERMINATED NORMALLY****
TOTAL RUN TIME: 0 days 0 hours 0 minutes 30 seconds 399 msec
