                         Program Version 6.0.0  -   RELEASE  -
|  1> ! r2scan-3c def2/J RI DEFGRID2 scfconv6 printgap
|  2> %output
|  3>     printlevel normal
|  4> end
|  5> * xyz 0 1
|  6> C 2.8179494745 -0.1962732959 0.2006781574
|  7> C 1.4854534186 0.2915478121 -0.3543607186
|  8> C 0.3171015636 -0.5571312169 0.1428237378
|  9> C -1.0366514873 -0.009013976 -0.3268991788
| 10> H -1.0188237524 0.1130300748 -1.4162537947
| 11> C -2.1758366278 -0.9518910395 0.0623438445
| 12> O -1.2656952385 1.3013404779 0.1623152573
| 13> H 2.8213362806 -0.1460570964 1.287176737
| 14> H 3.6332763494 0.417351422 -0.1738739866
| 15> H 2.9983639612 -1.2272146282 -0.0955524267
| 16> H 1.3196215282 1.3303782012 -0.0612208294
| 17> H 1.5101474089 0.2599137546 -1.4459338694
| 18> H 0.4250609374 -1.5797822594 -0.2213169739
| 19> H 0.3284770773 -0.5857037505 1.235497379
| 20> H -3.12998703 -0.515901601 -0.2230714591
| 21> H -2.0603470264 -1.9056618467 -0.443313786
| 22> H -2.1746092402 -1.1229972135 1.1368960925
| 23> H -1.3400052127 1.2600198137 1.1264463516
| 24> *
| 25>
| 26>                          ****END OF INPUT****

CARTESIAN COORDINATES (ANGSTROEM)
---------------------------------
  C      2.817949   -0.196273    0.200678
  C      1.485453    0.291548   -0.354361
  C      0.317102   -0.557131    0.142824
  C     -1.036651   -0.009014   -0.326899
  H     -1.018824    0.113030   -1.416254
  C     -2.175837   -0.951891    0.062344
  O     -1.265695    1.301340    0.162315
  H      2.821336   -0.146057    1.287177
  H      3.633276    0.417351   -0.173874
  H      2.998364   -1.227215   -0.095552
  H      1.319622    1.330378   -0.061221
  H      1.510147    0.259914   -1.445934
  H      0.425061   -1.579782   -0.221317
  H      0.328477   -0.585704    1.235497
  H     -3.129987   -0.515902   -0.223071
  H     -2.060347   -1.905662   -0.443314
  H     -2.174609   -1.122997    1.136896
  H     -1.340005    1.260020    1.126446

 Total Charge           Charge          ....    0
 Multiplicity           Mult            ....    1
 Number of Electrons    NEL             ....   50
 Basis Dimension        Dim             ....  179

ORBITAL ENERGIES
----------------

  NO   OCC          E(Eh)            E(eV)
   0   2.0000     -18.943983      -515.4920
   1   2.0000     -10.079190      -274.2687
   2   2.0000     -10.023645      -272.7572
   3   2.0000     -10.020201      -272.6635
   4   2.0000     -10.019089      -272.6333
   5   2.0000     -10.014295      -272.5028
   6   2.0000      -0.983000       -26.7488
   7   2.0000      -0.761107       -20.7108
   8   2.0000      -0.713509       -19.4156
   9   2.0000      -0.647716       -17.6253
  10   2.0000      -0.573579       -15.6079
  11   2.0000      -0.551453       -15.0058
  12   2.0000      -0.451256       -12.2793
  13   2.0000      -0.442239       -12.0339
  14   2.0000      -0.411754       -11.2044
  15   2.0000      -0.400469       -10.8973
  16   2.0000      -0.377942       -10.2843
  17   2.0000      -0.364150        -9.9090
  18   2.0000      -0.354525        -9.6471
  19   2.0000      -0.331272        -9.0144
  20   2.0000      -0.316988        -8.6257
  21   2.0000      -0.297503        -8.0955
  22   2.0000      -0.296151        -8.0587
  23   2.0000      -0.281422        -7.6579
  24   2.0000      -0.232526        -6.3274
  25   0.0000       0.069219         1.8835
  26   0.0000       0.104031         2.8308
  27   0.0000       0.113164         3.0794
  28   0.0000       0.117621         3.2006
  29   0.0000       0.132384         3.6023

MULLIKEN ATOMIC CHARGES
-----------------------
   0 C :   -0.472582
   1 C :   -0.248846
   2 C :   -0.281997
   3 C :    0.026843
   4 H :    0.133869
   5 C :   -0.481440
   6 O :   -0.412772
   7 H :    0.141206
   8 H :    0.147491
   9 H :    0.138129
  10 H :    0.164678
  11 H :    0.136767
  12 H :    0.135325
  13 H :    0.138694
  14 H :    0.163632
  15 H :    0.145163
  16 H :    0.136769
  17 H :    0.289069
Sum of atomic charges:    0.0000000

LOEWDIN ATOMIC CHARGES
----------------------
   0 C :   -0.424938
   1 C :   -0.312444
   2 C :   -0.291239
   3 C :    0.041736
   4 H :    0.180040
   5 C :   -0.400898
   6 O :   -0.610353
   7 H :    0.148495
   8 H :    0.150368
   9 H :    0.148466
  10 H :    0.163004
  11 H :    0.152167
  12 H :    0.160406
  13 H :    0.156874
  14 H :    0.161106
  15 H :    0.157510
  16 H :    0.153058
  17 H :    0.266643

  Mayer bond orders larger than 0.100000
B(  0-C ,  1-C ) :   0.8883 B(  0-C ,  7-H ) :   0.9880 B(  0-C ,  8-H ) :   0.9757
B(  0-C ,  9-H ) :   0.9807 B(  1-C ,  2-C ) :   0.9127 B(  1-C , 10-H ) :   0.9769
B(  1-C , 11-H ) :   0.9653 B(  2-C ,  3-C ) :   0.9392 B(  2-C , 12-H ) :   0.9653
B(  2-C , 13-H ) :   0.9888 B(  3-C ,  4-H ) :   0.9485 B(  3-C ,  5-C ) :   0.9429
B(  3-C ,  6-O ) :   0.9195 B(  5-C , 14-H ) :   0.9760 B(  5-C , 15-H ) :   0.9765
B(  5-C , 16-H ) :   0.9737 B(  6-O , 17-H ) :   0.8970

Dispersion correction           -0.004123405
FINAL SINGLE POINT ENERGY      -272.903537734273

DIPOLE MOMENT
-------------

Method             : SCF
Type of density    : Electron Density
Multiplicity       :   1
Irrep              :   0
Energy             :  -272.9088642669352112 Eh
Relativity type    :
Basis              : AO
                                X                 Y                 Z
Electronic contribution:     -3.045075125       2.967653744      -0.366353457
Nuclear contribution   :      3.088894113      -3.454355745       0.664263977
                        -----------------------------------------
Total Dipole Moment    :      0.043818988      -0.486702001       0.297910520
                        -----------------------------------------
Magnitude (a.u.)       :      0.572319508
Magnitude (Debye)      :      1.454720580

Rotational constants in cm-1:             0.238500             0.058280             0.050862
Rotational constants in MHz :          7150.062829          1747.186984          1524.819184

                             ****ORCA TERMINATED NORMALLY****
TOTAL RUN TIME: 0 days 0 hours 0 minutes 22 seconds 472 msec
