                         Program Version 6.0.0  -   RELEASE  -
|  1> ! r2scan-3c def2/J RI DEFGRID2 scfconv6 printgap
|  2> %output
|  3>     printlevel normal
|  4> end
|  5> %cpcm
|  6>     smd true
|  7>     smdsolvent "water"
|  8> end
|  9> * xyz 0 1
| 10> C 2.8179494745 -0.1962732959 0.2006781574
| 11> C 1.4854534186 0.2915478121 -0.3543607186
| 12> C 0.3171015636 -0.5571312169 0.1428237378
| 13> C -1.0366514873 -0.009013976 -0.3268991788
| 14> H -1.0188237524 0.1130300748 -1.4162537947
| 15> C -2.1758366278 -0.9518910395 0.0623438445
| 16> O -1.2656952385 1.3013404779 0.1623152573
| 17> H 2.8213362806 -0.1460570964 1.287176737
| 18> H 3.6332763494 0.417351422 -0.1738739866
| 19> H 2.9983639612 -1.2272146282 -0.0955524267
| 20> H 1.3196215282 1.3303782012 -0.0612208294
| 21> H 1.5101474089 0.2599137546 -1.4459338694
| 22> H 0.4250609374 -1.5797822594 -0.2213169739
| 23> H 0.3284770773 -0.5857037505 1.235497379
| 24> H -3.12998703 -0.515901601 -0.2230714591
| 25> H -2.0603470264 -1.9056618467 -0.443313786
| 26> H -2.1746092402 -1.1229972135 1.1368960925
| 27> H -1.3400052127 1.2600198137 1.1264463516
| 28> *
| 29>
| 30>                          ****END OF INPUT****

CARTESIAN COORDINATES (ANGSTROEM)
---------------------------------
  C      2.817949   -0.196273    0.200678
  C      1.485453    0.291548   -0.354361
  C      0.317102   -0.557131    0.142824
  C     -1.036651   -0.009014   -0.326899
  H     -1.018824    0.113030   -1.416254
  C     -2.175837   -0.951891    0.062344
  O     -1.265695    1.301340    0.162315
  H      2.821336   -0.146057    1.287177
  H      3.633276    0.417351   -0.173874
  H      2.998364   -1.227215   -0.095552
  H      1.319622    1.330378   -0.061221
  H      1.510147    0.259914   -1.445934
  H      0.425061   -1.579782   -0.221317
  H      0.328477   -0.585704    1.235497
  H     -3.129987   -0.515902   -0.223071
  H     -2.060347   -1.905662   -0.443314
  H     -2.174609   -1.122997    1.136896
  H     -1.340005    1.260020    1.126446

 Total Charge           Charge          ....    0
 Multiplicity           Mult            ....    1
 Number of Electrons    NEL             ....   50
 Basis Dimension        Dim             ....  179

ORBITAL ENERGIES
----------------

  NO   OCC          E(Eh)            E(eV)
   0   2.0000     -18.947229      -515.5803
   1   2.0000     -10.073471      -274.1131
   2   2.0000     -10.014768      -272.5157
   3   2.0000     -10.013502      -272.4813
   4   2.0000     -10.008865      -272.3551
   5   2.0000     -10.007429      -272.3160
   6   2.0000      -0.984970       -26.8024
   7   2.0000      -0.753976       -20.5167
   8   2.0000      -0.706350       -19.2208
   9   2.0000      -0.639642       -17.4055
  10   2.0000      -0.568408       -15.4672
  11   2.0000      -0.545191       -14.8354
  12   2.0000      -0.444702       -12.1009
  13   2.0000      -0.437475       -11.9043
  14   2.0000      -0.406361       -11.0576
  15   2.0000      -0.395058       -10.7501
  16   2.0000      -0.372205       -10.1282
  17   2.0000      -0.356261        -9.6944
  18   2.0000      -0.344839        -9.3835
  19   2.0000      -0.326828        -8.8935
  20   2.0000      -0.312471        -8.5028
  21   2.0000      -0.292038        -7.9468
  22   2.0000      -0.288505        -7.8506
  23   2.0000      -0.278875        -7.5886
  24   2.0000      -0.235439        -6.4066
  25   0.0000       0.085281         2.3206
  26   0.0000       0.111325         3.0293
  27   0.0000       0.124840         3.3971
  28   0.0000       0.126452         3.4409
  29   0.0000       0.139159         3.7867

MULLIKEN ATOMIC CHARGES
-----------------------
   0 C :   -0.516298
   1 C :   -0.263624
   2 C :   -0.293942
   3 C :    0.054394
   4 H :    0.145503
   5 C :   -0.530418
   6 O :   -0.504657
   7 H :    0.154894
   8 H :    0.156045
   9 H :    0.151472
  10 H :    0.153224
  11 H :    0.149819
  12 H :    0.150576
  13 H :    0.159181
  14 H :    0.162682
  15 H :    0.163681
  16 H :    0.160724
  17 H :    0.346743
Sum of atomic charges:    0.0000000

LOEWDIN ATOMIC CHARGES
----------------------
   0 C :   -0.432632
   1 C :   -0.315970
   2 C :   -0.290532
   3 C :    0.042917
   4 H :    0.182681
   5 C :   -0.405495
   6 O :   -0.648820
   7 H :    0.152079
   8 H :    0.151969
   9 H :    0.152102
  10 H :    0.157121
  11 H :    0.154607
  12 H :    0.166087
  13 H :    0.164267
  14 H :    0.159899
  15 H :    0.163579
  16 H :    0.160702
  17 H :    0.285438

  Mayer bond orders larger than 0.100000
B(  0-C ,  1-C ) :   0.8855 B(  0-C ,  7-H ) :   0.9846 B(  0-C ,  8-H ) :   0.9731
B(  0-C ,  9-H ) :   0.9789 B(  1-C ,  2-C ) :   0.9029 B(  1-C , 10-H ) :   0.9794
B(  1-C , 11-H ) :   0.9658 B(  2-C ,  3-C ) :   0.9387 B(  2-C , 12-H ) :   0.9615
B(  2-C , 13-H ) :   0.9835 B(  3-C ,  4-H ) :   0.9522 B(  3-C ,  5-C ) :   0.9305
B(  3-C ,  6-O ) :   0.9006 B(  5-C , 14-H ) :   0.9733 B(  5-C , 15-H ) :   0.9721
B(  5-C , 16-H ) :   0.9733 B(  6-O , 17-H ) :   0.8694

Dispersion correction           -0.004123405
FINAL SINGLE POINT ENERGY      -272.909624710216

DIPOLE MOMENT
-------------

Method             : SCF
Type of density    : Electron Density
Multiplicity       :   1
Irrep              :   0
Energy             :  -272.9149512428775779 Eh
Relativity type    :
Basis              : AO
                                X                 Y                 Z
Electronic contribution:     -3.016076775       2.711552237      -0.199112872
Nuclear contribution   :      3.088894113      -3.454355745       0.664263977
                        -----------------------------------------
Total Dipole Moment    :      0.072817338      -0.742803508       0.465151105
                        -----------------------------------------
Magnitude (a.u.)       :      0.879445830
Magnitude (Debye)      :      2.235373651

Rotational constants in cm-1:             0.238500             0.058280             0.050862
Rotational constants in MHz :          7150.062829          1747.186984          1524.819184

                             ****ORCA TERMINATED NORMALLY****
TOTAL RUN TIME: 0 days 0 hours 0 minutes 26 seconds 15 msec
