                         Program Version 6.0.0  -   RELEASE  -
|  1> ! r2scan-3c def2/J RI DEFGRID2 scfconv6 printgap
|  2> %output
|  3>     printlevel normal
|  4> end
|  5> * xyz 0 1
|  6> C 0.251712599 -0.5033234331 -0.8217255907
|  7> H 0.5271812532 -0.6350963729 -1.8744166758
|  8> C 1.2562117774 0.4519869746 -0.1482585715
|  9> F 2.5118759943 0.0566204329 -0.3676412876
| 10> F 1.0955833877 0.5305069831 1.1756423209
| 11> F 1.1436938016 1.6908051514 -0.6348133552
| 12> O -1.04526383 -0.0265983053 -0.8263177444
| 13> C -1.6742343327 0.2132778103 0.3647105918
| 14> F -2.9913546055 0.1042743993 0.1473216572
| 15> F -1.4702313881 1.4927714316 0.7664295132
| 16> Cl 0.3972486081 -2.0883012152 0.0149898822
| 17> H -1.3842158545 -0.4576930235 1.1886971766
| 18> *
| 19>
| 20>                          ****END OF INPUT****

CARTESIAN COORDINATES (ANGSTROEM)
---------------------------------
  C      0.251713   -0.503323   -0.821726
  H      0.527181   -0.635096   -1.874417
  C      1.256212    0.451987   -0.148259
  F      2.511876    0.056620   -0.367641
  F      1.095583    0.530507    1.175642
  F      1.143694    1.690805   -0.634813
  O     -1.045264   -0.026598   -0.826318
  C     -1.674234    0.213278    0.364711
  F     -2.991355    0.104274    0.147322
  F     -1.470231    1.492771    0.766430
  Cl     0.397249   -2.088301    0.014990
  H     -1.384216   -0.457693    1.188697

 Total Charge           Charge          ....    0
 Multiplicity           Mult            ....    1
 Number of Electrons    NEL             ....   90
 Basis Dimension        Dim             ....  238

ORBITAL ENERGIES
----------------

  NO   OCC          E(Eh)            E(eV)
   0   2.0000    -101.248284     -2755.1059
   1   2.0000     -24.544363      -667.8861
   2   2.0000     -24.544354      -667.8858
   3   2.0000     -24.543144      -667.8529
   4   2.0000     -24.522148      -667.2816
   5   2.0000     -24.514686      -667.0785
   6   2.0000     -19.046113      -518.2711
   7   2.0000     -10.313279      -280.6386
   8   2.0000     -10.268509      -279.4203
   9   2.0000     -10.211435      -277.8673
  10   2.0000      -9.404162      -255.9002
  11   2.0000      -7.150748      -194.5818
  12   2.0000      -7.140249      -194.2961
  13   2.0000      -7.139797      -194.2838
  14   2.0000      -1.306381       -35.5484
  15   2.0000      -1.255583       -34.1662
  16   2.0000      -1.215081       -33.0640
  17   2.0000      -1.213773       -33.0284
  18   2.0000      -1.183663       -32.2091
  19   2.0000      -1.100870       -29.9562
  20   2.0000      -0.862909       -23.4809
  21   2.0000      -0.758197       -20.6316
  22   2.0000      -0.703567       -19.1450
  23   2.0000      -0.643111       -17.4999
  24   2.0000      -0.598051       -16.2738
  25   2.0000      -0.590578       -16.0705
  26   2.0000      -0.582561       -15.8523
  27   2.0000      -0.562106       -15.2957
  28   2.0000      -0.548843       -14.9348
  29   2.0000      -0.514414       -13.9979
  30   2.0000      -0.480546       -13.0763
  31   2.0000      -0.453149       -12.3308
  32   2.0000      -0.451810       -12.2944
  33   2.0000      -0.438337       -11.9277
  34   2.0000      -0.420640       -11.4462
  35   2.0000      -0.412619       -11.2279
  36   2.0000      -0.408797       -11.1239
  37   2.0000      -0.402414       -10.9502
  38   2.0000      -0.394708       -10.7405
  39   2.0000      -0.391559       -10.6549
  40   2.0000      -0.379547       -10.3280
  41   2.0000      -0.353405        -9.6166
  42   2.0000      -0.332115        -9.0373
  43   2.0000      -0.318890        -8.6774
  44   2.0000      -0.309501        -8.4220
  45   0.0000      -0.046280        -1.2594
  46   0.0000       0.026045         0.7087
  47   0.0000       0.059799         1.6272
  48   0.0000       0.082082         2.2336
  49   0.0000       0.093957         2.5567

MULLIKEN ATOMIC CHARGES
-----------------------
   0 C :   -0.008606
   1 H :    0.200341
   2 C :    0.557450
   3 F :   -0.189149
   4 F :   -0.197608
   5 F :   -0.183429
   6 O :   -0.132586
   7 C :    0.381491
   8 F :   -0.210548
   9 F :   -0.228990
  10 Cl:   -0.126054
  11 H :    0.137687
Sum of atomic charges:    0.0000000

LOEWDIN ATOMIC CHARGES
----------------------
   0 C :    0.049499
   1 H :    0.218500
   2 C :    0.488861
   3 F :   -0.195403
   4 F :   -0.193796
   5 F :   -0.180632
   6 O :   -0.582067
   7 C :    0.483035
   8 F :   -0.200487
   9 F :   -0.225755
  10 Cl:    0.151675
  11 H :    0.186569

  Mayer bond orders larger than 0.100000
B(  0-C ,  1-H ) :   0.9284 B(  0-C ,  2-C ) :   0.9520 B(  0-C ,  6-O ) :   0.9687
B(  0-C , 10-Cl) :   1.0229 B(  2-C ,  3-F ) :   1.0338 B(  2-C ,  4-F ) :   1.0247
B(  2-C ,  5-F ) :   1.0183 B(  6-O ,  7-C ) :   1.0220 B(  7-C ,  8-F ) :   1.0661
B(  7-C ,  9-F ) :   0.9736 B(  7-C , 11-H ) :   0.9429

Dispersion correction           -0.003584815
FINAL SINGLE POINT ENERGY     -1150.112695230492

DIPOLE MOMENT
-------------

Method             : SCF
Type of density    : Electron Density
Multiplicity       :   1
Irrep              :   0
Energy             : -1150.1296073556193278 Eh
Relativity type    :
Basis              : AO
                                X                 Y                 Z
Electronic contribution:      1.852721946       1.306565609       1.425748250
Nuclear contribution   :     -1.620986954      -1.813025254      -1.682758321
                        -----------------------------------------
Total Dipole Moment    :      0.231734992      -0.506459645      -0.257010072
                        -----------------------------------------
Magnitude (a.u.)       :      0.613397632
Magnitude (Debye)      :      1.559132874

Rotational constants in cm-1:             0.051025             0.031604             0.023231
Rotational constants in MHz :          1529.694273           947.470527           696.437294

                             ****ORCA TERMINATED NORMALLY****
TOTAL RUN TIME: 0 days 0 hours 0 minutes 26 seconds 504 msec
