                         Program Version 6.0.0  -   RELEASE  -
|  1> ! r2scan-3c def2/J RI DEFGRID2 scfconv6 printgap
|  2> %output
|  3>     printlevel normal
|  4> end
|  5> %cpcm
|  6>     smd true
|  7>     smdsolvent "water"
|  8> end
|  9> * xyz 0 1
| 10> C 0.251712599 -0.5033234331 -0.8217255907
| 11> H 0.5271812532 -0.6350963729 -1.8744166758
| 12> C 1.2562117774 0.4519869746 -0.1482585715
| 13> F 2.5118759943 0.0566204329 -0.3676412876
| 14> F 1.0955833877 0.5305069831 1.1756423209
| 15> F 1.1436938016 1.6908051514 -0.6348133552
| 16> O -1.04526383 -0.0265983053 -0.8263177444
| 17> C -1.6742343327 0.2132778103 0.3647105918
| 18> F -2.9913546055 0.1042743993 0.1473216572
| 19> F -1.4702313881 1.4927714316 0.7664295132
| 20> Cl 0.3972486081 -2.0883012152 0.0149898822
| 21> H -1.3842158545 -0.4576930235 1.1886971766
| 22> *
| 23>
| 24>                          ****END OF INPUT****

CARTESIAN COORDINATES (ANGSTROEM)
---------------------------------
  C      0.251713   -0.503323   -0.821726
  H      0.527181   -0.635096   -1.874417
  C      1.256212    0.451987   -0.148259
  F      2.511876    0.056620   -0.367641
  F      1.095583    0.530507    1.175642
  F      1.143694    1.690805   -0.634813
  O     -1.045264   -0.026598   -0.826318
  C     -1.674234    0.213278    0.364711
  F     -2.991355    0.104274    0.147322
  F     -1.470231    1.492771    0.766430
  Cl     0.397249   -2.088301    0.014990
  H     -1.384216   -0.457693    1.188697

 Total Charge           Charge          ....    0
 Multiplicity           Mult            ....    1
 Number of Electrons    NEL             ....   90
 Basis Dimension        Dim             ....  238

ORBITAL ENERGIES
----------------

  NO   OCC          E(Eh)            E(eV)
   0   2.0000    -101.237132     -2754.8024
   1   2.0000     -24.538482      -667.7260
   2   2.0000     -24.537756      -667.7063
   3   2.0000     -24.537400      -667.6966
   4   2.0000     -24.519468      -667.2086
   5   2.0000     -24.512764      -667.0262
   6   2.0000     -19.036364      -518.0058
   7   2.0000     -10.306766      -280.4614
   8   2.0000     -10.259688      -279.1803
   9   2.0000     -10.195244      -277.4267
  10   2.0000      -9.393077      -255.5986
  11   2.0000      -7.139566      -194.2775
  12   2.0000      -7.129213      -193.9958
  13   2.0000      -7.128752      -193.9832
  14   2.0000      -1.300857       -35.3981
  15   2.0000      -1.253137       -34.0996
  16   2.0000      -1.209664       -32.9166
  17   2.0000      -1.208520       -32.8855
  18   2.0000      -1.182294       -32.1718
  19   2.0000      -1.091374       -29.6978
  20   2.0000      -0.851184       -23.1619
  21   2.0000      -0.747565       -20.3423
  22   2.0000      -0.696405       -18.9501
  23   2.0000      -0.635544       -17.2940
  24   2.0000      -0.589961       -16.0537
  25   2.0000      -0.583881       -15.8882
  26   2.0000      -0.577299       -15.7091
  27   2.0000      -0.555292       -15.1103
  28   2.0000      -0.546179       -14.8623
  29   2.0000      -0.502409       -13.6712
  30   2.0000      -0.469298       -12.7702
  31   2.0000      -0.448010       -12.1910
  32   2.0000      -0.446697       -12.1552
  33   2.0000      -0.433264       -11.7897
  34   2.0000      -0.416679       -11.3384
  35   2.0000      -0.407248       -11.0818
  36   2.0000      -0.403981       -10.9929
  37   2.0000      -0.399576       -10.8730
  38   2.0000      -0.387231       -10.5371
  39   2.0000      -0.386657       -10.5215
  40   2.0000      -0.378438       -10.2978
  41   2.0000      -0.345070        -9.3898
  42   2.0000      -0.323488        -8.8026
  43   2.0000      -0.309412        -8.4195
  44   2.0000      -0.298070        -8.1109
  45   0.0000      -0.033889        -0.9222
  46   0.0000       0.038483         1.0472
  47   0.0000       0.076558         2.0832
  48   0.0000       0.097861         2.6629
  49   0.0000       0.103715         2.8222

MULLIKEN ATOMIC CHARGES
-----------------------
   0 C :   -0.008766
   1 H :    0.259009
   2 C :    0.546973
   3 F :   -0.191913
   4 F :   -0.200961
   5 F :   -0.190065
   6 O :   -0.148443
   7 C :    0.366252
   8 F :   -0.222224
   9 F :   -0.243134
  10 Cl:   -0.145845
  11 H :    0.179117
Sum of atomic charges:    0.0000000

LOEWDIN ATOMIC CHARGES
----------------------
   0 C :    0.056944
   1 H :    0.240962
   2 C :    0.489132
   3 F :   -0.197000
   4 F :   -0.199096
   5 F :   -0.185447
   6 O :   -0.587407
   7 C :    0.483510
   8 F :   -0.209571
   9 F :   -0.237134
  10 Cl:    0.142888
  11 H :    0.202218

  Mayer bond orders larger than 0.100000
B(  0-C ,  1-H ) :   0.9054 B(  0-C ,  2-C ) :   0.9551 B(  0-C ,  6-O ) :   0.9638
B(  0-C , 10-Cl) :   0.9929 B(  2-C ,  3-F ) :   1.0368 B(  2-C ,  4-F ) :   1.0202
B(  2-C ,  5-F ) :   1.0168 B(  6-O ,  7-C ) :   1.0233 B(  7-C ,  8-F ) :   1.0552
B(  7-C ,  9-F ) :   0.9626 B(  7-C , 11-H ) :   0.9368

Dispersion correction           -0.003584815
FINAL SINGLE POINT ENERGY     -1150.113859667344

DIPOLE MOMENT
-------------

Method             : SCF
Type of density    : Electron Density
Multiplicity       :   1
Irrep              :   0
Energy             : -1150.1307717924714780 Eh
Relativity type    :
Basis              : AO
                                X                 Y                 Z
Electronic contribution:      1.913616021       1.171933155       1.310713147
Nuclear contribution   :     -1.620986954      -1.813025254      -1.682758321
                        -----------------------------------------
Total Dipole Moment    :      0.292629067      -0.641092099      -0.372045174
                        -----------------------------------------
Magnitude (a.u.)       :      0.796899280
Magnitude (Debye)      :      2.025556995

Rotational constants in cm-1:             0.051025             0.031604             0.023231
Rotational constants in MHz :          1529.694273           947.470527           696.437294

                             ****ORCA TERMINATED NORMALLY****
TOTAL RUN TIME: 0 days 0 hours 0 minutes 33 seconds 487 msec
