                         Program Version 6.0.0  -   RELEASE  -
|  1> ! r2scan-3c def2/J RI DEFGRID2 scfconv6 printgap
|  2> %output
|  3>     printlevel normal
|  4> end
|  5> * xyz 0 1
|  6> C 1.0166197534 -1.2531451674 0.6760743111
|  7> C 1.0803325906 0.2503947774 0.422048404
|  8> C 1.7298571964 0.5391762539 -0.930794039
|  9> C -0.2972198699 0.9166730563 0.5593769847
| 10> C -1.3587942117 0.4985432704 -0.4583527361
| 11> O -1.8720607771 -0.7816463325 -0.1381189101
| 12> H 2.0118933456 -1.6884107862 0.6200584246
| 13> H 0.3808478297 -1.7381087863 -0.058949243
| 14> H 0.6035240491 -1.4553714447 1.6613249528
| 15> H 1.7132932263 0.6980144723 1.198386455
| 16> H 1.7071621158 1.604351381 -1.1491519564
| 17> H 1.2185982238 0.0075788813 -1.7292303647
| 18> H 2.7666342729 0.2115331856 -0.9220735135
| 19> H -0.1681149286 1.9973943899 0.4731373146
| 20> H -0.6940341015 0.6999243653 1.5532005647
| 21> H -2.1721849007 1.2373515076 -0.427207619
| 22> H -0.9376570571 0.497029503 -1.4709762517
| 23> H -2.581936536 -1.0040200944 -0.7539431972
| 24> *
| 25>
| 26>                          ****END OF INPUT****

CARTESIAN COORDINATES (ANGSTROEM)
---------------------------------
  C      1.016620   -1.253145    0.676074
  C      1.080333    0.250395    0.422048
  C      1.729857    0.539176   -0.930794
  C     -0.297220    0.916673    0.559377
  C     -1.358794    0.498543   -0.458353
  O     -1.872061   -0.781646   -0.138119
  H      2.011893   -1.688411    0.620058
  H      0.380848   -1.738109   -0.058949
  H      0.603524   -1.455371    1.661325
  H      1.713293    0.698014    1.198386
  H      1.707162    1.604351   -1.149152
  H      1.218598    0.007579   -1.729230
  H      2.766634    0.211533   -0.922074
  H     -0.168115    1.997394    0.473137
  H     -0.694034    0.699924    1.553201
  H     -2.172185    1.237352   -0.427208
  H     -0.937657    0.497030   -1.470976
  H     -2.581937   -1.004020   -0.753943

 Total Charge           Charge          ....    0
 Multiplicity           Mult            ....    1
 Number of Electrons    NEL             ....   50
 Basis Dimension        Dim             ....  179

ORBITAL ENERGIES
----------------

  NO   OCC          E(Eh)            E(eV)
   0   2.0000     -18.946590      -515.5629
   1   2.0000     -10.073775      -274.1213
   2   2.0000     -10.028695      -272.8947
   3   2.0000     -10.022389      -272.7231
   4   2.0000     -10.011891      -272.4374
   5   2.0000     -10.001447      -272.1532
   6   2.0000      -0.982988       -26.7485
   7   2.0000      -0.771151       -20.9841
   8   2.0000      -0.689847       -18.7717
   9   2.0000      -0.642690       -17.4885
  10   2.0000      -0.591622       -16.0988
  11   2.0000      -0.508071       -13.8253
  12   2.0000      -0.485142       -13.2014
  13   2.0000      -0.445496       -12.1226
  14   2.0000      -0.404507       -11.0072
  15   2.0000      -0.391699       -10.6587
  16   2.0000      -0.376875       -10.2553
  17   2.0000      -0.360533        -9.8106
  18   2.0000      -0.343173        -9.3382
  19   2.0000      -0.329657        -8.9704
  20   2.0000      -0.313658        -8.5351
  21   2.0000      -0.290777        -7.9125
  22   2.0000      -0.288322        -7.8456
  23   2.0000      -0.270654        -7.3649
  24   2.0000      -0.232769        -6.3340
  25   0.0000       0.058492         1.5916
  26   0.0000       0.093119         2.5339
  27   0.0000       0.117666         3.2018
  28   0.0000       0.124483         3.3873
  29   0.0000       0.133070         3.6210

MULLIKEN ATOMIC CHARGES
-----------------------
   0 C :   -0.494194
   1 C :   -0.024857
   2 C :   -0.517626
   3 C :   -0.264753
   4 C :   -0.167417
   5 O :   -0.415314
   6 H :    0.135703
   7 H :    0.177286
   8 H :    0.144790
   9 H :    0.146320
  10 H :    0.146470
  11 H :    0.150680
  12 H :    0.147705
  13 H :    0.143348
  14 H :    0.152161
  15 H :    0.119804
  16 H :    0.128166
  17 H :    0.291728
Sum of atomic charges:   -0.0000000

LOEWDIN ATOMIC CHARGES
----------------------
   0 C :   -0.414753
   1 C :   -0.245493
   2 C :   -0.420967
   3 C :   -0.282943
   4 C :    0.004638
   5 O :   -0.632686
   6 H :    0.147822
   7 H :    0.166968
   8 H :    0.155726
   9 H :    0.154448
  10 H :    0.152461
  11 H :    0.151037
  12 H :    0.154204
  13 H :    0.162282
  14 H :    0.169536
  15 H :    0.156329
  16 H :    0.156319
  17 H :    0.265072

  Mayer bond orders larger than 0.100000
B(  0-C ,  1-C ) :   0.9225 B(  0-C ,  6-H ) :   0.9716 B(  0-C ,  7-H ) :   0.9761
B(  0-C ,  8-H ) :   0.9708 B(  1-C ,  2-C ) :   0.9082 B(  1-C ,  3-C ) :   0.9095
B(  1-C ,  9-H ) :   0.9661 B(  2-C , 10-H ) :   0.9764 B(  2-C , 11-H ) :   0.9820
B(  2-C , 12-H ) :   0.9691 B(  3-C ,  4-C ) :   0.9434 B(  3-C , 13-H ) :   0.9697
B(  3-C , 14-H ) :   0.9709 B(  4-C ,  5-O ) :   0.9206 B(  4-C , 15-H ) :   0.9560
B(  4-C , 16-H ) :   0.9754 B(  5-O , 17-H ) :   0.9010

Dispersion correction           -0.004473538
FINAL SINGLE POINT ENERGY      -272.895786781539

DIPOLE MOMENT
-------------

Method             : SCF
Type of density    : Electron Density
Multiplicity       :   1
Irrep              :   0
Energy             :  -272.9012727144586279 Eh
Relativity type    :
Basis              : AO
                                X                 Y                 Z
Electronic contribution:     -3.811358675      -0.668881072       0.555876560
Nuclear contribution   :      3.582295374       0.989670697      -0.945302382
                        -----------------------------------------
Total Dipole Moment    :     -0.229063301       0.320789626      -0.389425822
                        -----------------------------------------
Magnitude (a.u.)       :      0.554101480
Magnitude (Debye)      :      1.408414035

Rotational constants in cm-1:             0.162691             0.080583             0.068885
Rotational constants in MHz :          4877.364193          2415.817986          2065.108286

                             ****ORCA TERMINATED NORMALLY****
TOTAL RUN TIME: 0 days 0 hours 0 minutes 24 seconds 18 msec
