                         Program Version 6.0.0  -   RELEASE  -
|  1> ! r2scan-3c def2/J RI DEFGRID2 scfconv6 printgap
|  2> %output
|  3>     printlevel normal
|  4> end
|  5> %cpcm
|  6>     smd true
|  7>     smdsolvent "water"
|  8> end
|  9> * xyz 0 1
| 10> C 1.0166197534 -1.2531451674 0.6760743111
| 11> C 1.0803325906 0.2503947774 0.422048404
| 12> C 1.7298571964 0.5391762539 -0.930794039
| 13> C -0.2972198699 0.9166730563 0.5593769847
| 14> C -1.3587942117 0.4985432704 -0.4583527361
| 15> O -1.8720607771 -0.7816463325 -0.1381189101
| 16> H 2.0118933456 -1.6884107862 0.6200584246
| 17> H 0.3808478297 -1.7381087863 -0.058949243
| 18> H 0.6035240491 -1.4553714447 1.6613249528
| 19> H 1.7132932263 0.6980144723 1.198386455
| 20> H 1.7071621158 1.604351381 -1.1491519564
| 21> H 1.2185982238 0.0075788813 -1.7292303647
| 22> H 2.7666342729 0.2115331856 -0.9220735135
| 23> H -0.1681149286 1.9973943899 0.4731373146
| 24> H -0.6940341015 0.6999243653 1.5532005647
| 25> H -2.1721849007 1.2373515076 -0.427207619
| 26> H -0.9376570571 0.497029503 -1.4709762517
| 27> H -2.581936536 -1.0040200944 -0.7539431972
| 28> *
| 29>
| 30>                          ****END OF INPUT****

CARTESIAN COORDINATES (ANGSTROEM)
---------------------------------
  C      1.016620   -1.253145    0.676074
  C      1.080333    0.250395    0.422048
  C      1.729857    0.539176   -0.930794
  C     -0.297220    0.916673    0.559377
  C     -1.358794    0.498543   -0.458353
  O     -1.872061   -0.781646   -0.138119
  H      2.011893   -1.688411    0.620058
  H      0.380848   -1.738109   -0.058949
  H      0.603524   -1.455371    1.661325
  H      1.713293    0.698014    1.198386
  H      1.707162    1.604351   -1.149152
  H      1.218598    0.007579   -1.729230
  H      2.766634    0.211533   -0.922074
  H     -0.168115    1.997394    0.473137
  H     -0.694034    0.699924    1.553201
  H     -2.172185    1.237352   -0.427208
  H     -0.937657    0.497030   -1.470976
  H     -2.581937   -1.004020   -0.753943

 Total Charge           Charge          ....    0
 Multiplicity           Mult            ....    1
 Number of Electrons    NEL             ....   50
 Basis Dimension        Dim             ....  179

ORBITAL ENERGIES
----------------

  NO   OCC          E(Eh)            E(eV)
   0   2.0000     -18.947081      -515.5763
   1   2.0000     -10.066312      -273.9183
   2   2.0000     -10.024709      -272.7862
   3   2.0000     -10.016196      -272.5546
   4   2.0000     -10.005473      -272.2628
   5   2.0000     -10.002880      -272.1922
   6   2.0000      -0.982500       -26.7352
   7   2.0000      -0.767091       -20.8736
   8   2.0000      -0.685073       -18.6418
   9   2.0000      -0.640708       -17.4345
  10   2.0000      -0.586853       -15.9691
  11   2.0000      -0.504427       -13.7262
  12   2.0000      -0.480434       -13.0733
  13   2.0000      -0.440969       -11.9994
  14   2.0000      -0.400971       -10.9110
  15   2.0000      -0.388293       -10.5660
  16   2.0000      -0.372250       -10.1294
  17   2.0000      -0.359418        -9.7802
  18   2.0000      -0.342187        -9.3114
  19   2.0000      -0.326330        -8.8799
  20   2.0000      -0.312758        -8.5106
  21   2.0000      -0.287835        -7.8324
  22   2.0000      -0.285074        -7.7573
  23   2.0000      -0.267548        -7.2804
  24   2.0000      -0.233699        -6.3593
  25   0.0000       0.074005         2.0138
  26   0.0000       0.101322         2.7571
  27   0.0000       0.126464         3.4413
  28   0.0000       0.132752         3.6124
  29   0.0000       0.137893         3.7523

MULLIKEN ATOMIC CHARGES
-----------------------
   0 C :   -0.549061
   1 C :    0.003817
   2 C :   -0.556056
   3 C :   -0.286626
   4 C :   -0.177008
   5 O :   -0.494264
   6 H :    0.151176
   7 H :    0.171155
   8 H :    0.157896
   9 H :    0.154990
  10 H :    0.159419
  11 H :    0.163155
  12 H :    0.158114
  13 H :    0.161676
  14 H :    0.154950
  15 H :    0.137338
  16 H :    0.145231
  17 H :    0.344100
Sum of atomic charges:   -0.0000000

LOEWDIN ATOMIC CHARGES
----------------------
   0 C :   -0.426150
   1 C :   -0.243691
   2 C :   -0.427691
   3 C :   -0.286868
   4 C :    0.006781
   5 O :   -0.665768
   6 H :    0.152245
   7 H :    0.162172
   8 H :    0.156078
   9 H :    0.157542
  10 H :    0.156772
  11 H :    0.154541
  12 H :    0.156040
  13 H :    0.169048
  14 H :    0.167914
  15 H :    0.163950
  16 H :    0.164073
  17 H :    0.283012

  Mayer bond orders larger than 0.100000
B(  0-C ,  1-C ) :   0.8999 B(  0-C ,  6-H ) :   0.9690 B(  0-C ,  7-H ) :   0.9776
B(  0-C ,  8-H ) :   0.9734 B(  1-C ,  2-C ) :   0.9050 B(  1-C ,  3-C ) :   0.9008
B(  1-C ,  9-H ) :   0.9662 B(  2-C , 10-H ) :   0.9727 B(  2-C , 11-H ) :   0.9782
B(  2-C , 12-H ) :   0.9676 B(  3-C ,  4-C ) :   0.9290 B(  3-C , 13-H ) :   0.9658
B(  3-C , 14-H ) :   0.9746 B(  4-C ,  5-O ) :   0.9077 B(  4-C , 15-H ) :   0.9558
B(  4-C , 16-H ) :   0.9758 B(  5-O , 17-H ) :   0.8749

Dispersion correction           -0.004473538
FINAL SINGLE POINT ENERGY      -272.901026966732

DIPOLE MOMENT
-------------

Method             : SCF
Type of density    : Electron Density
Multiplicity       :   1
Irrep              :   0
Energy             :  -272.9065128996517160 Eh
Relativity type    :
Basis              : AO
                                X                 Y                 Z
Electronic contribution:     -3.840454182      -0.468210399       0.365394062
Nuclear contribution   :      3.582295374       0.989670697      -0.945302382
                        -----------------------------------------
Total Dipole Moment    :     -0.258158808       0.521460299      -0.579908319
                        -----------------------------------------
Magnitude (a.u.)       :      0.821498918
Magnitude (Debye)      :      2.088084307

Rotational constants in cm-1:             0.162691             0.080583             0.068885
Rotational constants in MHz :          4877.364193          2415.817986          2065.108286

                             ****ORCA TERMINATED NORMALLY****
TOTAL RUN TIME: 0 days 0 hours 0 minutes 27 seconds 887 msec
