                         Program Version 6.0.0  -   RELEASE  -
|  1> ! pbe def2-sv(p) def2/J RI DEFGRID1 loosescf d4 GCP(DFT/SV(P)) printgap
|  2> %output
|  3>     printlevel normal
|  4> end
|  5> * xyz 0 1
|  6> C 1.6043451243 0.3647047263 1.3435443837
|  7> C 1.1937384027 0.4399011575 -0.123263211
|  8> H 0.9189139686 1.4784896767 -0.3652740301
|  9> C 0.0279788636 -0.4993276923 -0.4615705566
| 10> C -1.2728122097 -0.2488494067 0.3091123887
| 11> C -1.8443802498 1.1392331922 0.0275821965
| 12> C -2.2968237793 -1.318919115 -0.0704696279
| 13> O 2.34268811 0.0896027547 -0.8861275056
| 14> H 1.7862144097 -0.6692681016 1.6242011595
| 15> H 2.524411904 0.9261176508 1.4833259211
| 16> H 0.8326470775 0.7849306069 1.9796610863
| 17> H -0.1836816536 -0.4164218251 -1.5317551699
| 18> H 0.3645519565 -1.5213086897 -0.2689153718
| 19> H -1.0717947927 -0.335669112 1.3809937682
| 20> H -2.8011035343 1.2583596416 0.5305824627
| 21> H -2.0001851821 1.2757958939 -1.0403962075
| 22> H -1.176572331 1.9191823885 0.3830894078
| 23> H -2.5308008009 -1.2611335356 -1.1313300894
| 24> H -1.9114315244 -2.3130515868 0.142835126
| 25> H -3.2172381192 -1.1802730196 0.4913731127
| 26> H 2.1185237506 0.1007339602 -1.8260176861
| 27> *
| 28>
| 29>                          ****END OF INPUT****

CARTESIAN COORDINATES (ANGSTROEM)
---------------------------------
  C      1.604345    0.364705    1.343544
  C      1.193738    0.439901   -0.123263
  H      0.918914    1.478490   -0.365274
  C      0.027979   -0.499328   -0.461571
  C     -1.272812   -0.248849    0.309112
  C     -1.844380    1.139233    0.027582
  C     -2.296824   -1.318919   -0.070470
  O      2.342688    0.089603   -0.886128
  H      1.786214   -0.669268    1.624201
  H      2.524412    0.926118    1.483326
  H      0.832647    0.784931    1.979661
  H     -0.183682   -0.416422   -1.531755
  H      0.364552   -1.521309   -0.268915
  H     -1.071795   -0.335669    1.380994
  H     -2.801104    1.258360    0.530582
  H     -2.000185    1.275796   -1.040396
  H     -1.176572    1.919182    0.383089
  H     -2.530801   -1.261134   -1.131330
  H     -1.911432   -2.313052    0.142835
  H     -3.217238   -1.180273    0.491373
  H      2.118524    0.100734   -1.826018

 Total Charge           Charge          ....    0
 Multiplicity           Mult            ....    1
 Number of Electrons    NEL             ....   58
 Basis Dimension        Dim             ....  126

ORBITAL ENERGIES
----------------

  NO   OCC          E(Eh)            E(eV)
   0   2.0000     -18.733460      -509.7634
   1   2.0000      -9.933387      -270.3012
   2   2.0000      -9.897142      -269.3149
   3   2.0000      -9.880912      -268.8733
   4   2.0000      -9.874853      -268.7084
   5   2.0000      -9.873113      -268.6611
   6   2.0000      -9.869657      -268.5670
   7   2.0000      -0.910946       -24.7881
   8   2.0000      -0.734517       -19.9872
   9   2.0000      -0.673599       -18.3296
  10   2.0000      -0.613561       -16.6958
  11   2.0000      -0.608613       -16.5612
  12   2.0000      -0.530685       -14.4407
  13   2.0000      -0.494619       -13.4593
  14   2.0000      -0.458177       -12.4676
  15   2.0000      -0.429782       -11.6950
  16   2.0000      -0.396428       -10.7873
  17   2.0000      -0.383438       -10.4339
  18   2.0000      -0.368325       -10.0226
  19   2.0000      -0.347548        -9.4573
  20   2.0000      -0.340596        -9.2681
  21   2.0000      -0.335847        -9.1389
  22   2.0000      -0.317738        -8.6461
  23   2.0000      -0.312107        -8.4929
  24   2.0000      -0.302038        -8.2189
  25   2.0000      -0.284997        -7.7552
  26   2.0000      -0.282809        -7.6956
  27   2.0000      -0.263146        -7.1606
  28   2.0000      -0.205871        -5.6020
  29   0.0000       0.027479         0.7477
  30   0.0000       0.041595         1.1319
  31   0.0000       0.060161         1.6371
  32   0.0000       0.067696         1.8421
  33   0.0000       0.080515         2.1909

MULLIKEN ATOMIC CHARGES
-----------------------
   0 C :   -0.253229
   1 C :    0.029451
   2 H :    0.061858
   3 C :   -0.139836
   4 C :   -0.198236
   5 C :   -0.254301
   6 C :   -0.232643
   7 O :   -0.429521
   8 H :    0.097669
   9 H :    0.109623
  10 H :    0.108164
  11 H :    0.059915
  12 H :    0.081335
  13 H :    0.081378
  14 H :    0.098669
  15 H :    0.091036
  16 H :    0.110697
  17 H :    0.090878
  18 H :    0.097926
  19 H :    0.097606
  20 H :    0.291564
Sum of atomic charges:    0.0000000

LOEWDIN ATOMIC CHARGES
----------------------
   0 C :   -0.340609
   1 C :   -0.056777
   2 H :    0.094688
   3 C :   -0.231218
   4 C :   -0.159377
   5 C :   -0.331841
   6 C :   -0.327173
   7 O :   -0.336820
   8 H :    0.121821
   9 H :    0.126557
  10 H :    0.121293
  11 H :    0.106737
  12 H :    0.117362
  13 H :    0.116108
  14 H :    0.118500
  15 H :    0.116389
  16 H :    0.115900
  17 H :    0.115515
  18 H :    0.117188
  19 H :    0.116517
  20 H :    0.279239

  Mayer bond orders larger than 0.100000
B(  0-C ,  1-C ) :   1.1138 B(  0-C ,  8-H ) :   0.9443 B(  0-C ,  9-H ) :   0.9420
B(  0-C , 10-H ) :   0.9389 B(  1-C ,  2-H ) :   0.9054 B(  1-C ,  3-C ) :   1.0761
B(  1-C ,  7-O ) :   1.0502 B(  3-C ,  4-C ) :   1.0684 B(  3-C , 11-H ) :   0.9081
B(  3-C , 12-H ) :   0.9060 B(  4-C ,  5-C ) :   1.1029 B(  4-C ,  6-C ) :   1.1101
B(  4-C , 13-H ) :   0.8963 B(  5-C , 14-H ) :   0.9494 B(  5-C , 15-H ) :   0.9498
B(  5-C , 16-H ) :   0.9431 B(  6-C , 17-H ) :   0.9501 B(  6-C , 18-H ) :   0.9502
B(  6-C , 19-H ) :   0.9502 B(  7-O , 20-H ) :   0.8534

Dispersion correction           -0.016362885
FINAL SINGLE POINT ENERGY      -311.518313320708

DIPOLE MOMENT
-------------

Method             : SCF
Type of density    : Electron Density
Multiplicity       :   1
Irrep              :   0
Energy             :  -311.5977280806224599 Eh
Relativity type    :
Basis              : AO
                                X                 Y                 Z
Electronic contribution:      5.405270436       0.066964841      -1.948171951
Nuclear contribution   :     -5.920267907       0.044939320       1.724678466
                        -----------------------------------------
Total Dipole Moment    :     -0.514997471       0.111904161      -0.223493486
                        -----------------------------------------
Magnitude (a.u.)       :      0.572445870
Magnitude (Debye)      :      1.455041769

Rotational constants in cm-1:             0.142352             0.046220             0.043615
Rotational constants in MHz :          4267.598350          1385.644569          1307.539665

                             ****ORCA TERMINATED NORMALLY****
TOTAL RUN TIME: 0 days 0 hours 0 minutes 10 seconds 41 msec
