                         Program Version 6.0.0  -   RELEASE  -
|  1> ! pbe def2-sv(p) def2/J RI DEFGRID1 loosescf d4 GCP(DFT/SV(P)) printgap
|  2> %output
|  3>     printlevel normal
|  4> end
|  5> * xyz 0 1
|  6> C 5.3327754202 -0.319063406 0.6975720485
|  7> C 4.4807725759 0.3245242259 -0.3968638715
|  8> C 3.0481203743 -0.1601934383 -0.2979465373
|  9> O 2.7669588331 -1.3486506531 -0.3036498687
| 10> N 2.1282703444 0.838855338 -0.2050809955
| 11> C 0.7416408268 0.7523331188 -0.1123075625
| 12> C 0.0121025224 1.9416619994 -0.0437647093
| 13> C -1.3639357888 1.9180918667 0.048613504
| 14> C -2.0388115918 0.7066388859 0.0746537647
| 15> C -1.3181976775 -0.4787118974 0.0077910857
| 16> C 0.0621126925 -0.4631612262 -0.0849286506
| 17> Cl -2.1434045995 -2.0033732989 0.0393733485
| 18> Cl -3.7681072822 0.676784531 0.1897411844
| 19> H 5.2236860527 -1.4003124445 0.6605708812
| 20> H 5.0157006442 0.0235280584 1.6794673534
| 21> H 6.3795745077 -0.0654770399 0.5587862907
| 22> H 4.8597375248 0.0091851706 -1.371095791
| 23> H 4.5392372034 1.4093220171 -0.3314373413
| 24> H 2.4827491258 1.7873668128 -0.2095891286
| 25> H 0.5226140783 2.8909930136 -0.0631916413
| 26> H -1.926756511 2.8349540885 0.1009750681
| 27> H 0.6082204832 -1.390072706 -0.136226656
| 28> *
| 29>
| 30>                          ****END OF INPUT****

CARTESIAN COORDINATES (ANGSTROEM)
---------------------------------
  C      5.332775   -0.319063    0.697572
  C      4.480773    0.324524   -0.396864
  C      3.048120   -0.160193   -0.297947
  O      2.766959   -1.348651   -0.303650
  N      2.128270    0.838855   -0.205081
  C      0.741641    0.752333   -0.112308
  C      0.012103    1.941662   -0.043765
  C     -1.363936    1.918092    0.048614
  C     -2.038812    0.706639    0.074654
  C     -1.318198   -0.478712    0.007791
  C      0.062113   -0.463161   -0.084929
  Cl    -2.143405   -2.003373    0.039373
  Cl    -3.768107    0.676785    0.189741
  H      5.223686   -1.400312    0.660571
  H      5.015701    0.023528    1.679467
  H      6.379575   -0.065477    0.558786
  H      4.859738    0.009185   -1.371096
  H      4.539237    1.409322   -0.331437
  H      2.482749    1.787367   -0.209589
  H      0.522614    2.890993   -0.063192
  H     -1.926757    2.834954    0.100975
  H      0.608220   -1.390073   -0.136227

 Total Charge           Charge          ....    0
 Multiplicity           Mult            ....    1
 Number of Electrons    NEL             ....  112
 Basis Dimension        Dim             ....  208

ORBITAL ENERGIES
----------------

  NO   OCC          E(Eh)            E(eV)
   0   2.0000    -100.642248     -2738.6148
   1   2.0000    -100.641294     -2738.5888
   2   2.0000     -18.729504      -509.6557
   3   2.0000     -14.051586      -382.3631
   4   2.0000      -9.997581      -272.0480
   5   2.0000      -9.960503      -271.0391
   6   2.0000      -9.960261      -271.0325
   7   2.0000      -9.956948      -270.9423
   8   2.0000      -9.916962      -269.8543
   9   2.0000      -9.916011      -269.8284
  10   2.0000      -9.907538      -269.5978
  11   2.0000      -9.905892      -269.5530
  12   2.0000      -9.888323      -269.0750
  13   2.0000      -9.178056      -249.7476
  14   2.0000      -9.177102      -249.7217
  15   2.0000      -7.009612      -190.7412
  16   2.0000      -7.008683      -190.7160
  17   2.0000      -6.998035      -190.4262
  18   2.0000      -6.997263      -190.4052
  19   2.0000      -6.997150      -190.4021
  20   2.0000      -6.996222      -190.3769
  21   2.0000      -0.951686       -25.8967
  22   2.0000      -0.873958       -23.7816
  23   2.0000      -0.833607       -22.6836
  24   2.0000      -0.779167       -21.2022
  25   2.0000      -0.764887       -20.8136
  26   2.0000      -0.715226       -19.4623
  27   2.0000      -0.681272       -18.5383
  28   2.0000      -0.667635       -18.1673
  29   2.0000      -0.601568       -16.3695
  30   2.0000      -0.579590       -15.7715
  31   2.0000      -0.553164       -15.0524
  32   2.0000      -0.534616       -14.5476
  33   2.0000      -0.497818       -13.5463
  34   2.0000      -0.452839       -12.3224
  35   2.0000      -0.448004       -12.1908
  36   2.0000      -0.434592       -11.8259
  37   2.0000      -0.424566       -11.5530
  38   2.0000      -0.410500       -11.1703
  39   2.0000      -0.398691       -10.8489
  40   2.0000      -0.394600       -10.7376
  41   2.0000      -0.374104       -10.1799
  42   2.0000      -0.369511       -10.0549
  43   2.0000      -0.359511        -9.7828
  44   2.0000      -0.342554        -9.3214
  45   2.0000      -0.338485        -9.2106
  46   2.0000      -0.331304        -9.0152
  47   2.0000      -0.322775        -8.7831
  48   2.0000      -0.305024        -8.3001
  49   2.0000      -0.303270        -8.2524
  50   2.0000      -0.280626        -7.6362
  51   2.0000      -0.263840        -7.1795
  52   2.0000      -0.257569        -7.0088
  53   2.0000      -0.231470        -6.2986
  54   2.0000      -0.213459        -5.8085
  55   2.0000      -0.203461        -5.5365
  56   0.0000      -0.059254        -1.6124
  57   0.0000      -0.054247        -1.4761
  58   0.0000      -0.013751        -0.3742
  59   0.0000      -0.002923        -0.0796
  60   0.0000       0.003547         0.0965

MULLIKEN ATOMIC CHARGES
-----------------------
   0 C :   -0.291127
   1 C :   -0.179799
   2 C :    0.082020
   3 O :   -0.210207
   4 N :   -0.189984
   5 C :    0.208643
   6 C :   -0.130288
   7 C :   -0.112909
   8 C :    0.090852
   9 C :    0.088316
  10 C :   -0.190957
  11 Cl:   -0.051327
  12 Cl:   -0.061730
  13 H :    0.131803
  14 H :    0.106890
  15 H :    0.111295
  16 H :    0.121110
  17 H :    0.076185
  18 H :    0.233428
  19 H :    0.038257
  20 H :    0.054823
  21 H :    0.074705
Sum of atomic charges:   -0.0000000

LOEWDIN ATOMIC CHARGES
----------------------
   0 C :   -0.333441
   1 C :   -0.254817
   2 C :    0.034264
   3 O :   -0.177907
   4 N :   -0.103446
   5 C :    0.005301
   6 C :   -0.147366
   7 C :   -0.128504
   8 C :   -0.165756
   9 C :   -0.143908
  10 C :   -0.153191
  11 Cl:    0.145312
  12 Cl:    0.136526
  13 H :    0.131625
  14 H :    0.121229
  15 H :    0.122801
  16 H :    0.143959
  17 H :    0.114160
  18 H :    0.240430
  19 H :    0.125657
  20 H :    0.135563
  21 H :    0.151509

  Mayer bond orders larger than 0.100000
B(  0-C ,  1-C ) :   1.1416 B(  0-C , 13-H ) :   0.9467 B(  0-C , 14-H ) :   0.9569
B(  0-C , 15-H ) :   0.9520 B(  1-C ,  2-C ) :   1.0107 B(  1-C , 16-H ) :   0.8960
B(  1-C , 17-H ) :   0.9168 B(  2-C ,  3-O ) :   2.0231 B(  2-C ,  4-N ) :   1.1637
B(  4-N ,  5-C ) :   1.0953 B(  4-N , 18-H ) :   0.8375 B(  5-C ,  6-C ) :   1.2926
B(  5-C , 10-C ) :   1.3379 B(  6-C ,  7-C ) :   1.3702 B(  6-C , 19-H ) :   0.9586
B(  7-C ,  8-C ) :   1.3749 B(  7-C , 20-H ) :   0.9627 B(  8-C ,  9-C ) :   1.4117
B(  8-C , 12-Cl) :   1.0292 B(  9-C , 10-C ) :   1.3247 B(  9-C , 11-Cl) :   1.0456
B( 10-C , 21-H ) :   0.9486

Dispersion correction           -0.027663179
FINAL SINGLE POINT ENERGY     -1397.095488215258

DIPOLE MOMENT
-------------

Method             : SCF
Type of density    : Electron Density
Multiplicity       :   1
Irrep              :   0
Energy             : -1397.1560894108008597 Eh
Relativity type    :
Basis              : AO
                                X                 Y                 Z
Electronic contribution:    -32.854221382      -5.893850766      -0.547061969
Nuclear contribution   :     33.979010656       7.487588711       0.520200425
                        -----------------------------------------
Total Dipole Moment    :      1.124789274       1.593737945      -0.026861544
                        -----------------------------------------
Magnitude (a.u.)       :      1.950864703
Magnitude (Debye)      :      4.958704000

Rotational constants in cm-1:             0.048032             0.009294             0.007916
Rotational constants in MHz :          1439.948661           278.625715           237.318562

                             ****ORCA TERMINATED NORMALLY****
TOTAL RUN TIME: 0 days 0 hours 0 minutes 14 seconds 620 msec
