                         Program Version 6.0.0  -   RELEASE  -
|  1> ! pbe def2-sv(p) def2/J RI DEFGRID1 loosescf d4 GCP(DFT/SV(P)) printgap
|  2> %output
|  3>     printlevel normal
|  4> end
|  5> * xyz 0 1
|  6> C -1.7690794767 0.7932460493 -0.3672562806
|  7> C -1.1627633036 -0.2769731724 0.5447555448
|  8> N -0.0240503241 -1.0011508208 0.0031364699
|  9> C 1.2971281649 -0.4716724866 0.2777374494
| 10> C 1.6657751083 0.8602746865 -0.3870030518
| 11> H -2.0776473718 0.3476843618 -1.3111158156
| 12> H -2.6442091752 1.2279568489 0.1089982215
| 13> H -1.0603139406 1.5892925161 -0.5773848695
| 14> H -1.9388672781 -1.0215277301 0.7601344597
| 15> H -0.8587761849 0.1689453294 1.4948150952
| 16> H -0.1465735783 -1.1359853736 -0.9948986141
| 17> H 1.3898257123 -0.3730345047 1.363239236
| 18> H 2.0082620035 -1.2363711243 -0.0494632182
| 19> H 2.720173866 1.0688891038 -0.2251968837
| 20> H 1.4831800354 0.8135410282 -1.458951032
| 21> H 1.0890374271 1.6803637949 0.033157894
| 22> *
| 23>
| 24>                          ****END OF INPUT****

CARTESIAN COORDINATES (ANGSTROEM)
---------------------------------
  C     -1.769079    0.793246   -0.367256
  C     -1.162763   -0.276973    0.544756
  N     -0.024050   -1.001151    0.003136
  C      1.297128   -0.471672    0.277737
  C      1.665775    0.860275   -0.387003
  H     -2.077647    0.347684   -1.311116
  H     -2.644209    1.227957    0.108998
  H     -1.060314    1.589293   -0.577385
  H     -1.938867   -1.021528    0.760134
  H     -0.858776    0.168945    1.494815
  H     -0.146574   -1.135985   -0.994899
  H      1.389826   -0.373035    1.363239
  H      2.008262   -1.236371   -0.049463
  H      2.720174    1.068889   -0.225197
  H      1.483180    0.813541   -1.458951
  H      1.089037    1.680364    0.033158

 Total Charge           Charge          ....    0
 Multiplicity           Mult            ....    1
 Number of Electrons    NEL             ....   42
 Basis Dimension        Dim             ....   92

ORBITAL ENERGIES
----------------

  NO   OCC          E(Eh)            E(eV)
   0   2.0000     -13.958652      -379.8342
   1   2.0000      -9.904016      -269.5020
   2   2.0000      -9.903992      -269.5013
   3   2.0000      -9.872916      -268.6557
   4   2.0000      -9.871189      -268.6087
   5   2.0000      -0.809862       -22.0375
   6   2.0000      -0.677546       -18.4370
   7   2.0000      -0.638173       -17.3656
   8   2.0000      -0.553561       -15.0632
   9   2.0000      -0.529553       -14.4099
  10   2.0000      -0.437737       -11.9114
  11   2.0000      -0.407003       -11.0751
  12   2.0000      -0.377173       -10.2634
  13   2.0000      -0.366846        -9.9824
  14   2.0000      -0.364640        -9.9224
  15   2.0000      -0.336018        -9.1435
  16   2.0000      -0.330456        -8.9922
  17   2.0000      -0.310823        -8.4579
  18   2.0000      -0.299035        -8.1372
  19   2.0000      -0.283305        -7.7091
  20   2.0000      -0.161452        -4.3933
  21   0.0000       0.035572         0.9680
  22   0.0000       0.060534         1.6472
  23   0.0000       0.069405         1.8886
  24   0.0000       0.077373         2.1054
  25   0.0000       0.099632         2.7111

MULLIKEN ATOMIC CHARGES
-----------------------
   0 C :   -0.301138
   1 C :   -0.086127
   2 N :   -0.341169
   3 C :   -0.107373
   4 C :   -0.289546
   5 H :    0.097134
   6 H :    0.096956
   7 H :    0.105182
   8 H :    0.085983
   9 H :    0.081785
  10 H :    0.189938
  11 H :    0.086081
  12 H :    0.085225
  13 H :    0.094499
  14 H :    0.090963
  15 H :    0.111607
Sum of atomic charges:    0.0000000

LOEWDIN ATOMIC CHARGES
----------------------
   0 C :   -0.363781
   1 C :   -0.174340
   2 N :   -0.261583
   3 C :   -0.175798
   4 C :   -0.367449
   5 H :    0.114978
   6 H :    0.120604
   7 H :    0.115987
   8 H :    0.107997
   9 H :    0.111982
  10 H :    0.202017
  11 H :    0.111170
  12 H :    0.109521
  13 H :    0.119531
  14 H :    0.113205
  15 H :    0.115958

  Mayer bond orders larger than 0.100000
B(  0-C ,  1-C ) :   1.1434 B(  0-C ,  5-H ) :   0.9506 B(  0-C ,  6-H ) :   0.9407
B(  0-C ,  7-H ) :   0.9451 B(  1-C ,  2-N ) :   1.0880 B(  1-C ,  8-H ) :   0.9364
B(  1-C ,  9-H ) :   0.9277 B(  2-N ,  3-C ) :   1.1227 B(  2-N , 10-H ) :   0.8859
B(  3-C ,  4-C ) :   1.1182 B(  3-C , 11-H ) :   0.9319 B(  3-C , 12-H ) :   0.9408
B(  4-C , 13-H ) :   0.9383 B(  4-C , 14-H ) :   0.9515 B(  4-C , 15-H ) :   0.9435

Dispersion correction           -0.010568604
FINAL SINGLE POINT ENERGY      -213.240484909029

DIPOLE MOMENT
-------------

Method             : SCF
Type of density    : Electron Density
Multiplicity       :   1
Irrep              :   0
Energy             :  -213.3002367354317244 Eh
Relativity type    :
Basis              : AO
                                X                 Y                 Z
Electronic contribution:      0.026825706      -2.648502023       0.603818577
Nuclear contribution   :     -0.033820780       2.930730666      -0.803681632
                        -----------------------------------------
Total Dipole Moment    :     -0.006995074       0.282228643      -0.199863056
                        -----------------------------------------
Magnitude (a.u.)       :      0.345900534
Magnitude (Debye)      :      0.879209285

Rotational constants in cm-1:             0.260647             0.109429             0.087009
Rotational constants in MHz :          7814.013498          3280.585367          2608.465710

                             ****ORCA TERMINATED NORMALLY****
TOTAL RUN TIME: 0 days 0 hours 0 minutes 6 seconds 443 msec
