                         Program Version 6.0.0  -   RELEASE  -
|  1> ! pbe def2-sv(p) def2/J RI DEFGRID1 loosescf d4 GCP(DFT/SV(P)) printgap
|  2> %output
|  3>     printlevel normal
|  4> end
|  5> * xyz 0 1
|  6> C 1.9655826026 -0.4356114137 0.8260323746
|  7> C 1.5186428363 0.3021626453 -0.4322486087
|  8> C 0.2504955283 -0.2452610136 -1.0956140513
|  9> C -1.0834635802 0.0116859732 -0.3579362128
| 10> H -1.8832377537 -0.000688057 -1.1097303429
| 11> C -1.4073019393 -1.0542647752 0.6897406125
| 12> O -1.157526541 1.3159976891 0.1900164699
| 13> H 1.3024966786 -0.2481080019 1.666040992
| 14> H 2.9617087839 -0.1046416138 1.1119542185
| 15> H 2.0009609433 -1.5075352394 0.6453780745
| 16> H 1.3799945027 1.3632921945 -0.2145513183
| 17> H 2.3207152635 0.230403859 -1.1707679501
| 18> H 0.1758293184 0.2259252314 -2.0781250478
| 19> H 0.3512559804 -1.3202323647 -1.2495551829
| 20> H -2.3657681034 -0.8275830468 1.1517352342
| 21> H -1.4716542202 -2.0292946664 0.2161829139
| 22> H -0.6478405093 -1.0917137713 1.4645045453
| 23> H -0.5739288302 1.357326738 0.9601587903
| 24> *
| 25>
| 26>                          ****END OF INPUT****

CARTESIAN COORDINATES (ANGSTROEM)
---------------------------------
  C      1.965583   -0.435611    0.826032
  C      1.518643    0.302163   -0.432249
  C      0.250496   -0.245261   -1.095614
  C     -1.083464    0.011686   -0.357936
  H     -1.883238   -0.000688   -1.109730
  C     -1.407302   -1.054265    0.689741
  O     -1.157527    1.315998    0.190016
  H      1.302497   -0.248108    1.666041
  H      2.961709   -0.104642    1.111954
  H      2.000961   -1.507535    0.645378
  H      1.379995    1.363292   -0.214551
  H      2.320715    0.230404   -1.170768
  H      0.175829    0.225925   -2.078125
  H      0.351256   -1.320232   -1.249555
  H     -2.365768   -0.827583    1.151735
  H     -1.471654   -2.029295    0.216183
  H     -0.647841   -1.091714    1.464505
  H     -0.573929    1.357327    0.960159

 Total Charge           Charge          ....    0
 Multiplicity           Mult            ....    1
 Number of Electrons    NEL             ....   50
 Basis Dimension        Dim             ....  108

ORBITAL ENERGIES
----------------

  NO   OCC          E(Eh)            E(eV)
   0   2.0000     -18.739032      -509.9150
   1   2.0000      -9.934257      -270.3249
   2   2.0000      -9.886636      -269.0290
   3   2.0000      -9.879717      -268.8408
   4   2.0000      -9.879114      -268.8244
   5   2.0000      -9.874095      -268.6878
   6   2.0000      -0.916662       -24.9436
   7   2.0000      -0.714984       -19.4557
   8   2.0000      -0.668675       -18.1956
   9   2.0000      -0.615685       -16.7536
  10   2.0000      -0.552112       -15.0237
  11   2.0000      -0.510495       -13.8913
  12   2.0000      -0.432804       -11.7772
  13   2.0000      -0.420348       -11.4382
  14   2.0000      -0.408447       -11.1144
  15   2.0000      -0.374825       -10.1995
  16   2.0000      -0.369851       -10.0642
  17   2.0000      -0.352821        -9.6008
  18   2.0000      -0.337862        -9.1937
  19   2.0000      -0.330669        -8.9980
  20   2.0000      -0.298376        -8.1192
  21   2.0000      -0.289273        -7.8715
  22   2.0000      -0.285926        -7.7804
  23   2.0000      -0.259862        -7.0712
  24   2.0000      -0.212019        -5.7693
  25   0.0000       0.017684         0.4812
  26   0.0000       0.049905         1.3580
  27   0.0000       0.066383         1.8064
  28   0.0000       0.074720         2.0332
  29   0.0000       0.083673         2.2769

MULLIKEN ATOMIC CHARGES
-----------------------
   0 C :   -0.286061
   1 C :   -0.216536
   2 C :   -0.127789
   3 C :    0.029395
   4 H :    0.069291
   5 C :   -0.279458
   6 O :   -0.429214
   7 H :    0.102352
   8 H :    0.103971
   9 H :    0.100812
  10 H :    0.085137
  11 H :    0.089162
  12 H :    0.083341
  13 H :    0.074767
  14 H :    0.109879
  15 H :    0.098387
  16 H :    0.096274
  17 H :    0.296289
Sum of atomic charges:    0.0000000

LOEWDIN ATOMIC CHARGES
----------------------
   0 C :   -0.345940
   1 C :   -0.241669
   2 C :   -0.240516
   3 C :   -0.057915
   4 H :    0.112650
   5 C :   -0.357232
   6 O :   -0.325656
   7 H :    0.108012
   8 H :    0.121199
   9 H :    0.118561
  10 H :    0.112002
  11 H :    0.120498
  12 H :    0.120578
  13 H :    0.115713
  14 H :    0.122431
  15 H :    0.123194
  16 H :    0.115404
  17 H :    0.278686

  Mayer bond orders larger than 0.100000
B(  0-C ,  1-C ) :   1.1546 B(  0-C ,  7-H ) :   0.9429 B(  0-C ,  8-H ) :   0.9477
B(  0-C ,  9-H ) :   0.9526 B(  1-C ,  2-C ) :   1.1306 B(  1-C , 10-H ) :   0.9157
B(  1-C , 11-H ) :   0.9239 B(  2-C ,  3-C ) :   1.0385 B(  2-C , 12-H ) :   0.9122
B(  2-C , 13-H ) :   0.9146 B(  3-C ,  4-H ) :   0.9078 B(  3-C ,  5-C ) :   1.1298
B(  3-C ,  6-O ) :   1.0534 B(  5-C , 14-H ) :   0.9440 B(  5-C , 15-H ) :   0.9374
B(  5-C , 16-H ) :   0.9356 B(  6-O , 17-H ) :   0.8455

Dispersion correction           -0.013220820
FINAL SINGLE POINT ENERGY      -272.301590175750

DIPOLE MOMENT
-------------

Method             : SCF
Type of density    : Electron Density
Multiplicity       :   1
Irrep              :   0
Energy             :  -272.3713560204889745 Eh
Relativity type    :
Basis              : AO
                                X                 Y                 Z
Electronic contribution:     -2.935184215       3.284740889      -1.100282438
Nuclear contribution   :      3.313801817      -3.688888914       1.309892882
                        -----------------------------------------
Total Dipole Moment    :      0.378617602      -0.404148025       0.209610444
                        -----------------------------------------
Magnitude (a.u.)       :      0.592134658
Magnitude (Debye)      :      1.505086689

Rotational constants in cm-1:             0.155167             0.079313             0.071908
Rotational constants in MHz :          4651.777160          2377.739934          2155.762167

                             ****ORCA TERMINATED NORMALLY****
TOTAL RUN TIME: 0 days 0 hours 0 minutes 7 seconds 115 msec
