                         Program Version 6.0.0  -   RELEASE  -
|  1> ! pbe def2-sv(p) def2/J RI DEFGRID1 loosescf d4 GCP(DFT/SV(P)) printgap
|  2> %output
|  3>     printlevel normal
|  4> end
|  5> * xyz 0 1
|  6> C -1.1030626394 -0.4596938921 -0.3134716506
|  7> C -0.0007709092 0.1849502152 0.5430229829
|  8> C 1.2787170384 -0.6754218657 0.5650881783
|  9> O 1.9741103743 -0.6954170109 -0.6568320809
| 10> O 0.2393523723 1.4768161597 0.0309415598
| 11> O -2.3741154258 0.1033731714 -0.1083675255
| 12> H -1.1300171742 -1.539638898 -0.1138366822
| 13> H -0.8842092347 -0.2846372728 -1.3685551192
| 14> H -0.3644778399 0.2571980736 1.5828323613
| 15> H 1.0189614203 -1.6917463909 0.8885895394
| 16> H 1.9848762325 -0.2544063216 1.2855466657
| 17> H 1.4182263283 -1.0797699308 -1.3469184026
| 18> H 1.0383623293 1.8448316533 0.4329701571
| 19> H -2.615555913 0.0261408147 0.8254984988
| 20> *
| 21>
| 22>                          ****END OF INPUT****

CARTESIAN COORDINATES (ANGSTROEM)
---------------------------------
  C     -1.103063   -0.459694   -0.313472
  C     -0.000771    0.184950    0.543023
  C      1.278717   -0.675422    0.565088
  O      1.974110   -0.695417   -0.656832
  O      0.239352    1.476816    0.030942
  O     -2.374115    0.103373   -0.108368
  H     -1.130017   -1.539639   -0.113837
  H     -0.884209   -0.284637   -1.368555
  H     -0.364478    0.257198    1.582832
  H      1.018961   -1.691746    0.888590
  H      1.984876   -0.254406    1.285547
  H      1.418226   -1.079770   -1.346918
  H      1.038362    1.844832    0.432970
  H     -2.615556    0.026141    0.825498

 Total Charge           Charge          ....    0
 Multiplicity           Mult            ....    1
 Number of Electrons    NEL             ....   50
 Basis Dimension        Dim             ....  100

ORBITAL ENERGIES
----------------

  NO   OCC          E(Eh)            E(eV)
   0   2.0000     -18.752258      -510.2749
   1   2.0000     -18.746002      -510.1046
   2   2.0000     -18.744130      -510.0537
   3   2.0000      -9.942712      -270.5550
   4   2.0000      -9.938873      -270.4505
   5   2.0000      -9.935401      -270.3560
   6   2.0000      -0.939332       -25.5605
   7   2.0000      -0.923171       -25.1208
   8   2.0000      -0.910889       -24.7865
   9   2.0000      -0.683772       -18.6064
  10   2.0000      -0.614711       -16.7271
  11   2.0000      -0.547642       -14.9021
  12   2.0000      -0.490000       -13.3336
  13   2.0000      -0.454269       -12.3613
  14   2.0000      -0.438497       -11.9321
  15   2.0000      -0.420968       -11.4551
  16   2.0000      -0.392754       -10.6874
  17   2.0000      -0.372262       -10.1298
  18   2.0000      -0.352963        -9.6046
  19   2.0000      -0.303096        -8.2477
  20   2.0000      -0.293820        -7.9953
  21   2.0000      -0.266965        -7.2645
  22   2.0000      -0.234338        -6.3767
  23   2.0000      -0.213332        -5.8051
  24   2.0000      -0.212049        -5.7702
  25   0.0000       0.013831         0.3763
  26   0.0000       0.026365         0.7174
  27   0.0000       0.042102         1.1457
  28   0.0000       0.068342         1.8597
  29   0.0000       0.075515         2.0549

MULLIKEN ATOMIC CHARGES
-----------------------
   0 C :    0.035599
   1 C :   -0.009839
   2 C :   -0.008328
   3 O :   -0.428933
   4 O :   -0.408606
   5 O :   -0.426346
   6 H :    0.067515
   7 H :    0.085401
   8 H :    0.043495
   9 H :    0.072132
  10 H :    0.084706
  11 H :    0.301943
  12 H :    0.298586
  13 H :    0.292675
Sum of atomic charges:    0.0000000

LOEWDIN ATOMIC CHARGES
----------------------
   0 C :   -0.133954
   1 C :   -0.100720
   2 C :   -0.139555
   3 O :   -0.333139
   4 O :   -0.321182
   5 O :   -0.330325
   6 H :    0.092872
   7 H :    0.116346
   8 H :    0.092318
   9 H :    0.096863
  10 H :    0.109655
  11 H :    0.285102
  12 H :    0.285351
  13 H :    0.280368

  Mayer bond orders larger than 0.100000
B(  0-C ,  1-C ) :   1.0239 B(  0-C ,  5-O ) :   1.0886 B(  0-C ,  6-H ) :   0.9233
B(  0-C ,  7-H ) :   0.9031 B(  1-C ,  2-C ) :   1.0100 B(  1-C ,  4-O ) :   1.0835
B(  1-C ,  8-H ) :   0.8843 B(  2-C ,  3-O ) :   1.0878 B(  2-C ,  9-H ) :   0.9099
B(  2-C , 10-H ) :   0.9214 B(  3-O , 11-H ) :   0.8501 B(  4-O , 12-H ) :   0.8504
B(  5-O , 13-H ) :   0.8531

Dispersion correction           -0.009155595
FINAL SINGLE POINT ENERGY      -344.000164883688

DIPOLE MOMENT
-------------

Method             : SCF
Type of density    : Electron Density
Multiplicity       :   1
Irrep              :   0
Energy             :  -344.0726269762442371 Eh
Relativity type    :
Basis              : AO
                                X                 Y                 Z
Electronic contribution:     -0.296007579       1.961512479      -1.216259580
Nuclear contribution   :      0.434958763      -2.540594405       2.040061454
                        -----------------------------------------
Total Dipole Moment    :      0.138951184      -0.579081927       0.823801873
                        -----------------------------------------
Magnitude (a.u.)       :      1.016510126
Magnitude (Debye)      :      2.583763405

Rotational constants in cm-1:             0.204573             0.072414             0.062941
Rotational constants in MHz :          6132.948667          2170.930397          1886.929361

                             ****ORCA TERMINATED NORMALLY****
TOTAL RUN TIME: 0 days 0 hours 0 minutes 6 seconds 727 msec
