                         Program Version 6.0.0  -   RELEASE  -
|  1> ! pbe def2-sv(p) def2/J RI DEFGRID1 loosescf d4 GCP(DFT/SV(P)) printgap
|  2> %output
|  3>     printlevel normal
|  4> end
|  5> * xyz 0 1
|  6> C -1.5185523793 1.0839335521 0.5594657411
|  7> C -1.1514461874 -0.3060732955 0.0447282534
|  8> C -2.3279814074 -0.8712311781 -0.7550839903
|  9> C 0.0966362315 -0.3153917721 -0.8494764159
| 10> C 1.4763076848 -0.0852631309 -0.2052485908
| 11> C 1.7787226785 1.3799395068 0.1073854148
| 12> C 1.6930278303 -0.9502053439 1.0346415461
| 13> H -1.5523876974 1.7973679839 -0.2609218734
| 14> H -2.4989272536 1.0590841634 1.0313631488
| 15> H -0.8050149481 1.4376989039 1.2965234794
| 16> H -0.9821919854 -0.9650371452 0.9014324691
| 17> H -3.2271962369 -0.8991258142 -0.1438806886
| 18> H -2.5253000335 -0.2503781415 -1.6266693648
| 19> H -2.1157091582 -1.8823670696 -1.0952738489
| 20> H -0.0397694273 0.4237502688 -1.6432383588
| 21> H 0.1343410224 -1.2973426048 -1.3299019227
| 22> H 2.2063701049 -0.4027314716 -0.9613753388
| 23> H 2.8377803007 1.4984222634 0.3281014318
| 24> H 1.5346023734 2.0131919827 -0.7421057815
| 25> H 1.2189849928 1.7277481243 0.9699388468
| 26> H 2.7312001134 -0.8908950338 1.3539023278
| 27> H 1.0680981383 -0.6124661446 1.8575867343
| 28> H 1.4584302691 -1.9907657384 0.8222883271
| 29> *
| 30>
| 31>                          ****END OF INPUT****

CARTESIAN COORDINATES (ANGSTROEM)
---------------------------------
  C     -1.518552    1.083934    0.559466
  C     -1.151446   -0.306073    0.044728
  C     -2.327981   -0.871231   -0.755084
  C      0.096636   -0.315392   -0.849476
  C      1.476308   -0.085263   -0.205249
  C      1.778723    1.379940    0.107385
  C      1.693028   -0.950205    1.034642
  H     -1.552388    1.797368   -0.260922
  H     -2.498927    1.059084    1.031363
  H     -0.805015    1.437699    1.296523
  H     -0.982192   -0.965037    0.901432
  H     -3.227196   -0.899126   -0.143881
  H     -2.525300   -0.250378   -1.626669
  H     -2.115709   -1.882367   -1.095274
  H     -0.039769    0.423750   -1.643238
  H      0.134341   -1.297343   -1.329902
  H      2.206370   -0.402731   -0.961375
  H      2.837780    1.498422    0.328101
  H      1.534602    2.013192   -0.742106
  H      1.218985    1.727748    0.969939
  H      2.731200   -0.890895    1.353902
  H      1.068098   -0.612466    1.857587
  H      1.458430   -1.990766    0.822288

 Total Charge           Charge          ....    0
 Multiplicity           Mult            ....    1
 Number of Electrons    NEL             ....   58
 Basis Dimension        Dim             ....  130

ORBITAL ENERGIES
----------------

  NO   OCC          E(Eh)            E(eV)
   0   2.0000      -9.890017      -269.1211
   1   2.0000      -9.888901      -269.0907
   2   2.0000      -9.875514      -268.7264
   3   2.0000      -9.869209      -268.5548
   4   2.0000      -9.867697      -268.5137
   5   2.0000      -9.867690      -268.5135
   6   2.0000      -9.867167      -268.4993
   7   2.0000      -0.737366       -20.0647
   8   2.0000      -0.696148       -18.9431
   9   2.0000      -0.611068       -16.6280
  10   2.0000      -0.605506       -16.4767
  11   2.0000      -0.599642       -16.3171
  12   2.0000      -0.514484       -13.9998
  13   2.0000      -0.475386       -12.9359
  14   2.0000      -0.417643       -11.3647
  15   2.0000      -0.410836       -11.1794
  16   2.0000      -0.391620       -10.6565
  17   2.0000      -0.370103       -10.0710
  18   2.0000      -0.368827       -10.0363
  19   2.0000      -0.348894        -9.4939
  20   2.0000      -0.337945        -9.1960
  21   2.0000      -0.333005        -9.0615
  22   2.0000      -0.314803        -8.5662
  23   2.0000      -0.311474        -8.4756
  24   2.0000      -0.293524        -7.9872
  25   2.0000      -0.288704        -7.8560
  26   2.0000      -0.273777        -7.4499
  27   2.0000      -0.266770        -7.2592
  28   2.0000      -0.257074        -6.9953
  29   0.0000       0.028281         0.7696
  30   0.0000       0.057408         1.5621
  31   0.0000       0.064265         1.7487
  32   0.0000       0.068248         1.8571
  33   0.0000       0.089146         2.4258

MULLIKEN ATOMIC CHARGES
-----------------------
   0 C :   -0.240317
   1 C :   -0.188173
   2 C :   -0.242904
   3 C :   -0.122030
   4 C :   -0.143655
   5 C :   -0.248146
   6 C :   -0.257995
   7 H :    0.088904
   8 H :    0.093182
   9 H :    0.107240
  10 H :    0.074197
  11 H :    0.096300
  12 H :    0.091287
  13 H :    0.095718
  14 H :    0.070174
  15 H :    0.072317
  16 H :    0.066903
  17 H :    0.094841
  18 H :    0.093802
  19 H :    0.099551
  20 H :    0.096531
  21 H :    0.104676
  22 H :    0.097596
Sum of atomic charges:   -0.0000000

LOEWDIN ATOMIC CHARGES
----------------------
   0 C :   -0.330104
   1 C :   -0.158429
   2 C :   -0.327530
   3 C :   -0.210707
   4 C :   -0.156132
   5 C :   -0.331852
   6 C :   -0.330779
   7 H :    0.116320
   8 H :    0.116085
   9 H :    0.114954
  10 H :    0.114687
  11 H :    0.114909
  12 H :    0.115437
  13 H :    0.114798
  14 H :    0.111750
  15 H :    0.113502
  16 H :    0.115622
  17 H :    0.116890
  18 H :    0.115727
  19 H :    0.114441
  20 H :    0.117881
  21 H :    0.116081
  22 H :    0.116448

  Mayer bond orders larger than 0.100000
B(  0-C ,  1-C ) :   1.1182 B(  0-C ,  7-H ) :   0.9471 B(  0-C ,  8-H ) :   0.9474
B(  0-C ,  9-H ) :   0.9397 B(  1-C ,  2-C ) :   1.1092 B(  1-C ,  3-C ) :   1.0905
B(  1-C , 10-H ) :   0.8926 B(  2-C , 11-H ) :   0.9499 B(  2-C , 12-H ) :   0.9518
B(  2-C , 13-H ) :   0.9494 B(  3-C ,  4-C ) :   1.0892 B(  3-C , 14-H ) :   0.9125
B(  3-C , 15-H ) :   0.9144 B(  4-C ,  5-C ) :   1.1213 B(  4-C ,  6-C ) :   1.1116
B(  4-C , 16-H ) :   0.8985 B(  5-C , 17-H ) :   0.9478 B(  5-C , 18-H ) :   0.9491
B(  5-C , 19-H ) :   0.9406 B(  6-C , 20-H ) :   0.9490 B(  6-C , 21-H ) :   0.9415
B(  6-C , 22-H ) :   0.9503

Dispersion correction           -0.019015992
FINAL SINGLE POINT ENERGY      -275.659332721094

DIPOLE MOMENT
-------------

Method             : SCF
Type of density    : Electron Density
Multiplicity       :   1
Irrep              :   0
Energy             :  -275.7366418342951988 Eh
Relativity type    :
Basis              : AO
                                X                 Y                 Z
Electronic contribution:      0.566628452      -0.756228845      -0.698187869
Nuclear contribution   :     -0.522264551       0.718776631       0.710910205
                        -----------------------------------------
Total Dipole Moment    :      0.044363901      -0.037452214       0.012722336
                        -----------------------------------------
Magnitude (a.u.)       :      0.059436368
Magnitude (Debye)      :      0.151075242

Rotational constants in cm-1:             0.127690             0.052369             0.046522
Rotational constants in MHz :          3828.037739          1569.971598          1394.687555

                             ****ORCA TERMINATED NORMALLY****
TOTAL RUN TIME: 0 days 0 hours 0 minutes 10 seconds 616 msec
