                         Program Version 6.0.0  -   RELEASE  -
|  1> ! pbe def2-sv(p) def2/J RI DEFGRID1 loosescf d4 GCP(DFT/SV(P)) printgap
|  2> %output
|  3>     printlevel normal
|  4> end
|  5> * xyz 0 1
|  6> C -1.8550391462 -1.2411830107 -0.2743248432
|  7> C -1.2067655757 -0.0874550989 0.4827913129
|  8> C -0.1396964506 0.6592319988 -0.3265705181
|  9> C 0.3509024903 1.873257327 0.4630309766
| 10> C 1.0323201615 -0.2308312587 -0.767518594
| 11> C 1.7908564241 -0.9124739438 0.3663901225
| 12> H -2.6773720936 -1.6542429203 0.3054200773
| 13> H -2.2477151624 -0.8969080708 -1.2288182771
| 14> H -1.1412628275 -2.0385134721 -0.4631115373
| 15> H -0.7687328003 -0.4589597146 1.4105890339
| 16> H -1.9835555761 0.630850017 0.7570238864
| 17> H -0.6162849337 1.0275204717 -1.2440750688
| 18> H -0.4696361023 2.5648497079 0.6405863812
| 19> H 1.1287592275 2.3985584869 -0.0862770201
| 20> H 0.7511564669 1.5714946671 1.4275385385
| 21> H 0.6576482131 -0.9946163858 -1.4514954999
| 22> H 1.7313278084 0.3909667607 -1.3327896879
| 23> H 1.1465020337 -1.5935287387 0.9157501286
| 24> H 2.1964358968 -0.1813770704 1.060298359
| 25> H 2.6195150488 -1.4876119168 -0.0408935677
| 26> *
| 27>
| 28>                          ****END OF INPUT****

CARTESIAN COORDINATES (ANGSTROEM)
---------------------------------
  C     -1.855039   -1.241183   -0.274325
  C     -1.206766   -0.087455    0.482791
  C     -0.139696    0.659232   -0.326571
  C      0.350902    1.873257    0.463031
  C      1.032320   -0.230831   -0.767519
  C      1.790856   -0.912474    0.366390
  H     -2.677372   -1.654243    0.305420
  H     -2.247715   -0.896908   -1.228818
  H     -1.141263   -2.038513   -0.463112
  H     -0.768733   -0.458960    1.410589
  H     -1.983556    0.630850    0.757024
  H     -0.616285    1.027520   -1.244075
  H     -0.469636    2.564850    0.640586
  H      1.128759    2.398558   -0.086277
  H      0.751156    1.571495    1.427539
  H      0.657648   -0.994616   -1.451495
  H      1.731328    0.390967   -1.332790
  H      1.146502   -1.593529    0.915750
  H      2.196436   -0.181377    1.060298
  H      2.619515   -1.487612   -0.040894

 Total Charge           Charge          ....    0
 Multiplicity           Mult            ....    1
 Number of Electrons    NEL             ....   50
 Basis Dimension        Dim             ....  112

ORBITAL ENERGIES
----------------

  NO   OCC          E(Eh)            E(eV)
   0   2.0000      -9.887076      -269.0410
   1   2.0000      -9.877447      -268.7790
   2   2.0000      -9.877337      -268.7760
   3   2.0000      -9.869579      -268.5649
   4   2.0000      -9.869477      -268.5621
   5   2.0000      -9.867295      -268.5028
   6   2.0000      -0.733280       -19.9536
   7   2.0000      -0.666640       -18.1402
   8   2.0000      -0.640083       -17.4175
   9   2.0000      -0.567270       -15.4362
  10   2.0000      -0.546975       -14.8839
  11   2.0000      -0.474385       -12.9087
  12   2.0000      -0.423844       -11.5334
  13   2.0000      -0.408848       -11.1253
  14   2.0000      -0.378214       -10.2917
  15   2.0000      -0.368201       -10.0193
  16   2.0000      -0.358866        -9.7652
  17   2.0000      -0.335765        -9.1366
  18   2.0000      -0.332279        -9.0418
  19   2.0000      -0.318782        -8.6745
  20   2.0000      -0.301628        -8.2077
  21   2.0000      -0.296209        -8.0603
  22   2.0000      -0.271171        -7.3789
  23   2.0000      -0.267846        -7.2885
  24   2.0000      -0.264829        -7.2064
  25   0.0000       0.031428         0.8552
  26   0.0000       0.060472         1.6455
  27   0.0000       0.061603         1.6763
  28   0.0000       0.076810         2.0901
  29   0.0000       0.098531         2.6812

MULLIKEN ATOMIC CHARGES
-----------------------
   0 C :   -0.266785
   1 C :   -0.173492
   2 C :   -0.157735
   3 C :   -0.240813
   4 C :   -0.160409
   5 C :   -0.296513
   6 H :    0.100143
   7 H :    0.095820
   8 H :    0.105834
   9 H :    0.085300
  10 H :    0.078947
  11 H :    0.064143
  12 H :    0.095193
  13 H :    0.094898
  14 H :    0.098551
  15 H :    0.086218
  16 H :    0.079089
  17 H :    0.106592
  18 H :    0.103401
  19 H :    0.101618
Sum of atomic charges:    0.0000000

LOEWDIN ATOMIC CHARGES
----------------------
   0 C :   -0.341330
   1 C :   -0.227830
   2 C :   -0.152435
   3 C :   -0.330381
   4 C :   -0.227600
   5 C :   -0.343792
   6 H :    0.119276
   7 H :    0.116991
   8 H :    0.116296
   9 H :    0.112985
  10 H :    0.114509
  11 H :    0.112339
  12 H :    0.117164
  13 H :    0.115865
  14 H :    0.115747
  15 H :    0.113301
  16 H :    0.114079
  17 H :    0.116861
  18 H :    0.117351
  19 H :    0.120605

  Mayer bond orders larger than 0.100000
B(  0-C ,  1-C ) :   1.1593 B(  0-C ,  6-H ) :   0.9509 B(  0-C ,  7-H ) :   0.9523
B(  0-C ,  8-H ) :   0.9457 B(  1-C ,  2-C ) :   1.0869 B(  1-C ,  9-H ) :   0.9162
B(  1-C , 10-H ) :   0.9241 B(  2-C ,  3-C ) :   1.1138 B(  2-C ,  4-C ) :   1.0819
B(  2-C , 11-H ) :   0.8977 B(  3-C , 12-H ) :   0.9482 B(  3-C , 13-H ) :   0.9506
B(  3-C , 14-H ) :   0.9444 B(  4-C ,  5-C ) :   1.1518 B(  4-C , 15-H ) :   0.9206
B(  4-C , 16-H ) :   0.9228 B(  5-C , 17-H ) :   0.9467 B(  5-C , 18-H ) :   0.9512
B(  5-C , 19-H ) :   0.9501

Dispersion correction           -0.015384149
FINAL SINGLE POINT ENERGY      -236.448719458142

DIPOLE MOMENT
-------------

Method             : SCF
Type of density    : Electron Density
Multiplicity       :   1
Irrep              :   0
Energy             :  -236.5163500005807009 Eh
Relativity type    :
Basis              : AO
                                X                 Y                 Z
Electronic contribution:     -0.321309961       0.672512267      -0.644138922
Nuclear contribution   :      0.306577187      -0.676900342       0.628329456
                        -----------------------------------------
Total Dipole Moment    :     -0.014732774      -0.004388075      -0.015809466
                        -----------------------------------------
Magnitude (a.u.)       :      0.022051056
Magnitude (Debye)      :      0.056049330

Rotational constants in cm-1:             0.128459             0.091668             0.065323
Rotational constants in MHz :          3851.097553          2748.125300          1958.342521

                             ****ORCA TERMINATED NORMALLY****
TOTAL RUN TIME: 0 days 0 hours 0 minutes 8 seconds 302 msec
