                         Program Version 6.0.0  -   RELEASE  -
|  1> ! r2scan-3c def2/J RI DEFGRID2 scfconv6 printgap
|  2> %output
|  3>     printlevel normal
|  4> end
|  5> %cpcm
|  6>     smd true
|  7>     smdsolvent "water"
|  8> end
|  9> * xyz 0 1
| 10> C 2.7784941557 -0.0862973603 -0.2465987968
| 11> C 1.365551151 -0.1204619741 -0.8187794873
| 12> C 0.3111372243 -0.2003609632 0.2939888683
| 13> H 0.5997096983 -0.9987201448 0.9892386333
| 14> C -1.0990924611 -0.5331780648 -0.2458496161
| 15> C -2.0397461788 -0.8248021948 0.9227794994
| 16> C -1.6767637842 0.5818790629 -1.1171713592
| 17> O 0.3173572254 0.968095505 1.0916780478
| 18> H 3.507781029 0.0699077516 -1.0372388352
| 19> H 3.0068650377 -1.0228270728 0.2568847179
| 20> H 2.8683588616 0.7195009082 0.4782610579
| 21> H 1.1966860316 0.7814970405 -1.4105925501
| 22> H 1.2530985523 -0.9840660538 -1.4753787566
| 23> H -1.0020358296 -1.4385982533 -0.8539329951
| 24> H -3.0478672995 -1.0154001581 0.5638340025
| 25> H -1.6992452324 -1.6940317913 1.4805023542
| 26> H -2.0629364864 0.0262465249 1.5999806707
| 27> H -1.8385884811 1.4827644088 -0.5296419544
| 28> H -2.6376519512 0.2694926545 -1.5186368772
| 29> H -1.0207397218 0.8112619474 -1.9525859531
| 30> H 0.1339109107 1.7257097573 0.5188460062
| 31> *
| 32>
| 33>                          ****END OF INPUT****

CARTESIAN COORDINATES (ANGSTROEM)
---------------------------------
  C      2.778494   -0.086297   -0.246599
  C      1.365551   -0.120462   -0.818779
  C      0.311137   -0.200361    0.293989
  H      0.599710   -0.998720    0.989239
  C     -1.099092   -0.533178   -0.245850
  C     -2.039746   -0.824802    0.922779
  C     -1.676764    0.581879   -1.117171
  O      0.317357    0.968096    1.091678
  H      3.507781    0.069908   -1.037239
  H      3.006865   -1.022827    0.256885
  H      2.868359    0.719501    0.478261
  H      1.196686    0.781497   -1.410593
  H      1.253099   -0.984066   -1.475379
  H     -1.002036   -1.438598   -0.853933
  H     -3.047867   -1.015400    0.563834
  H     -1.699245   -1.694032    1.480502
  H     -2.062936    0.026247    1.599981
  H     -1.838588    1.482764   -0.529642
  H     -2.637652    0.269493   -1.518637
  H     -1.020740    0.811262   -1.952586
  H      0.133911    1.725710    0.518846

 Total Charge           Charge          ....    0
 Multiplicity           Mult            ....    1
 Number of Electrons    NEL             ....   58
 Basis Dimension        Dim             ....  208

ORBITAL ENERGIES
----------------

  NO   OCC          E(Eh)            E(eV)
   0   2.0000     -18.948349      -515.6108
   1   2.0000     -10.069646      -274.0090
   2   2.0000     -10.024292      -272.7748
   3   2.0000     -10.015916      -272.5469
   4   2.0000     -10.008039      -272.3326
   5   2.0000     -10.007856      -272.3276
   6   2.0000     -10.005462      -272.2625
   7   2.0000      -0.986816       -26.8526
   8   2.0000      -0.762330       -20.7441
   9   2.0000      -0.723861       -19.6973
  10   2.0000      -0.643863       -17.5204
  11   2.0000      -0.632359       -17.2074
  12   2.0000      -0.559569       -15.2267
  13   2.0000      -0.529773       -14.4159
  14   2.0000      -0.441179       -12.0051
  15   2.0000      -0.436812       -11.8863
  16   2.0000      -0.422439       -11.4952
  17   2.0000      -0.400966       -10.9108
  18   2.0000      -0.381013       -10.3679
  19   2.0000      -0.359534        -9.7834
  20   2.0000      -0.350511        -9.5379
  21   2.0000      -0.339872        -9.2484
  22   2.0000      -0.327433        -8.9099
  23   2.0000      -0.312248        -8.4967
  24   2.0000      -0.304661        -8.2902
  25   2.0000      -0.293400        -7.9838
  26   2.0000      -0.290604        -7.9077
  27   2.0000      -0.271497        -7.3878
  28   2.0000      -0.233165        -6.3447
  29   0.0000       0.073583         2.0023
  30   0.0000       0.110474         3.0062
  31   0.0000       0.119587         3.2541
  32   0.0000       0.123085         3.3493
  33   0.0000       0.131291         3.5726

MULLIKEN ATOMIC CHARGES
-----------------------
   0 C :   -0.543938
   1 C :   -0.264106
   2 C :   -0.006723
   3 H :    0.153980
   4 C :    0.048116
   5 C :   -0.570967
   6 C :   -0.583749
   7 O :   -0.521128
   8 H :    0.158594
   9 H :    0.158747
  10 H :    0.159415
  11 H :    0.160786
  12 H :    0.156717
  13 H :    0.159648
  14 H :    0.159096
  15 H :    0.159012
  16 H :    0.167761
  17 H :    0.162782
  18 H :    0.164138
  19 H :    0.167327
  20 H :    0.354489
Sum of atomic charges:    0.0000000

LOEWDIN ATOMIC CHARGES
----------------------
   0 C :   -0.428356
   1 C :   -0.291575
   2 C :    0.053776
   3 H :    0.188509
   4 C :   -0.223413
   5 C :   -0.421412
   6 C :   -0.421498
   7 O :   -0.646352
   8 H :    0.152896
   9 H :    0.154017
  10 H :    0.156115
  11 H :    0.163426
  12 H :    0.164406
  13 H :    0.165497
  14 H :    0.155479
  15 H :    0.156891
  16 H :    0.159819
  17 H :    0.158037
  18 H :    0.158895
  19 H :    0.159175
  20 H :    0.285665

  Mayer bond orders larger than 0.100000
B(  0-C ,  1-C ) :   0.8901 B(  0-C ,  8-H ) :   0.9717 B(  0-C ,  9-H ) :   0.9834
B(  0-C , 10-H ) :   0.9799 B(  1-C ,  2-C ) :   0.9399 B(  1-C , 11-H ) :   0.9646
B(  1-C , 12-H ) :   0.9718 B(  2-C ,  3-H ) :   0.9737 B(  2-C ,  4-C ) :   0.8941
B(  2-C ,  7-O ) :   0.8739 B(  4-C ,  5-C ) :   0.8890 B(  4-C ,  6-C ) :   0.8640
B(  4-C , 13-H ) :   0.9621 B(  5-C , 14-H ) :   0.9750 B(  5-C , 15-H ) :   0.9747
B(  5-C , 16-H ) :   0.9867 B(  6-C , 17-H ) :   0.9796 B(  6-C , 18-H ) :   0.9681
B(  6-C , 19-H ) :   0.9726 B(  7-O , 20-H ) :   0.8659

Dispersion correction           -0.005605551
FINAL SINGLE POINT ENERGY      -312.208481078853

DIPOLE MOMENT
-------------

Method             : SCF
Type of density    : Electron Density
Multiplicity       :   1
Irrep              :   0
Energy             :  -312.2140589026308248 Eh
Relativity type    :
Basis              : AO
                                X                 Y                 Z
Electronic contribution:      0.550387895       1.117381441       1.772988265
Nuclear contribution   :     -0.692021911      -1.174532178      -2.695523309
                        -----------------------------------------
Total Dipole Moment    :     -0.141634015      -0.057150736      -0.922535044
                        -----------------------------------------
Magnitude (a.u.)       :      0.935092139
Magnitude (Debye)      :      2.376815329

Rotational constants in cm-1:             0.141561             0.051525             0.047676
Rotational constants in MHz :          4243.898590          1544.680000          1429.289925

                             ****ORCA TERMINATED NORMALLY****
TOTAL RUN TIME: 0 days 0 hours 0 minutes 29 seconds 944 msec
