                         Program Version 6.0.0  -   RELEASE  -
|  1> ! pbe def2-sv(p) def2/J RI DEFGRID1 loosescf d4 GCP(DFT/SV(P)) printgap
|  2> %output
|  3>     printlevel normal
|  4> end
|  5> * xyz 0 1
|  6> C -0.402754899 -2.3840754814 0.7650708946
|  7> C 0.0785448677 -1.3220719316 -0.2084959237
|  8> O 1.0714916562 -0.5576335088 0.4539030993
|  9> C 1.6291901724 0.4917184478 -0.1663097114
| 10> O 1.323753065 0.8336468702 -1.286834322
| 11> C 2.6573236272 1.1468148665 0.6969412034
| 12> O -0.9943856144 -0.5304564543 -0.7057739532
| 13> C -1.5443931298 0.4469447159 0.0291826087
| 14> O -1.1988207371 0.7226796403 1.1549021609
| 15> C -2.6140580142 1.1463001669 -0.7474969039
| 16> H -0.8172524716 -1.8991835717 1.6452156282
| 17> H 0.4387296395 -3.0017055874 1.0591327249
| 18> H -1.1623005798 -2.9920382108 0.2847661002
| 19> H 0.5067731628 -1.7565027839 -1.122888297
| 20> H 2.5062801488 2.2224736356 0.6796848155
| 21> H 2.5896884169 0.7613384267 1.7080085899
| 22> H 3.6407945339 0.9381754193 0.2814864592
| 23> H -2.1363032706 1.7449602092 -1.5202950276
| 24> H -3.2513628188 0.4141755643 -1.2334490335
| 25> H -3.1847427258 1.7885121117 -0.0852097995
| 26> *
| 27>
| 28>                          ****END OF INPUT****

CARTESIAN COORDINATES (ANGSTROEM)
---------------------------------
  C     -0.402755   -2.384075    0.765071
  C      0.078545   -1.322072   -0.208496
  O      1.071492   -0.557634    0.453903
  C      1.629190    0.491718   -0.166310
  O      1.323753    0.833647   -1.286834
  C      2.657324    1.146815    0.696941
  O     -0.994386   -0.530456   -0.705774
  C     -1.544393    0.446945    0.029183
  O     -1.198821    0.722680    1.154902
  C     -2.614058    1.146300   -0.747497
  H     -0.817252   -1.899184    1.645216
  H      0.438730   -3.001706    1.059133
  H     -1.162301   -2.992038    0.284766
  H      0.506773   -1.756503   -1.122888
  H      2.506280    2.222474    0.679685
  H      2.589688    0.761338    1.708009
  H      3.640795    0.938175    0.281486
  H     -2.136303    1.744960   -1.520295
  H     -3.251363    0.414176   -1.233449
  H     -3.184743    1.788512   -0.085210

 Total Charge           Charge          ....    0
 Multiplicity           Mult            ....    1
 Number of Electrons    NEL             ....   78
 Basis Dimension        Dim             ....  160

ORBITAL ENERGIES
----------------

  NO   OCC          E(Eh)            E(eV)
   0   2.0000     -18.805545      -511.7249
   1   2.0000     -18.802496      -511.6419
   2   2.0000     -18.736724      -509.8522
   3   2.0000     -18.735871      -509.8290
   4   2.0000     -10.017110      -272.5794
   5   2.0000     -10.014710      -272.5141
   6   2.0000     -10.013735      -272.4876
   7   2.0000      -9.895130      -269.2602
   8   2.0000      -9.894655      -269.2473
   9   2.0000      -9.892720      -269.1946
  10   2.0000      -1.033553       -28.1244
  11   2.0000      -0.990918       -26.9642
  12   2.0000      -0.921973       -25.0882
  13   2.0000      -0.911266       -24.7968
  14   2.0000      -0.730320       -19.8730
  15   2.0000      -0.680982       -18.5305
  16   2.0000      -0.666900       -18.1473
  17   2.0000      -0.602720       -16.4008
  18   2.0000      -0.574572       -15.6349
  19   2.0000      -0.486460       -13.2372
  20   2.0000      -0.447855       -12.1867
  21   2.0000      -0.432381       -11.7657
  22   2.0000      -0.427176       -11.6240
  23   2.0000      -0.419094       -11.4041
  24   2.0000      -0.413348       -11.2478
  25   2.0000      -0.406159       -11.0521
  26   2.0000      -0.384424       -10.4607
  27   2.0000      -0.372798       -10.1443
  28   2.0000      -0.366135        -9.9630
  29   2.0000      -0.357871        -9.7382
  30   2.0000      -0.355717        -9.6795
  31   2.0000      -0.350880        -9.5479
  32   2.0000      -0.329302        -8.9608
  33   2.0000      -0.325192        -8.8489
  34   2.0000      -0.297066        -8.0836
  35   2.0000      -0.273699        -7.4477
  36   2.0000      -0.267503        -7.2791
  37   2.0000      -0.220523        -6.0007
  38   2.0000      -0.214482        -5.8363
  39   0.0000      -0.029636        -0.8064
  40   0.0000      -0.024791        -0.6746
  41   0.0000       0.042690         1.1616
  42   0.0000       0.061273         1.6673
  43   0.0000       0.063900         1.7388

MULLIKEN ATOMIC CHARGES
-----------------------
   0 C :   -0.246359
   1 C :    0.181655
   2 O :   -0.228356
   3 C :    0.089441
   4 O :   -0.207454
   5 C :   -0.241697
   6 O :   -0.240170
   7 C :    0.093553
   8 O :   -0.204128
   9 C :   -0.238241
  10 H :    0.133815
  11 H :    0.117864
  12 H :    0.116417
  13 H :    0.090551
  14 H :    0.135590
  15 H :    0.124944
  16 H :    0.134547
  17 H :    0.142789
  18 H :    0.122525
  19 H :    0.122712
Sum of atomic charges:    0.0000000

LOEWDIN ATOMIC CHARGES
----------------------
   0 C :   -0.350712
   1 C :    0.047435
   2 O :   -0.058333
   3 C :    0.037348
   4 O :   -0.165259
   5 C :   -0.356631
   6 O :   -0.064087
   7 C :    0.037185
   8 O :   -0.164765
   9 C :   -0.357000
  10 H :    0.139415
  11 H :    0.134762
  12 H :    0.132469
  13 H :    0.115710
  14 H :    0.149026
  15 H :    0.138967
  16 H :    0.149812
  17 H :    0.154227
  18 H :    0.141493
  19 H :    0.138939

  Mayer bond orders larger than 0.100000
B(  0-C ,  1-C ) :   1.1311 B(  0-C , 10-H ) :   0.9315 B(  0-C , 11-H ) :   0.9379
B(  0-C , 12-H ) :   0.9376 B(  1-C ,  2-O ) :   0.9518 B(  1-C ,  6-O ) :   0.9582
B(  1-C , 13-H ) :   0.9189 B(  2-O ,  3-C ) :   1.1531 B(  3-C ,  4-O ) :   2.0643
B(  3-C ,  5-C ) :   1.0975 B(  5-C , 14-H ) :   0.9311 B(  5-C , 15-H ) :   0.9365
B(  5-C , 16-H ) :   0.9234 B(  6-O ,  7-C ) :   1.1345 B(  7-C ,  8-O ) :   2.0664
B(  7-C ,  9-C ) :   1.0939 B(  9-C , 17-H ) :   0.9210 B(  9-C , 18-H ) :   0.9292
B(  9-C , 19-H ) :   0.9404

Dispersion correction           -0.017665561
FINAL SINGLE POINT ENERGY      -534.465722283727

DIPOLE MOMENT
-------------

Method             : SCF
Type of density    : Electron Density
Multiplicity       :   1
Irrep              :   0
Energy             :  -534.5448311315255978 Eh
Relativity type    :
Basis              : AO
                                X                 Y                 Z
Electronic contribution:      0.856034506       1.037062004      -1.566877855
Nuclear contribution   :     -0.812929399      -1.662813008       1.585874354
                        -----------------------------------------
Total Dipole Moment    :      0.043105108      -0.625751004       0.018996500
                        -----------------------------------------
Magnitude (a.u.)       :      0.627521503
Magnitude (Debye)      :      1.595032901

Rotational constants in cm-1:             0.059775             0.037046             0.029521
Rotational constants in MHz :          1792.019188          1110.596213           885.030352

                             ****ORCA TERMINATED NORMALLY****
TOTAL RUN TIME: 0 days 0 hours 0 minutes 13 seconds 452 msec
