                         Program Version 6.0.0  -   RELEASE  -
|  1> ! r2scan-3c def2/J RI DEFGRID2 scfconv6 printgap
|  2> %output
|  3>     printlevel normal
|  4> end
|  5> * xyz 0 1
|  6> C -2.4598448364 0.2713723161 0.9717111605
|  7> C -1.7690566613 0.6330538789 -0.3466192056
|  8> C -0.5192698424 -0.1948979217 -0.49534381
|  9> O -0.4391911866 -1.2244257666 -1.1350556778
| 10> O 0.491762394 0.3214696671 0.185976121
| 11> C 1.7494613708 -0.3748458859 0.1779645816
| 12> C 2.8373931834 0.6014165089 0.5831803124
| 13> H -3.3711375726 0.851806088 1.0786094413
| 14> H -2.7141337947 -0.7858540025 0.986781211
| 15> H -1.803960652 0.4866071359 1.8111740136
| 16> H -1.4941700256 1.6868054478 -0.3415905137
| 17> H -2.4273241599 0.4182756347 -1.1874454108
| 18> H 1.6789100068 -1.2108233587 0.8811834079
| 19> H 1.9146191687 -0.7810708794 -0.8253173601
| 20> H 3.7920112367 0.0862776428 0.6048184582
| 21> H 2.8888238646 1.4210686573 -0.1276184252
| 22> H 2.6242358652 1.005072108 1.5684449365
| 23> *
| 24>
| 25>                          ****END OF INPUT****

CARTESIAN COORDINATES (ANGSTROEM)
---------------------------------
  C     -2.459845    0.271372    0.971711
  C     -1.769057    0.633054   -0.346619
  C     -0.519270   -0.194898   -0.495344
  O     -0.439191   -1.224426   -1.135056
  O      0.491762    0.321470    0.185976
  C      1.749461   -0.374846    0.177965
  C      2.837393    0.601417    0.583180
  H     -3.371138    0.851806    1.078609
  H     -2.714134   -0.785854    0.986781
  H     -1.803961    0.486607    1.811174
  H     -1.494170    1.686805   -0.341591
  H     -2.427324    0.418276   -1.187445
  H      1.678910   -1.210823    0.881183
  H      1.914619   -0.781071   -0.825317
  H      3.792011    0.086278    0.604818
  H      2.888824    1.421069   -0.127618
  H      2.624236    1.005072    1.568445

 Total Charge           Charge          ....    0
 Multiplicity           Mult            ....    1
 Number of Electrons    NEL             ....   56
 Basis Dimension        Dim             ....  193

ORBITAL ENERGIES
----------------

  NO   OCC          E(Eh)            E(eV)
   0   2.0000     -18.996490      -516.9208
   1   2.0000     -18.925740      -514.9956
   2   2.0000     -10.150048      -276.1969
   3   2.0000     -10.091462      -274.6026
   4   2.0000     -10.043010      -273.2842
   5   2.0000     -10.032449      -272.9968
   6   2.0000     -10.031762      -272.9781
   7   2.0000      -1.071584       -29.1593
   8   2.0000      -0.973070       -26.4786
   9   2.0000      -0.767189       -20.8763
  10   2.0000      -0.733360       -19.9557
  11   2.0000      -0.638734       -17.3808
  12   2.0000      -0.594455       -16.1759
  13   2.0000      -0.534120       -14.5342
  14   2.0000      -0.472178       -12.8486
  15   2.0000      -0.453155       -12.3310
  16   2.0000      -0.439182       -11.9508
  17   2.0000      -0.410483       -11.1698
  18   2.0000      -0.408065       -11.1040
  19   2.0000      -0.375360       -10.2141
  20   2.0000      -0.371254       -10.1023
  21   2.0000      -0.357529        -9.7289
  22   2.0000      -0.340161        -9.2563
  23   2.0000      -0.327381        -8.9085
  24   2.0000      -0.321869        -8.7585
  25   2.0000      -0.311787        -8.4842
  26   2.0000      -0.270640        -7.3645
  27   2.0000      -0.231362        -6.2957
  28   0.0000      -0.013498        -0.3673
  29   0.0000       0.072929         1.9845
  30   0.0000       0.095740         2.6052
  31   0.0000       0.118846         3.2340
  32   0.0000       0.124733         3.3942

MULLIKEN ATOMIC CHARGES
-----------------------
   0 C :   -0.472032
   1 C :   -0.295674
   2 C :    0.406184
   3 O :   -0.427081
   4 O :   -0.172988
   5 C :   -0.149750
   6 C :   -0.441185
   7 H :    0.153352
   8 H :    0.158812
   9 H :    0.156516
  10 H :    0.152247
  11 H :    0.162553
  12 H :    0.147027
  13 H :    0.170836
  14 H :    0.146953
  15 H :    0.152773
  16 H :    0.151458
Sum of atomic charges:   -0.0000000

LOEWDIN ATOMIC CHARGES
----------------------
   0 C :   -0.392742
   1 C :   -0.236891
   2 C :    0.353991
   3 O :   -0.429355
   4 O :   -0.599296
   5 C :    0.033681
   6 C :   -0.386885
   7 H :    0.153040
   8 H :    0.159199
   9 H :    0.157809
  10 H :    0.173665
  11 H :    0.174509
  12 H :    0.174997
  13 H :    0.186904
  14 H :    0.159489
  15 H :    0.159025
  16 H :    0.158859

  Mayer bond orders larger than 0.100000
B(  0-C ,  1-C ) :   0.8977 B(  0-C ,  7-H ) :   0.9706 B(  0-C ,  8-H ) :   0.9741
B(  0-C ,  9-H ) :   0.9775 B(  1-C ,  2-C ) :   0.9547 B(  1-C , 10-H ) :   0.9716
B(  1-C , 11-H ) :   0.9753 B(  2-C ,  3-O ) :   1.8311 B(  2-C ,  4-O ) :   1.0600
B(  4-O ,  5-C ) :   0.7961 B(  5-C ,  6-C ) :   0.9461 B(  5-C , 12-H ) :   0.9448
B(  5-C , 13-H ) :   0.9629 B(  6-C , 14-H ) :   0.9678 B(  6-C , 15-H ) :   0.9746
B(  6-C , 16-H ) :   0.9688

Dispersion correction           -0.003896952
FINAL SINGLE POINT ENERGY      -346.935568211495

DIPOLE MOMENT
-------------

Method             : SCF
Type of density    : Electron Density
Multiplicity       :   1
Irrep              :   0
Energy             :  -346.9420116031741941 Eh
Relativity type    :
Basis              : AO
                                X                 Y                 Z
Electronic contribution:     -0.743328271      -2.330907040      -3.592208258
Nuclear contribution   :      1.021387076       2.968262302       4.159871977
                        -----------------------------------------
Total Dipole Moment    :      0.278058805       0.637355262       0.567663719
                        -----------------------------------------
Magnitude (a.u.)       :      0.897652787
Magnitude (Debye)      :      2.281652060

Rotational constants in cm-1:             0.169455             0.049289             0.042098
Rotational constants in MHz :          5080.140898          1477.660508          1262.063301

                             ****ORCA TERMINATED NORMALLY****
TOTAL RUN TIME: 0 days 0 hours 0 minutes 20 seconds 977 msec
