                         Program Version 6.0.0  -   RELEASE  -
|  1> ! r2scan-3c def2/J RI DEFGRID2 scfconv6 printgap
|  2> %output
|  3>     printlevel normal
|  4> end
|  5> %cpcm
|  6>     smd true
|  7>     smdsolvent "water"
|  8> end
|  9> * xyz 0 1
| 10> C -2.4598448364 0.2713723161 0.9717111605
| 11> C -1.7690566613 0.6330538789 -0.3466192056
| 12> C -0.5192698424 -0.1948979217 -0.49534381
| 13> O -0.4391911866 -1.2244257666 -1.1350556778
| 14> O 0.491762394 0.3214696671 0.185976121
| 15> C 1.7494613708 -0.3748458859 0.1779645816
| 16> C 2.8373931834 0.6014165089 0.5831803124
| 17> H -3.3711375726 0.851806088 1.0786094413
| 18> H -2.7141337947 -0.7858540025 0.986781211
| 19> H -1.803960652 0.4866071359 1.8111740136
| 20> H -1.4941700256 1.6868054478 -0.3415905137
| 21> H -2.4273241599 0.4182756347 -1.1874454108
| 22> H 1.6789100068 -1.2108233587 0.8811834079
| 23> H 1.9146191687 -0.7810708794 -0.8253173601
| 24> H 3.7920112367 0.0862776428 0.6048184582
| 25> H 2.8888238646 1.4210686573 -0.1276184252
| 26> H 2.6242358652 1.005072108 1.5684449365
| 27> *
| 28>
| 29>                          ****END OF INPUT****

CARTESIAN COORDINATES (ANGSTROEM)
---------------------------------
  C     -2.459845    0.271372    0.971711
  C     -1.769057    0.633054   -0.346619
  C     -0.519270   -0.194898   -0.495344
  O     -0.439191   -1.224426   -1.135056
  O      0.491762    0.321470    0.185976
  C      1.749461   -0.374846    0.177965
  C      2.837393    0.601417    0.583180
  H     -3.371138    0.851806    1.078609
  H     -2.714134   -0.785854    0.986781
  H     -1.803961    0.486607    1.811174
  H     -1.494170    1.686805   -0.341591
  H     -2.427324    0.418276   -1.187445
  H      1.678910   -1.210823    0.881183
  H      1.914619   -0.781071   -0.825317
  H      3.792011    0.086278    0.604818
  H      2.888824    1.421069   -0.127618
  H      2.624236    1.005072    1.568445

 Total Charge           Charge          ....    0
 Multiplicity           Mult            ....    1
 Number of Electrons    NEL             ....   56
 Basis Dimension        Dim             ....  193

ORBITAL ENERGIES
----------------

  NO   OCC          E(Eh)            E(eV)
   0   2.0000     -19.002460      -517.0832
   1   2.0000     -18.943059      -515.4668
   2   2.0000     -10.161666      -276.5130
   3   2.0000     -10.083726      -274.3921
   4   2.0000     -10.037495      -273.1341
   5   2.0000     -10.022302      -272.7207
   6   2.0000     -10.018777      -272.6248
   7   2.0000      -1.079413       -29.3723
   8   2.0000      -0.988088       -26.8873
   9   2.0000      -0.762848       -20.7582
  10   2.0000      -0.724888       -19.7252
  11   2.0000      -0.632457       -17.2100
  12   2.0000      -0.587440       -15.9851
  13   2.0000      -0.532685       -14.4951
  14   2.0000      -0.472135       -12.8475
  15   2.0000      -0.458732       -12.4827
  16   2.0000      -0.442184       -12.0324
  17   2.0000      -0.411418       -11.1953
  18   2.0000      -0.403948       -10.9920
  19   2.0000      -0.371288       -10.1033
  20   2.0000      -0.360932        -9.8215
  21   2.0000      -0.349668        -9.5150
  22   2.0000      -0.333134        -9.0650
  23   2.0000      -0.322374        -8.7722
  24   2.0000      -0.319092        -8.6829
  25   2.0000      -0.312431        -8.5017
  26   2.0000      -0.277003        -7.5376
  27   2.0000      -0.248676        -6.7668
  28   0.0000      -0.022495        -0.6121
  29   0.0000       0.076562         2.0834
  30   0.0000       0.105088         2.8596
  31   0.0000       0.127513         3.4698
  32   0.0000       0.133448         3.6313

MULLIKEN ATOMIC CHARGES
-----------------------
   0 C :   -0.492506
   1 C :   -0.311293
   2 C :    0.447951
   3 O :   -0.515829
   4 O :   -0.187052
   5 C :   -0.149406
   6 C :   -0.488135
   7 H :    0.172718
   8 H :    0.164620
   9 H :    0.166252
  10 H :    0.175288
  11 H :    0.173921
  12 H :    0.171978
  13 H :    0.172861
  14 H :    0.168617
  15 H :    0.165708
  16 H :    0.164304
Sum of atomic charges:   -0.0000000

LOEWDIN ATOMIC CHARGES
----------------------
   0 C :   -0.393890
   1 C :   -0.234040
   2 C :    0.363692
   3 O :   -0.492908
   4 O :   -0.599087
   5 C :    0.036688
   6 C :   -0.389908
   7 H :    0.160491
   8 H :    0.160625
   9 H :    0.160974
  10 H :    0.183489
  11 H :    0.179157
  12 H :    0.183646
  13 H :    0.188248
  14 H :    0.168201
  15 H :    0.162137
  16 H :    0.162486

  Mayer bond orders larger than 0.100000
B(  0-C ,  1-C ) :   0.8890 B(  0-C ,  7-H ) :   0.9655 B(  0-C ,  8-H ) :   0.9710
B(  0-C ,  9-H ) :   0.9735 B(  1-C ,  2-C ) :   0.9535 B(  1-C , 10-H ) :   0.9623
B(  1-C , 11-H ) :   0.9715 B(  2-C ,  3-O ) :   1.7569 B(  2-C ,  4-O ) :   1.0900
B(  4-O ,  5-C ) :   0.7829 B(  5-C ,  6-C ) :   0.9453 B(  5-C , 12-H ) :   0.9360
B(  5-C , 13-H ) :   0.9574 B(  6-C , 14-H ) :   0.9613 B(  6-C , 15-H ) :   0.9731
B(  6-C , 16-H ) :   0.9659

Dispersion correction           -0.003896952
FINAL SINGLE POINT ENERGY      -346.941212888891

DIPOLE MOMENT
-------------

Method             : SCF
Type of density    : Electron Density
Multiplicity       :   1
Irrep              :   0
Energy             :  -346.9476562805696176 Eh
Relativity type    :
Basis              : AO
                                X                 Y                 Z
Electronic contribution:     -0.668259347      -2.074230331      -3.377356469
Nuclear contribution   :      1.021387076       2.968262302       4.159871977
                        -----------------------------------------
Total Dipole Moment    :      0.353127729       0.894031971       0.782515508
                        -----------------------------------------
Magnitude (a.u.)       :      1.239484925
Magnitude (Debye)      :      3.150520302

Rotational constants in cm-1:             0.169455             0.049289             0.042098
Rotational constants in MHz :          5080.140898          1477.660508          1262.063301

                             ****ORCA TERMINATED NORMALLY****
TOTAL RUN TIME: 0 days 0 hours 0 minutes 24 seconds 545 msec
