                         Program Version 6.0.0  -   RELEASE  -
|  1> ! pbe def2-sv(p) def2/J RI DEFGRID1 loosescf d4 GCP(DFT/SV(P)) printgap
|  2> %output
|  3>     printlevel normal
|  4> end
|  5> * xyz 0 1
|  6> C 2.1652256378 -0.4026401055 1.2005170098
|  7> C 1.321591822 -0.5303205142 -0.0634790128
|  8> C 0.2917162555 0.6063261562 -0.2155171681
|  9> H 0.5577956803 1.4124149588 0.488689221
| 10> C -1.1657012529 0.2019275621 0.0849699233
| 11> C -1.6783494702 -0.8645803016 -0.881274095
| 12> C -1.3455780025 -0.2389221646 1.5339842654
| 13> O 0.2912185644 1.1438770686 -1.5316988944
| 14> H 2.7172659278 0.5346914749 1.2037081048
| 15> H 2.8795654406 -1.2204958005 1.2559241043
| 16> H 1.5389426954 -0.4327297448 2.0878169137
| 17> H 1.9793947807 -0.5146297937 -0.9354079614
| 18> H 0.8169498637 -1.4952539747 -0.0665786048
| 19> H -1.757885898 1.1092887158 -0.0822933647
| 20> H -2.7537464591 -0.9770388582 -0.7700222304
| 21> H -1.4613094057 -0.5676899017 -1.9038694919
| 22> H -1.214596834 -1.828869863 -0.6899176634
| 23> H -0.9901159504 0.5284753407 2.2176884009
| 24> H -0.8019753684 -1.1597824285 1.7277233169
| 25> H -2.3988972413 -0.4171748288 1.7347788448
| 26> H 1.1647709879 1.5072905296 -1.7265181808
| 27> *
| 28>
| 29>                          ****END OF INPUT****

CARTESIAN COORDINATES (ANGSTROEM)
---------------------------------
  C      2.165226   -0.402640    1.200517
  C      1.321592   -0.530321   -0.063479
  C      0.291716    0.606326   -0.215517
  H      0.557796    1.412415    0.488689
  C     -1.165701    0.201928    0.084970
  C     -1.678349   -0.864580   -0.881274
  C     -1.345578   -0.238922    1.533984
  O      0.291219    1.143877   -1.531699
  H      2.717266    0.534691    1.203708
  H      2.879565   -1.220496    1.255924
  H      1.538943   -0.432730    2.087817
  H      1.979395   -0.514630   -0.935408
  H      0.816950   -1.495254   -0.066579
  H     -1.757886    1.109289   -0.082293
  H     -2.753746   -0.977039   -0.770022
  H     -1.461309   -0.567690   -1.903869
  H     -1.214597   -1.828870   -0.689918
  H     -0.990116    0.528475    2.217688
  H     -0.801975   -1.159782    1.727723
  H     -2.398897   -0.417175    1.734779
  H      1.164771    1.507291   -1.726518

 Total Charge           Charge          ....    0
 Multiplicity           Mult            ....    1
 Number of Electrons    NEL             ....   58
 Basis Dimension        Dim             ....  126

ORBITAL ENERGIES
----------------

  NO   OCC          E(Eh)            E(eV)
   0   2.0000     -18.736437      -509.8444
   1   2.0000      -9.931273      -270.2437
   2   2.0000      -9.888512      -269.0801
   3   2.0000      -9.881876      -268.8995
   4   2.0000      -9.876688      -268.7583
   5   2.0000      -9.872660      -268.6487
   6   2.0000      -9.862776      -268.3798
   7   2.0000      -0.913945       -24.8697
   8   2.0000      -0.724731       -19.7209
   9   2.0000      -0.683782       -18.6067
  10   2.0000      -0.606945       -16.5158
  11   2.0000      -0.596554       -16.2331
  12   2.0000      -0.544431       -14.8147
  13   2.0000      -0.480197       -13.0668
  14   2.0000      -0.457060       -12.4372
  15   2.0000      -0.428893       -11.6708
  16   2.0000      -0.395018       -10.7490
  17   2.0000      -0.375889       -10.2284
  18   2.0000      -0.372192       -10.1279
  19   2.0000      -0.347701        -9.4614
  20   2.0000      -0.340256        -9.2588
  21   2.0000      -0.334512        -9.1025
  22   2.0000      -0.317452        -8.6383
  23   2.0000      -0.312878        -8.5139
  24   2.0000      -0.293710        -7.9922
  25   2.0000      -0.284727        -7.7478
  26   2.0000      -0.276575        -7.5260
  27   2.0000      -0.255101        -6.9417
  28   2.0000      -0.208843        -5.6829
  29   0.0000       0.026528         0.7219
  30   0.0000       0.046613         1.2684
  31   0.0000       0.058951         1.6041
  32   0.0000       0.067347         1.8326
  33   0.0000       0.082559         2.2466

MULLIKEN ATOMIC CHARGES
-----------------------
   0 C :   -0.292879
   1 C :   -0.177506
   2 C :    0.061114
   3 H :    0.054479
   4 C :   -0.169532
   5 C :   -0.253313
   6 C :   -0.250915
   7 O :   -0.422329
   8 H :    0.097493
   9 H :    0.103010
  10 H :    0.109087
  11 H :    0.072489
  12 H :    0.095569
  13 H :    0.074101
  14 H :    0.094703
  15 H :    0.115728
  16 H :    0.093279
  17 H :    0.099134
  18 H :    0.101134
  19 H :    0.101536
  20 H :    0.293618
Sum of atomic charges:   -0.0000000

LOEWDIN ATOMIC CHARGES
----------------------
   0 C :   -0.342006
   1 C :   -0.249178
   2 C :   -0.043795
   3 H :    0.093095
   4 C :   -0.158217
   5 C :   -0.334001
   6 C :   -0.330069
   7 O :   -0.330499
   8 H :    0.114680
   9 H :    0.119838
  10 H :    0.118192
  11 H :    0.115030
  12 H :    0.118636
  13 H :    0.119721
  14 H :    0.117822
  15 H :    0.124669
  16 H :    0.112281
  17 H :    0.116076
  18 H :    0.116101
  19 H :    0.121296
  20 H :    0.280325

  Mayer bond orders larger than 0.100000
B(  0-C ,  1-C ) :   1.1417 B(  0-C ,  8-H ) :   0.9524 B(  0-C ,  9-H ) :   0.9494
B(  0-C , 10-H ) :   0.9494 B(  1-C ,  2-C ) :   1.0152 B(  1-C , 11-H ) :   0.9217
B(  1-C , 12-H ) :   0.9146 B(  2-C ,  3-H ) :   0.9193 B(  2-C ,  4-C ) :   1.0464
B(  2-C ,  7-O ) :   1.0680 B(  4-C ,  5-C ) :   1.1151 B(  4-C ,  6-C ) :   1.1076
B(  4-C , 13-H ) :   0.8923 B(  5-C , 14-H ) :   0.9498 B(  5-C , 15-H ) :   0.9418
B(  5-C , 16-H ) :   0.9417 B(  6-C , 17-H ) :   0.9456 B(  6-C , 18-H ) :   0.9396
B(  6-C , 19-H ) :   0.9482 B(  7-O , 20-H ) :   0.8510

Dispersion correction           -0.016915850
FINAL SINGLE POINT ENERGY      -311.513601646257

DIPOLE MOMENT
-------------

Method             : SCF
Type of density    : Electron Density
Multiplicity       :   1
Irrep              :   0
Energy             :  -311.5930289296827596 Eh
Relativity type    :
Basis              : AO
                                X                 Y                 Z
Electronic contribution:      0.211040236       3.339991566      -3.979762954
Nuclear contribution   :      0.263403484      -3.286770826       4.238145870
                        -----------------------------------------
Total Dipole Moment    :      0.474443719       0.053220740       0.258382917
                        -----------------------------------------
Magnitude (a.u.)       :      0.542854512
Magnitude (Debye)      :      1.379826514

Rotational constants in cm-1:             0.097195             0.068904             0.050583
Rotational constants in MHz :          2913.828488          2065.681854          1516.452581

                             ****ORCA TERMINATED NORMALLY****
TOTAL RUN TIME: 0 days 0 hours 0 minutes 9 seconds 120 msec
