                         Program Version 6.0.0  -   RELEASE  -
|  1> ! r2scan-3c def2/J RI DEFGRID2 scfconv6 printgap
|  2> %output
|  3>     printlevel normal
|  4> end
|  5> * xyz 0 1
|  6> C -1.3626985447 -0.3519719199 -0.431615951
|  7> C -0.0017865554 -0.0581547068 0.2113582576
|  8> C 1.1406292362 -0.768736246 -0.5244984661
|  9> O 2.3725037251 -0.5954386095 0.1340120726
| 10> O 0.2328729214 1.3361407338 0.2677935685
| 11> O -2.4224874903 0.1988024 0.3132175124
| 12> H -1.5380552821 -1.427902526 -0.4685474649
| 13> H -1.37597393 0.0440958748 -1.4581917355
| 14> H -0.0168374188 -0.3838823502 1.2566872779
| 15> H 1.206104034 -0.387833066 -1.5547630498
| 16> H 0.957082954 -1.8433228694 -0.558784226
| 17> H 2.4550829468 0.3377155344 0.3850890544
| 18> H 0.2620059238 1.6887448659 -0.6348974291
| 19> H -2.1849826041 1.1067555987 0.5581872589
| 20> *
| 21>
| 22>                          ****END OF INPUT****

CARTESIAN COORDINATES (ANGSTROEM)
---------------------------------
  C     -1.362699   -0.351972   -0.431616
  C     -0.001787   -0.058155    0.211358
  C      1.140629   -0.768736   -0.524498
  O      2.372504   -0.595439    0.134012
  O      0.232873    1.336141    0.267794
  O     -2.422487    0.198802    0.313218
  H     -1.538055   -1.427903   -0.468547
  H     -1.375974    0.044096   -1.458192
  H     -0.016837   -0.383882    1.256687
  H      1.206104   -0.387833   -1.554763
  H      0.957083   -1.843323   -0.558784
  H      2.455083    0.337716    0.385089
  H      0.262006    1.688745   -0.634897
  H     -2.184983    1.106756    0.558187

 Total Charge           Charge          ....    0
 Multiplicity           Mult            ....    1
 Number of Electrons    NEL             ....   50
 Basis Dimension        Dim             ....  169

ORBITAL ENERGIES
----------------

  NO   OCC          E(Eh)            E(eV)
   0   2.0000     -18.977398      -516.4013
   1   2.0000     -18.953346      -515.7468
   2   2.0000     -18.953307      -515.7457
   3   2.0000     -10.094502      -274.6854
   4   2.0000     -10.087306      -274.4896
   5   2.0000     -10.087306      -274.4895
   6   2.0000      -1.022098       -27.8127
   7   2.0000      -0.991341       -26.9758
   8   2.0000      -0.983940       -26.7744
   9   2.0000      -0.735647       -20.0180
  10   2.0000      -0.644558       -17.5393
  11   2.0000      -0.599433       -16.3114
  12   2.0000      -0.506959       -13.7951
  13   2.0000      -0.479420       -13.0457
  14   2.0000      -0.474397       -12.9090
  15   2.0000      -0.430235       -11.7073
  16   2.0000      -0.424111       -11.5407
  17   2.0000      -0.399592       -10.8735
  18   2.0000      -0.381392       -10.3782
  19   2.0000      -0.338984        -9.2242
  20   2.0000      -0.311367        -8.4727
  21   2.0000      -0.308104        -8.3839
  22   2.0000      -0.274014        -7.4563
  23   2.0000      -0.255332        -6.9479
  24   2.0000      -0.230036        -6.2596
  25   0.0000       0.035072         0.9544
  26   0.0000       0.066094         1.7985
  27   0.0000       0.079758         2.1703
  28   0.0000       0.100296         2.7292
  29   0.0000       0.111430         3.0322

MULLIKEN ATOMIC CHARGES
-----------------------
   0 C :   -0.174198
   1 C :    0.009520
   2 C :   -0.174908
   3 O :   -0.412665
   4 O :   -0.451799
   5 O :   -0.412645
   6 H :    0.138884
   7 H :    0.127798
   8 H :    0.155396
   9 H :    0.127860
  10 H :    0.138945
  11 H :    0.313456
  12 H :    0.301007
  13 H :    0.313349
Sum of atomic charges:   -0.0000000

LOEWDIN ATOMIC CHARGES
----------------------
   0 C :    0.017246
   1 C :    0.062218
   2 C :    0.017176
   3 O :   -0.598820
   4 O :   -0.596378
   5 O :   -0.598796
   6 H :    0.182534
   7 H :    0.158630
   8 H :    0.195265
   9 H :    0.158600
  10 H :    0.182499
  11 H :    0.274413
  12 H :    0.270962
  13 H :    0.274450

  Mayer bond orders larger than 0.100000
B(  0-C ,  1-C ) :   0.9503 B(  0-C ,  5-O ) :   0.9507 B(  0-C ,  6-H ) :   0.9684
B(  0-C ,  7-H ) :   0.9657 B(  1-C ,  2-C ) :   0.9509 B(  1-C ,  4-O ) :   0.9427
B(  1-C ,  8-H ) :   0.9339 B(  2-C ,  3-O ) :   0.9504 B(  2-C ,  9-H ) :   0.9657
B(  2-C , 10-H ) :   0.9683 B(  3-O , 11-H ) :   0.8734 B(  4-O , 12-H ) :   0.8884
B(  5-O , 13-H ) :   0.8737

Dispersion correction           -0.003005560
FINAL SINGLE POINT ENERGY      -344.725523090668

DIPOLE MOMENT
-------------

Method             : SCF
Type of density    : Electron Density
Multiplicity       :   1
Irrep              :   0
Energy             :  -344.7331406404060203 Eh
Relativity type    :
Basis              : AO
                                X                 Y                 Z
Electronic contribution:      0.265558338       1.237907738       1.640486660
Nuclear contribution   :     -0.218292522      -0.798157128      -2.311566751
                        -----------------------------------------
Total Dipole Moment    :      0.047265816       0.439750610      -0.671080091
                        -----------------------------------------
Magnitude (a.u.)       :      0.803718325
Magnitude (Debye)      :      2.042889630

Rotational constants in cm-1:             0.260412             0.065329             0.056510
Rotational constants in MHz :          7806.956013          1958.523823          1694.136773

                             ****ORCA TERMINATED NORMALLY****
TOTAL RUN TIME: 0 days 0 hours 0 minutes 20 seconds 606 msec
