                         Program Version 6.0.0  -   RELEASE  -
|  1> ! r2scan-3c def2/J RI DEFGRID2 scfconv6 printgap
|  2> %output
|  3>     printlevel normal
|  4> end
|  5> %cpcm
|  6>     smd true
|  7>     smdsolvent "water"
|  8> end
|  9> * xyz 0 1
| 10> C -1.3626985447 -0.3519719199 -0.431615951
| 11> C -0.0017865554 -0.0581547068 0.2113582576
| 12> C 1.1406292362 -0.768736246 -0.5244984661
| 13> O 2.3725037251 -0.5954386095 0.1340120726
| 14> O 0.2328729214 1.3361407338 0.2677935685
| 15> O -2.4224874903 0.1988024 0.3132175124
| 16> H -1.5380552821 -1.427902526 -0.4685474649
| 17> H -1.37597393 0.0440958748 -1.4581917355
| 18> H -0.0168374188 -0.3838823502 1.2566872779
| 19> H 1.206104034 -0.387833066 -1.5547630498
| 20> H 0.957082954 -1.8433228694 -0.558784226
| 21> H 2.4550829468 0.3377155344 0.3850890544
| 22> H 0.2620059238 1.6887448659 -0.6348974291
| 23> H -2.1849826041 1.1067555987 0.5581872589
| 24> *
| 25>
| 26>                          ****END OF INPUT****

CARTESIAN COORDINATES (ANGSTROEM)
---------------------------------
  C     -1.362699   -0.351972   -0.431616
  C     -0.001787   -0.058155    0.211358
  C      1.140629   -0.768736   -0.524498
  O      2.372504   -0.595439    0.134012
  O      0.232873    1.336141    0.267794
  O     -2.422487    0.198802    0.313218
  H     -1.538055   -1.427903   -0.468547
  H     -1.375974    0.044096   -1.458192
  H     -0.016837   -0.383882    1.256687
  H      1.206104   -0.387833   -1.554763
  H      0.957083   -1.843323   -0.558784
  H      2.455083    0.337716    0.385089
  H      0.262006    1.688745   -0.634897
  H     -2.184983    1.106756    0.558187

 Total Charge           Charge          ....    0
 Multiplicity           Mult            ....    1
 Number of Electrons    NEL             ....   50
 Basis Dimension        Dim             ....  169

ORBITAL ENERGIES
----------------

  NO   OCC          E(Eh)            E(eV)
   0   2.0000     -18.960309      -515.9362
   1   2.0000     -18.953642      -515.7548
   2   2.0000     -18.953552      -515.7524
   3   2.0000     -10.081007      -274.3182
   4   2.0000     -10.072687      -274.0917
   5   2.0000     -10.072667      -274.0912
   6   2.0000      -1.009299       -27.4644
   7   2.0000      -0.990050       -26.9406
   8   2.0000      -0.978065       -26.6145
   9   2.0000      -0.721495       -19.6329
  10   2.0000      -0.633540       -17.2395
  11   2.0000      -0.584848       -15.9145
  12   2.0000      -0.497215       -13.5299
  13   2.0000      -0.472251       -12.8506
  14   2.0000      -0.458879       -12.4867
  15   2.0000      -0.419190       -11.4067
  16   2.0000      -0.411721       -11.2035
  17   2.0000      -0.389822       -10.6076
  18   2.0000      -0.376546       -10.2463
  19   2.0000      -0.333477        -9.0744
  20   2.0000      -0.310136        -8.4392
  21   2.0000      -0.298397        -8.1198
  22   2.0000      -0.264091        -7.1863
  23   2.0000      -0.254323        -6.9205
  24   2.0000      -0.227217        -6.1829
  25   0.0000       0.056449         1.5360
  26   0.0000       0.091431         2.4880
  27   0.0000       0.095535         2.5997
  28   0.0000       0.117926         3.2089
  29   0.0000       0.128830         3.5056

MULLIKEN ATOMIC CHARGES
-----------------------
   0 C :   -0.183485
   1 C :    0.033747
   2 C :   -0.183705
   3 O :   -0.498024
   4 O :   -0.503327
   5 O :   -0.498455
   6 H :    0.157898
   7 H :    0.150155
   8 H :    0.159129
   9 H :    0.150014
  10 H :    0.157933
  11 H :    0.352486
  12 H :    0.353082
  13 H :    0.352552
Sum of atomic charges:   -0.0000000

LOEWDIN ATOMIC CHARGES
----------------------
   0 C :    0.020399
   1 C :    0.067842
   2 C :    0.020370
   3 O :   -0.639032
   4 O :   -0.611201
   5 O :   -0.639108
   6 H :    0.188901
   7 H :    0.171650
   8 H :    0.194962
   9 H :    0.171597
  10 H :    0.188846
  11 H :    0.286973
  12 H :    0.290738
  13 H :    0.287064

  Mayer bond orders larger than 0.100000
B(  0-C ,  1-C ) :   0.9514 B(  0-C ,  5-O ) :   0.9360 B(  0-C ,  6-H ) :   0.9618
B(  0-C ,  7-H ) :   0.9601 B(  1-C ,  2-C ) :   0.9525 B(  1-C ,  4-O ) :   0.9363
B(  1-C ,  8-H ) :   0.9373 B(  2-C ,  3-O ) :   0.9357 B(  2-C ,  9-H ) :   0.9599
B(  2-C , 10-H ) :   0.9617 B(  3-O , 11-H ) :   0.8544 B(  4-O , 12-H ) :   0.8646
B(  5-O , 13-H ) :   0.8545

Dispersion correction           -0.003005560
FINAL SINGLE POINT ENERGY      -344.746783599751

DIPOLE MOMENT
-------------

Method             : SCF
Type of density    : Electron Density
Multiplicity       :   1
Irrep              :   0
Energy             :  -344.7544011494892402 Eh
Relativity type    :
Basis              : AO
                                X                 Y                 Z
Electronic contribution:      0.281170827       1.411020588       1.282435228
Nuclear contribution   :     -0.218292522      -0.798157128      -2.311566751
                        -----------------------------------------
Total Dipole Moment    :      0.062878305       0.612863460      -1.029131523
                        -----------------------------------------
Magnitude (a.u.)       :      1.199444452
Magnitude (Debye)      :      3.048745509

Rotational constants in cm-1:             0.260412             0.065329             0.056510
Rotational constants in MHz :          7806.956013          1958.523823          1694.136773

                             ****ORCA TERMINATED NORMALLY****
TOTAL RUN TIME: 0 days 0 hours 0 minutes 23 seconds 674 msec
