                         Program Version 6.0.0  -   RELEASE  -
|  1> ! r2scan-3c def2/J RI DEFGRID2 scfconv6 printgap
|  2> %output
|  3>     printlevel normal
|  4> end
|  5> * xyz 0 1
|  6> C -1.9342094693 -0.8206518621 0.7407261562
|  7> C -1.2125340059 -0.1938962259 -0.4507033569
|  8> C -2.1818420387 0.691512382 -1.2333176158
|  9> C -1.18943e-05 0.6306902657 4.49043e-05
| 10> C 1.2125238435 -0.1940136046 0.4505504821
| 11> C 1.9344395376 -0.8200809259 -0.7410948592
| 12> C 2.1816335509 0.6910707948 1.2337751553
| 13> H -2.7805615783 -1.4137835836 0.4017339225
| 14> H -1.2705770712 -1.4702023726 1.3053242542
| 15> H -2.304567328 -0.0445373457 1.4074745907
| 16> H -0.8732479013 -0.9968587193 -1.1130128912
| 17> H -1.7015127376 1.0979025351 -2.120420331
| 18> H -3.0528500849 0.1204913089 -1.5466275522
| 19> H -2.5192979083 1.5204596231 -0.6146379505
| 20> H -0.3150057942 1.2778993637 0.8223119336
| 21> H 0.3149687615 1.2781450387 -0.8220333423
| 22> H 0.873216394 -0.9973531945 1.1123892298
| 23> H 2.3051665314 -0.0435760233 -1.4071845179
| 24> H 2.7805650007 -1.4136280741 -0.4022616552
| 25> H 1.2708376016 -1.4690905774 -1.3063485474
| 26> H 2.5189552028 1.5204869631 0.6156512416
| 27> H 1.7011790864 1.0967852877 2.1211181436
| 28> H 3.0527375006 0.12001204 1.5467514883
| 29> *
| 30>
| 31>                          ****END OF INPUT****

CARTESIAN COORDINATES (ANGSTROEM)
---------------------------------
  C     -1.934209   -0.820652    0.740726
  C     -1.212534   -0.193896   -0.450703
  C     -2.181842    0.691512   -1.233318
  C     -0.000012    0.630690    0.000045
  C      1.212524   -0.194014    0.450550
  C      1.934440   -0.820081   -0.741095
  C      2.181634    0.691071    1.233775
  H     -2.780562   -1.413784    0.401734
  H     -1.270577   -1.470202    1.305324
  H     -2.304567   -0.044537    1.407475
  H     -0.873248   -0.996859   -1.113013
  H     -1.701513    1.097903   -2.120420
  H     -3.052850    0.120491   -1.546628
  H     -2.519298    1.520460   -0.614638
  H     -0.315006    1.277899    0.822312
  H      0.314969    1.278145   -0.822033
  H      0.873216   -0.997353    1.112389
  H      2.305167   -0.043576   -1.407185
  H      2.780565   -1.413628   -0.402262
  H      1.270838   -1.469091   -1.306349
  H      2.518955    1.520487    0.615651
  H      1.701179    1.096785    2.121118
  H      3.052738    0.120012    1.546751

 Total Charge           Charge          ....    0
 Multiplicity           Mult            ....    1
 Number of Electrons    NEL             ....   58
 Basis Dimension        Dim             ....  213

ORBITAL ENERGIES
----------------

  NO   OCC          E(Eh)            E(eV)
   0   2.0000     -10.029635      -272.9203
   1   2.0000     -10.029633      -272.9202
   2   2.0000     -10.017082      -272.5787
   3   2.0000     -10.012490      -272.4537
   4   2.0000     -10.012487      -272.4536
   5   2.0000     -10.012175      -272.4451
   6   2.0000     -10.012174      -272.4451
   7   2.0000      -0.786311       -21.3966
   8   2.0000      -0.743583       -20.2339
   9   2.0000      -0.647318       -17.6144
  10   2.0000      -0.647209       -17.6114
  11   2.0000      -0.639636       -17.4054
  12   2.0000      -0.538995       -14.6668
  13   2.0000      -0.516380       -14.0514
  14   2.0000      -0.443190       -12.0598
  15   2.0000      -0.417696       -11.3661
  16   2.0000      -0.407860       -11.0984
  17   2.0000      -0.389896       -10.6096
  18   2.0000      -0.379797       -10.3348
  19   2.0000      -0.364824        -9.9274
  20   2.0000      -0.351138        -9.5550
  21   2.0000      -0.349787        -9.5182
  22   2.0000      -0.327186        -8.9032
  23   2.0000      -0.319241        -8.6870
  24   2.0000      -0.308121        -8.3844
  25   2.0000      -0.302199        -8.2233
  26   2.0000      -0.284478        -7.7410
  27   2.0000      -0.278577        -7.5805
  28   2.0000      -0.271520        -7.3884
  29   0.0000       0.081873         2.2279
  30   0.0000       0.099915         2.7188
  31   0.0000       0.116006         3.1567
  32   0.0000       0.121679         3.3111
  33   0.0000       0.128980         3.5097

MULLIKEN ATOMIC CHARGES
-----------------------
   0 C :   -0.506052
   1 C :   -0.018729
   2 C :   -0.478427
   3 C :   -0.310873
   4 C :   -0.018667
   5 C :   -0.506064
   6 C :   -0.478454
   7 H :    0.147426
   8 H :    0.143759
   9 H :    0.148790
  10 H :    0.135203
  11 H :    0.146863
  12 H :    0.145101
  13 H :    0.146084
  14 H :    0.145411
  15 H :    0.145401
  16 H :    0.135201
  17 H :    0.148783
  18 H :    0.147434
  19 H :    0.143754
  20 H :    0.146092
  21 H :    0.146868
  22 H :    0.145095
Sum of atomic charges:   -0.0000000

LOEWDIN ATOMIC CHARGES
----------------------
   0 C :   -0.417599
   1 C :   -0.246015
   2 C :   -0.416617
   3 C :   -0.299149
   4 C :   -0.246014
   5 C :   -0.417598
   6 C :   -0.416617
   7 H :    0.152769
   8 H :    0.151070
   9 H :    0.153228
  10 H :    0.154479
  11 H :    0.152122
  12 H :    0.151642
  13 H :    0.153858
  14 H :    0.160636
  15 H :    0.160637
  16 H :    0.154480
  17 H :    0.153227
  18 H :    0.152768
  19 H :    0.151071
  20 H :    0.153858
  21 H :    0.152122
  22 H :    0.151643

  Mayer bond orders larger than 0.100000
B(  0-C ,  1-C ) :   0.9169 B(  0-C ,  7-H ) :   0.9757 B(  0-C ,  8-H ) :   0.9737
B(  0-C ,  9-H ) :   0.9865 B(  1-C ,  2-C ) :   0.8974 B(  1-C ,  3-C ) :   0.8875
B(  1-C , 10-H ) :   0.9638 B(  2-C , 11-H ) :   0.9826 B(  2-C , 12-H ) :   0.9775
B(  2-C , 13-H ) :   0.9833 B(  3-C ,  4-C ) :   0.8875 B(  3-C , 14-H ) :   0.9810
B(  3-C , 15-H ) :   0.9810 B(  4-C ,  5-C ) :   0.9169 B(  4-C ,  6-C ) :   0.8974
B(  4-C , 16-H ) :   0.9639 B(  5-C , 17-H ) :   0.9865 B(  5-C , 18-H ) :   0.9757
B(  5-C , 19-H ) :   0.9737 B(  6-C , 20-H ) :   0.9833 B(  6-C , 21-H ) :   0.9826
B(  6-C , 22-H ) :   0.9775

Dispersion correction           -0.006279791
FINAL SINGLE POINT ENERGY      -276.288605868837

DIPOLE MOMENT
-------------

Method             : SCF
Type of density    : Electron Density
Multiplicity       :   1
Irrep              :   0
Energy             :  -276.2933483930485750 Eh
Relativity type    :
Basis              : AO
                                X                 Y                 Z
Electronic contribution:     -0.000017473      -0.212802891      -0.000227404
Nuclear contribution   :      0.000005324       0.171826397       0.000213916
                        -----------------------------------------
Total Dipole Moment    :     -0.000012149      -0.040976495      -0.000013488
                        -----------------------------------------
Magnitude (a.u.)       :      0.040976499
Magnitude (Debye)      :      0.104153983

Rotational constants in cm-1:             0.136553             0.045081             0.043321
Rotational constants in MHz :          4093.753257          1351.487837          1298.725441

                             ****ORCA TERMINATED NORMALLY****
TOTAL RUN TIME: 0 days 0 hours 0 minutes 23 seconds 487 msec
