                         Program Version 6.0.0  -   RELEASE  -
|  1> ! r2scan-3c def2/J RI DEFGRID2 scfconv6 printgap
|  2> %output
|  3>     printlevel normal
|  4> end
|  5> %cpcm
|  6>     smd true
|  7>     smdsolvent "water"
|  8> end
|  9> * xyz 0 1
| 10> C -1.9342094693 -0.8206518621 0.7407261562
| 11> C -1.2125340059 -0.1938962259 -0.4507033569
| 12> C -2.1818420387 0.691512382 -1.2333176158
| 13> C -1.18943e-05 0.6306902657 4.49043e-05
| 14> C 1.2125238435 -0.1940136046 0.4505504821
| 15> C 1.9344395376 -0.8200809259 -0.7410948592
| 16> C 2.1816335509 0.6910707948 1.2337751553
| 17> H -2.7805615783 -1.4137835836 0.4017339225
| 18> H -1.2705770712 -1.4702023726 1.3053242542
| 19> H -2.304567328 -0.0445373457 1.4074745907
| 20> H -0.8732479013 -0.9968587193 -1.1130128912
| 21> H -1.7015127376 1.0979025351 -2.120420331
| 22> H -3.0528500849 0.1204913089 -1.5466275522
| 23> H -2.5192979083 1.5204596231 -0.6146379505
| 24> H -0.3150057942 1.2778993637 0.8223119336
| 25> H 0.3149687615 1.2781450387 -0.8220333423
| 26> H 0.873216394 -0.9973531945 1.1123892298
| 27> H 2.3051665314 -0.0435760233 -1.4071845179
| 28> H 2.7805650007 -1.4136280741 -0.4022616552
| 29> H 1.2708376016 -1.4690905774 -1.3063485474
| 30> H 2.5189552028 1.5204869631 0.6156512416
| 31> H 1.7011790864 1.0967852877 2.1211181436
| 32> H 3.0527375006 0.12001204 1.5467514883
| 33> *
| 34>
| 35>                          ****END OF INPUT****

CARTESIAN COORDINATES (ANGSTROEM)
---------------------------------
  C     -1.934209   -0.820652    0.740726
  C     -1.212534   -0.193896   -0.450703
  C     -2.181842    0.691512   -1.233318
  C     -0.000012    0.630690    0.000045
  C      1.212524   -0.194014    0.450550
  C      1.934440   -0.820081   -0.741095
  C      2.181634    0.691071    1.233775
  H     -2.780562   -1.413784    0.401734
  H     -1.270577   -1.470202    1.305324
  H     -2.304567   -0.044537    1.407475
  H     -0.873248   -0.996859   -1.113013
  H     -1.701513    1.097903   -2.120420
  H     -3.052850    0.120491   -1.546628
  H     -2.519298    1.520460   -0.614638
  H     -0.315006    1.277899    0.822312
  H      0.314969    1.278145   -0.822033
  H      0.873216   -0.997353    1.112389
  H      2.305167   -0.043576   -1.407185
  H      2.780565   -1.413628   -0.402262
  H      1.270838   -1.469091   -1.306349
  H      2.518955    1.520487    0.615651
  H      1.701179    1.096785    2.121118
  H      3.052738    0.120012    1.546751

 Total Charge           Charge          ....    0
 Multiplicity           Mult            ....    1
 Number of Electrons    NEL             ....   58
 Basis Dimension        Dim             ....  213

ORBITAL ENERGIES
----------------

  NO   OCC          E(Eh)            E(eV)
   0   2.0000     -10.021803      -272.7071
   1   2.0000     -10.021801      -272.7071
   2   2.0000     -10.008793      -272.3531
   3   2.0000     -10.004838      -272.2455
   4   2.0000     -10.004837      -272.2455
   5   2.0000     -10.004485      -272.2359
   6   2.0000     -10.004482      -272.2358
   7   2.0000      -0.778515       -21.1845
   8   2.0000      -0.736106       -20.0305
   9   2.0000      -0.640316       -17.4239
  10   2.0000      -0.640178       -17.4201
  11   2.0000      -0.632303       -17.2058
  12   2.0000      -0.531716       -14.4687
  13   2.0000      -0.508650       -13.8411
  14   2.0000      -0.435269       -11.8443
  15   2.0000      -0.410212       -11.1624
  16   2.0000      -0.400403       -10.8955
  17   2.0000      -0.382393       -10.4054
  18   2.0000      -0.372218       -10.1286
  19   2.0000      -0.357648        -9.7321
  20   2.0000      -0.343903        -9.3581
  21   2.0000      -0.342613        -9.3230
  22   2.0000      -0.319560        -8.6957
  23   2.0000      -0.311599        -8.4790
  24   2.0000      -0.300287        -8.1712
  25   2.0000      -0.294733        -8.0201
  26   2.0000      -0.276456        -7.5227
  27   2.0000      -0.270585        -7.3630
  28   2.0000      -0.263986        -7.1834
  29   0.0000       0.090378         2.4593
  30   0.0000       0.107616         2.9284
  31   0.0000       0.124392         3.3849
  32   0.0000       0.129379         3.5206
  33   0.0000       0.134908         3.6710

MULLIKEN ATOMIC CHARGES
-----------------------
   0 C :   -0.553377
   1 C :   -0.001827
   2 C :   -0.524283
   3 C :   -0.332370
   4 C :   -0.001774
   5 C :   -0.553384
   6 C :   -0.524305
   7 H :    0.158131
   8 H :    0.156558
   9 H :    0.159935
  10 H :    0.146111
  11 H :    0.157749
  12 H :    0.156090
  13 H :    0.156670
  14 H :    0.154420
  15 H :    0.154411
  16 H :    0.146110
  17 H :    0.159928
  18 H :    0.158139
  19 H :    0.156552
  20 H :    0.156677
  21 H :    0.157754
  22 H :    0.156083
Sum of atomic charges:   -0.0000000

LOEWDIN ATOMIC CHARGES
----------------------
   0 C :   -0.426705
   1 C :   -0.244432
   2 C :   -0.425965
   3 C :   -0.302412
   4 C :   -0.244432
   5 C :   -0.426703
   6 C :   -0.425964
   7 H :    0.154785
   8 H :    0.154078
   9 H :    0.155511
  10 H :    0.157464
  11 H :    0.154359
  12 H :    0.153877
  13 H :    0.155791
  14 H :    0.162440
  15 H :    0.162441
  16 H :    0.157465
  17 H :    0.155510
  18 H :    0.154784
  19 H :    0.154078
  20 H :    0.155792
  21 H :    0.154359
  22 H :    0.153877

  Mayer bond orders larger than 0.100000
B(  0-C ,  1-C ) :   0.9059 B(  0-C ,  7-H ) :   0.9738 B(  0-C ,  8-H ) :   0.9713
B(  0-C ,  9-H ) :   0.9848 B(  1-C ,  2-C ) :   0.8857 B(  1-C ,  3-C ) :   0.8841
B(  1-C , 10-H ) :   0.9651 B(  2-C , 11-H ) :   0.9798 B(  2-C , 12-H ) :   0.9756
B(  2-C , 13-H ) :   0.9823 B(  3-C ,  4-C ) :   0.8841 B(  3-C , 14-H ) :   0.9803
B(  3-C , 15-H ) :   0.9803 B(  4-C ,  5-C ) :   0.9059 B(  4-C ,  6-C ) :   0.8856
B(  4-C , 16-H ) :   0.9651 B(  5-C , 17-H ) :   0.9847 B(  5-C , 18-H ) :   0.9738
B(  5-C , 19-H ) :   0.9713 B(  6-C , 20-H ) :   0.9823 B(  6-C , 21-H ) :   0.9798
B(  6-C , 22-H ) :   0.9756

Dispersion correction           -0.006279791
FINAL SINGLE POINT ENERGY      -276.284755328819

DIPOLE MOMENT
-------------

Method             : SCF
Type of density    : Electron Density
Multiplicity       :   1
Irrep              :   0
Energy             :  -276.2894978530310937 Eh
Relativity type    :
Basis              : AO
                                X                 Y                 Z
Electronic contribution:     -0.000018348      -0.234989135      -0.000231480
Nuclear contribution   :      0.000005324       0.171826397       0.000213916
                        -----------------------------------------
Total Dipole Moment    :     -0.000013024      -0.063162738      -0.000017564
                        -----------------------------------------
Magnitude (a.u.)       :      0.063162742
Magnitude (Debye)      :      0.160546931

Rotational constants in cm-1:             0.136553             0.045081             0.043321
Rotational constants in MHz :          4093.753257          1351.487837          1298.725441

                             ****ORCA TERMINATED NORMALLY****
TOTAL RUN TIME: 0 days 0 hours 0 minutes 27 seconds 835 msec
