                         Program Version 6.0.0  -   RELEASE  -
|  1> ! pbe def2-sv(p) def2/J RI DEFGRID1 loosescf d4 GCP(DFT/SV(P)) printgap
|  2> %output
|  3>     printlevel normal
|  4> end
|  5> * xyz 0 1
|  6> C -0.1841159515 2.8081817539 0.0331130957
|  7> N -0.3409353732 1.3771040397 0.2399795408
|  8> C -1.4069373861 0.843863928 -0.5824849524
|  9> C -1.804852648 -0.5626113309 -0.174982999
| 10> F -0.9260374648 -1.5100387367 -0.5473692769
| 11> F -1.9920444234 -0.7146789589 1.1421066058
| 12> F -2.9733906171 -0.9148173464 -0.756866224
| 13> C 0.8846420489 0.6378205831 0.1597675302
| 14> C 1.1535916196 -0.2868148806 1.1611521817
| 15> C 2.326474642 -1.0195951163 1.133837715
| 16> C 3.2430075148 -0.828534759 0.1134124521
| 17> C 2.9819760021 0.0976951731 -0.8815440926
| 18> C 1.8070006866 0.8279011178 -0.8625096727
| 19> H 0.6777540866 3.142047864 0.6042306724
| 20> H -1.073717408 3.3081946782 0.4130576016
| 21> H -0.0476452531 3.084567063 -1.0192725931
| 22> H -2.2940873655 1.4692927225 -0.4478115206
| 23> H -1.1608914698 0.7965908419 -1.6587606959
| 24> H 0.4371358711 -0.4241431083 1.9561744138
| 25> H 2.5263544781 -1.7380452343 1.9140526892
| 26> H 4.1589433358 -1.3988700673 0.094639077
| 27> H 3.6936175268 0.2508004983 -1.6788598176
| 28> H 1.6106478598 1.5451682617 -1.6452187558
| 29> *
| 30>
| 31>                          ****END OF INPUT****

CARTESIAN COORDINATES (ANGSTROEM)
---------------------------------
  C     -0.184116    2.808182    0.033113
  N     -0.340935    1.377104    0.239980
  C     -1.406937    0.843864   -0.582485
  C     -1.804853   -0.562611   -0.174983
  F     -0.926037   -1.510039   -0.547369
  F     -1.992044   -0.714679    1.142107
  F     -2.973391   -0.914817   -0.756866
  C      0.884642    0.637821    0.159768
  C      1.153592   -0.286815    1.161152
  C      2.326475   -1.019595    1.133838
  C      3.243008   -0.828535    0.113412
  C      2.981976    0.097695   -0.881544
  C      1.807001    0.827901   -0.862510
  H      0.677754    3.142048    0.604231
  H     -1.073717    3.308195    0.413058
  H     -0.047645    3.084567   -1.019273
  H     -2.294087    1.469293   -0.447812
  H     -1.160891    0.796591   -1.658761
  H      0.437136   -0.424143    1.956174
  H      2.526354   -1.738045    1.914053
  H      4.158943   -1.398870    0.094639
  H      3.693618    0.250800   -1.678860
  H      1.610648    1.545168   -1.645219

 Total Charge           Charge          ....    0
 Multiplicity           Mult            ....    1
 Number of Electrons    NEL             ....   98
 Basis Dimension        Dim             ....  202

ORBITAL ENERGIES
----------------

  NO   OCC          E(Eh)            E(eV)
   0   2.0000     -24.281886      -660.7437
   1   2.0000     -24.278822      -660.6603
   2   2.0000     -24.276578      -660.5993
   3   2.0000     -14.011091      -381.2612
   4   2.0000     -10.119633      -275.3692
   5   2.0000      -9.943324      -270.5716
   6   2.0000      -9.926634      -270.1174
   7   2.0000      -9.917346      -269.8647
   8   2.0000      -9.895442      -269.2687
   9   2.0000      -9.894605      -269.2459
  10   2.0000      -9.893735      -269.2222
  11   2.0000      -9.893394      -269.2129
  12   2.0000      -9.889292      -269.1013
  13   2.0000      -1.184527       -32.2326
  14   2.0000      -1.092116       -29.7180
  15   2.0000      -1.087261       -29.5859
  16   2.0000      -0.867296       -23.6003
  17   2.0000      -0.772837       -21.0300
  18   2.0000      -0.699155       -19.0250
  19   2.0000      -0.674938       -18.3660
  20   2.0000      -0.669671       -18.2227
  21   2.0000      -0.607632       -16.5345
  22   2.0000      -0.585332       -15.9277
  23   2.0000      -0.547643       -14.9021
  24   2.0000      -0.533635       -14.5209
  25   2.0000      -0.521200       -14.1826
  26   2.0000      -0.516483       -14.0542
  27   2.0000      -0.496527       -13.5112
  28   2.0000      -0.462504       -12.5854
  29   2.0000      -0.435130       -11.8405
  30   2.0000      -0.432152       -11.7594
  31   2.0000      -0.415786       -11.3141
  32   2.0000      -0.397897       -10.8273
  33   2.0000      -0.392546       -10.6817
  34   2.0000      -0.391402       -10.6506
  35   2.0000      -0.382210       -10.4005
  36   2.0000      -0.379313       -10.3216
  37   2.0000      -0.371818       -10.1177
  38   2.0000      -0.355367        -9.6700
  39   2.0000      -0.345848        -9.4110
  40   2.0000      -0.341532        -9.2936
  41   2.0000      -0.333211        -9.0671
  42   2.0000      -0.327804        -8.9200
  43   2.0000      -0.319112        -8.6835
  44   2.0000      -0.311334        -8.4718
  45   2.0000      -0.305902        -8.3240
  46   2.0000      -0.232189        -6.3182
  47   2.0000      -0.231266        -6.2931
  48   2.0000      -0.192025        -5.2253
  49   0.0000      -0.038758        -1.0547
  50   0.0000      -0.036296        -0.9877
  51   0.0000       0.027903         0.7593
  52   0.0000       0.045130         1.2281
  53   0.0000       0.063654         1.7321

MULLIKEN ATOMIC CHARGES
-----------------------
   0 C :   -0.163141
   1 N :   -0.287984
   2 C :   -0.084167
   3 C :    0.392507
   4 F :   -0.135689
   5 F :   -0.133302
   6 F :   -0.150763
   7 C :    0.106022
   8 C :   -0.060742
   9 C :   -0.059320
  10 C :   -0.032511
  11 C :   -0.058171
  12 C :   -0.097953
  13 H :    0.123964
  14 H :    0.110525
  15 H :    0.087712
  16 H :    0.114096
  17 H :    0.094345
  18 H :    0.041295
  19 H :    0.054364
  20 H :    0.053785
  21 H :    0.051861
  22 H :    0.033266
Sum of atomic charges:   -0.0000000

LOEWDIN ATOMIC CHARGES
----------------------
   0 C :   -0.251177
   1 N :   -0.118014
   2 C :   -0.181766
   3 C :    0.110398
   4 F :   -0.043146
   5 F :   -0.039030
   6 F :   -0.058678
   7 C :   -0.013792
   8 C :   -0.120312
   9 C :   -0.118053
  10 C :   -0.124272
  11 C :   -0.119528
  12 C :   -0.133477
  13 H :    0.125462
  14 H :    0.117678
  15 H :    0.094797
  16 H :    0.136082
  17 H :    0.113677
  18 H :    0.126904
  19 H :    0.125186
  20 H :    0.124035
  21 H :    0.123690
  22 H :    0.123336

  Mayer bond orders larger than 0.100000
B(  0-C ,  1-N ) :   1.0353 B(  0-C , 13-H ) :   0.9552 B(  0-C , 14-H ) :   0.9520
B(  0-C , 15-H ) :   0.9267 B(  1-N ,  2-C ) :   1.0354 B(  1-N ,  7-C ) :   0.9848
B(  2-C ,  3-C ) :   1.0437 B(  2-C , 16-H ) :   0.8986 B(  2-C , 17-H ) :   0.8777
B(  3-C ,  4-F ) :   1.1516 B(  3-C ,  5-F ) :   1.1623 B(  3-C ,  6-F ) :   1.1458
B(  7-C ,  8-C ) :   1.4281 B(  7-C , 12-C ) :   1.3713 B(  8-C ,  9-C ) :   1.3417
B(  8-C , 18-H ) :   0.9576 B(  9-C , 10-C ) :   1.3719 B(  9-C , 19-H ) :   0.9619
B( 10-C , 11-C ) :   1.3815 B( 10-C , 20-H ) :   0.9662 B( 11-C , 12-C ) :   1.3507
B( 11-C , 21-H ) :   0.9598 B( 12-C , 22-H ) :   0.9624

Dispersion correction           -0.026254653
FINAL SINGLE POINT ENERGY      -701.820239551074

DIPOLE MOMENT
-------------

Method             : SCF
Type of density    : Electron Density
Multiplicity       :   1
Irrep              :   0
Energy             :  -701.9114759736023643 Eh
Relativity type    :
Basis              : AO
                                X                 Y                 Z
Electronic contribution:    -13.118408260     -11.551414723       0.910162814
Nuclear contribution   :     13.457535575      12.331541698      -1.225486465
                        -----------------------------------------
Total Dipole Moment    :      0.339127314       0.780126975      -0.315323651
                        -----------------------------------------
Magnitude (a.u.)       :      0.907212455
Magnitude (Debye)      :      2.305950803

Rotational constants in cm-1:             0.043366             0.019815             0.016542
Rotational constants in MHz :          1300.078035           594.034667           495.920939

                             ****ORCA TERMINATED NORMALLY****
TOTAL RUN TIME: 0 days 0 hours 0 minutes 15 seconds 175 msec
