                         Program Version 6.0.0  -   RELEASE  -
|  1> ! r2scan-3c def2/J RI DEFGRID2 scfconv6 printgap
|  2> %output
|  3>     printlevel normal
|  4> end
|  5> * xyz 0 1
|  6> C 2.2713216729 -1.1121021334 0.4815525735
|  7> C 1.4989014558 -0.2525171264 -0.5117126267
|  8> C 0.2907871265 0.4711577467 0.1086765629
|  9> H 0.3780584852 0.4363272503 1.2066201703
| 10> C -1.0615457233 -0.1547473334 -0.2928864555
| 11> C -1.1562555668 -1.6046684913 0.1759200684
| 12> C -2.2321283362 0.6437998012 0.2854085418
| 13> O 0.3830470999 1.8253543473 -0.3148273316
| 14> H 3.115647178 -1.5835327305 -0.015121733
| 15> H 1.6397783092 -1.8904374039 0.9008606145
| 16> H 2.6512954664 -0.5007090671 1.2966205271
| 17> H 2.1589704354 0.5246042328 -0.902602114
| 18> H 1.172709184 -0.8573937532 -1.3586086616
| 19> H -1.1257913272 -0.1237850329 -1.386413979
| 20> H -0.3907558213 -2.2218143048 -0.2840064606
| 21> H -1.0456789826 -1.6577701917 1.2569210885
| 22> H -2.1270136219 -2.0160000196 -0.0900081405
| 23> H -2.2805926928 1.6420435141 -0.1424195407
| 24> H -2.1412468875 0.7221331849 1.3673423992
| 25> H -3.1689724858 0.1412106547 0.0579409098
| 26> H -0.2821986906 2.3513464547 0.1474714991
| 27> *
| 28>
| 29>                          ****END OF INPUT****

CARTESIAN COORDINATES (ANGSTROEM)
---------------------------------
  C      2.271322   -1.112102    0.481553
  C      1.498901   -0.252517   -0.511713
  C      0.290787    0.471158    0.108677
  H      0.378058    0.436327    1.206620
  C     -1.061546   -0.154747   -0.292886
  C     -1.156256   -1.604668    0.175920
  C     -2.232128    0.643800    0.285409
  O      0.383047    1.825354   -0.314827
  H      3.115647   -1.583533   -0.015122
  H      1.639778   -1.890437    0.900861
  H      2.651295   -0.500709    1.296621
  H      2.158970    0.524604   -0.902602
  H      1.172709   -0.857394   -1.358609
  H     -1.125791   -0.123785   -1.386414
  H     -0.390756   -2.221814   -0.284006
  H     -1.045679   -1.657770    1.256921
  H     -2.127014   -2.016000   -0.090008
  H     -2.280593    1.642044   -0.142420
  H     -2.141247    0.722133    1.367342
  H     -3.168972    0.141211    0.057941
  H     -0.282199    2.351346    0.147471

 Total Charge           Charge          ....    0
 Multiplicity           Mult            ....    1
 Number of Electrons    NEL             ....   58
 Basis Dimension        Dim             ....  208

ORBITAL ENERGIES
----------------

  NO   OCC          E(Eh)            E(eV)
   0   2.0000     -18.942508      -515.4518
   1   2.0000     -10.076141      -274.1857
   2   2.0000     -10.034048      -273.0403
   3   2.0000     -10.022123      -272.7158
   4   2.0000     -10.020662      -272.6761
   5   2.0000     -10.019704      -272.6500
   6   2.0000     -10.016723      -272.5689
   7   2.0000      -0.980479       -26.6802
   8   2.0000      -0.774236       -21.0680
   9   2.0000      -0.730842       -19.8872
  10   2.0000      -0.654376       -17.8065
  11   2.0000      -0.638760       -17.3816
  12   2.0000      -0.563121       -15.3233
  13   2.0000      -0.530237       -14.4285
  14   2.0000      -0.482905       -13.1405
  15   2.0000      -0.433825       -11.8050
  16   2.0000      -0.418786       -11.3958
  17   2.0000      -0.402196       -10.9443
  18   2.0000      -0.386284       -10.5113
  19   2.0000      -0.369666       -10.0591
  20   2.0000      -0.356313        -9.6958
  21   2.0000      -0.349640        -9.5142
  22   2.0000      -0.331853        -9.0302
  23   2.0000      -0.323818        -8.8115
  24   2.0000      -0.306171        -8.3313
  25   2.0000      -0.305567        -8.3149
  26   2.0000      -0.298157        -8.1133
  27   2.0000      -0.276309        -7.5187
  28   2.0000      -0.229348        -6.2409
  29   0.0000       0.060342         1.6420
  30   0.0000       0.087315         2.3760
  31   0.0000       0.104822         2.8523
  32   0.0000       0.111910         3.0452
  33   0.0000       0.119625         3.2552

MULLIKEN ATOMIC CHARGES
-----------------------
   0 C :   -0.496783
   1 C :   -0.285237
   2 C :    0.028004
   3 H :    0.141179
   4 C :   -0.008598
   5 C :   -0.530332
   6 C :   -0.553088
   7 O :   -0.439043
   8 H :    0.146654
   9 H :    0.150480
  10 H :    0.149367
  11 H :    0.170812
  12 H :    0.145881
  13 H :    0.165667
  14 H :    0.157527
  15 H :    0.158680
  16 H :    0.146965
  17 H :    0.149530
  18 H :    0.160292
  19 H :    0.151176
  20 H :    0.290868
Sum of atomic charges:   -0.0000000

LOEWDIN ATOMIC CHARGES
----------------------
   0 C :   -0.421141
   1 C :   -0.275751
   2 C :    0.063876
   3 H :    0.164129
   4 C :   -0.225502
   5 C :   -0.413939
   6 C :   -0.419118
   7 O :   -0.622472
   8 H :    0.150981
   9 H :    0.149393
  10 H :    0.151259
  11 H :    0.179109
  12 H :    0.156641
  13 H :    0.164657
  14 H :    0.156327
  15 H :    0.155217
  16 H :    0.154273
  17 H :    0.152285
  18 H :    0.155535
  19 H :    0.157380
  20 H :    0.266861

  Mayer bond orders larger than 0.100000
B(  0-C ,  1-C ) :   0.8892 B(  0-C ,  8-H ) :   0.9734 B(  0-C ,  9-H ) :   0.9740
B(  0-C , 10-H ) :   0.9852 B(  1-C ,  2-C ) :   0.8671 B(  1-C , 11-H ) :   0.9727
B(  1-C , 12-H ) :   0.9758 B(  2-C ,  3-H ) :   0.9900 B(  2-C ,  4-C ) :   0.8585
B(  2-C ,  7-O ) :   0.8553 B(  4-C ,  5-C ) :   0.8741 B(  4-C ,  6-C ) :   0.8639
B(  4-C , 13-H ) :   0.9649 B(  5-C , 14-H ) :   0.9664 B(  5-C , 15-H ) :   0.9852
B(  5-C , 16-H ) :   0.9676 B(  6-C , 17-H ) :   0.9764 B(  6-C , 18-H ) :   0.9885
B(  6-C , 19-H ) :   0.9712 B(  7-O , 20-H ) :   0.8971

Dispersion correction           -0.005677223
FINAL SINGLE POINT ENERGY      -312.199763266389

DIPOLE MOMENT
-------------

Method             : SCF
Type of density    : Electron Density
Multiplicity       :   1
Irrep              :   0
Energy             :  -312.2054211606172771 Eh
Relativity type    :
Basis              : AO
                                X                 Y                 Z
Electronic contribution:      0.961383845       4.460636201      -1.610918290
Nuclear contribution   :     -1.350704121      -4.695416614       1.922875333
                        -----------------------------------------
Total Dipole Moment    :     -0.389320276      -0.234780412       0.311957043
                        -----------------------------------------
Magnitude (a.u.)       :      0.551370398
Magnitude (Debye)      :      1.401472176

Rotational constants in cm-1:             0.110194             0.064825             0.045187
Rotational constants in MHz :          3303.528443          1943.401001          1354.682331

                             ****ORCA TERMINATED NORMALLY****
TOTAL RUN TIME: 0 days 0 hours 0 minutes 27 seconds 528 msec
