                         Program Version 6.0.0  -   RELEASE  -
|  1> ! r2scan-3c def2/J RI DEFGRID2 scfconv6 printgap
|  2> %output
|  3>     printlevel normal
|  4> end
|  5> * xyz 0 1
|  6> C -2.7522807735 -0.3642313916 -0.0321320313
|  7> C -1.3036223024 -0.463497794 0.4319298659
|  8> C -0.3707272721 0.2813037211 -0.5279093761
|  9> C 1.0745182621 0.2892667049 -0.0986819027
| 10> O 1.7239506675 1.3184895676 -0.0693444793
| 11> C 1.6659870419 -1.0362231658 0.278273953
| 12> H -3.069531589 0.6747949593 -0.0801473337
| 13> H -3.4064860472 -0.8907414688 0.6578135864
| 14> H -2.8676285581 -0.8036567848 -1.0199745414
| 15> H -1.0183351259 -1.5135881969 0.489472389
| 16> H -1.2120251497 -0.0294464911 1.4295825246
| 17> H -0.4140058427 -0.195368413 -1.5106297137
| 18> H -0.6991036097 1.3167003551 -0.6415769088
| 19> H 2.7503417749 -0.9681431074 0.2917087441
| 20> H 1.3413902109 -1.8126445525 -0.4070890014
| 21> H 1.3225534728 -1.2946787382 1.2781224789
| 22> *
| 23>
| 24>                          ****END OF INPUT****

CARTESIAN COORDINATES (ANGSTROEM)
---------------------------------
  C     -2.752281   -0.364231   -0.032132
  C     -1.303622   -0.463498    0.431930
  C     -0.370727    0.281304   -0.527909
  C      1.074518    0.289267   -0.098682
  O      1.723951    1.318490   -0.069344
  C      1.665987   -1.036223    0.278274
  H     -3.069532    0.674795   -0.080147
  H     -3.406486   -0.890741    0.657814
  H     -2.867629   -0.803657   -1.019975
  H     -1.018335   -1.513588    0.489472
  H     -1.212025   -0.029446    1.429583
  H     -0.414006   -0.195368   -1.510630
  H     -0.699104    1.316700   -0.641577
  H      2.750342   -0.968143    0.291709
  H      1.341390   -1.812645   -0.407089
  H      1.322553   -1.294679    1.278122

 Total Charge           Charge          ....    0
 Multiplicity           Mult            ....    1
 Number of Electrons    NEL             ....   48
 Basis Dimension        Dim             ....  169

ORBITAL ENERGIES
----------------

  NO   OCC          E(Eh)            E(eV)
   0   2.0000     -18.934540      -515.2350
   1   2.0000     -10.117207      -275.3032
   2   2.0000     -10.043374      -273.2941
   3   2.0000     -10.037658      -273.1386
   4   2.0000     -10.034145      -273.0430
   5   2.0000     -10.027628      -272.8656
   6   2.0000      -0.999834       -27.2069
   7   2.0000      -0.777654       -21.1610
   8   2.0000      -0.718716       -19.5573
   9   2.0000      -0.667491       -18.1634
  10   2.0000      -0.577047       -15.7023
  11   2.0000      -0.501124       -13.6363
  12   2.0000      -0.454826       -12.3765
  13   2.0000      -0.435150       -11.8410
  14   2.0000      -0.419041       -11.4027
  15   2.0000      -0.405349       -11.0301
  16   2.0000      -0.385324       -10.4852
  17   2.0000      -0.364867        -9.9285
  18   2.0000      -0.352566        -9.5938
  19   2.0000      -0.338544        -9.2123
  20   2.0000      -0.330254        -8.9867
  21   2.0000      -0.313861        -8.5406
  22   2.0000      -0.309195        -8.4136
  23   2.0000      -0.210267        -5.7217
  24   0.0000      -0.043964        -1.1963
  25   0.0000       0.081127         2.2076
  26   0.0000       0.098285         2.6745
  27   0.0000       0.117501         3.1974
  28   0.0000       0.128923         3.5082

MULLIKEN ATOMIC CHARGES
-----------------------
   0 C :   -0.461251
   1 C :   -0.245295
   2 C :   -0.291524
   3 C :    0.283860
   4 O :   -0.341846
   5 C :   -0.511742
   6 H :    0.147794
   7 H :    0.149180
   8 H :    0.141912
   9 H :    0.141640
  10 H :    0.150467
  11 H :    0.156949
  12 H :    0.167314
  13 H :    0.177062
  14 H :    0.160308
  15 H :    0.175171
Sum of atomic charges:    0.0000000

LOEWDIN ATOMIC CHARGES
----------------------
   0 C :   -0.419426
   1 C :   -0.303091
   2 C :   -0.280280
   3 C :    0.215342
   4 O :   -0.464059
   5 C :   -0.390057
   6 H :    0.152912
   7 H :    0.152232
   8 H :    0.150951
   9 H :    0.153874
  10 H :    0.156402
  11 H :    0.174985
  12 H :    0.178335
  13 H :    0.176128
  14 H :    0.166660
  15 H :    0.179093

  Mayer bond orders larger than 0.100000
B(  0-C ,  1-C ) :   0.9059 B(  0-C ,  6-H ) :   0.9814 B(  0-C ,  7-H ) :   0.9721
B(  0-C ,  8-H ) :   0.9819 B(  1-C ,  2-C ) :   0.8924 B(  1-C ,  9-H ) :   0.9517
B(  1-C , 10-H ) :   0.9698 B(  2-C ,  3-C ) :   0.9236 B(  2-C , 11-H ) :   0.9410
B(  2-C , 12-H ) :   0.9835 B(  3-C ,  4-O ) :   1.9834 B(  3-C ,  5-C ) :   0.8967
B(  5-C , 13-H ) :   0.9695 B(  5-C , 14-H ) :   0.9602 B(  5-C , 15-H ) :   0.9383

Dispersion correction           -0.003714166
FINAL SINGLE POINT ENERGY      -271.702726918495

DIPOLE MOMENT
-------------

Method             : SCF
Type of density    : Electron Density
Multiplicity       :   1
Irrep              :   0
Energy             :  -271.7063679697635052 Eh
Relativity type    :
Basis              : AO
                                X                 Y                 Z
Electronic contribution:      6.062259382       4.126996492      -0.441937217
Nuclear contribution   :     -6.797530259      -5.156075096       0.456123438
                        -----------------------------------------
Total Dipole Moment    :     -0.735270877      -1.029078604       0.014186222
                        -----------------------------------------
Magnitude (a.u.)       :      1.264842790
Magnitude (Debye)      :      3.214974875

Rotational constants in cm-1:             0.248260             0.062549             0.053723
Rotational constants in MHz :          7442.659612          1875.165668          1610.588282

                             ****ORCA TERMINATED NORMALLY****
TOTAL RUN TIME: 0 days 0 hours 0 minutes 22 seconds 449 msec
