                         Program Version 6.0.0  -   RELEASE  -
|  1> ! r2scan-3c def2/J RI DEFGRID2 scfconv6 printgap
|  2> %output
|  3>     printlevel normal
|  4> end
|  5> %cpcm
|  6>     smd true
|  7>     smdsolvent "water"
|  8> end
|  9> * xyz 0 1
| 10> C -2.7522807735 -0.3642313916 -0.0321320313
| 11> C -1.3036223024 -0.463497794 0.4319298659
| 12> C -0.3707272721 0.2813037211 -0.5279093761
| 13> C 1.0745182621 0.2892667049 -0.0986819027
| 14> O 1.7239506675 1.3184895676 -0.0693444793
| 15> C 1.6659870419 -1.0362231658 0.278273953
| 16> H -3.069531589 0.6747949593 -0.0801473337
| 17> H -3.4064860472 -0.8907414688 0.6578135864
| 18> H -2.8676285581 -0.8036567848 -1.0199745414
| 19> H -1.0183351259 -1.5135881969 0.489472389
| 20> H -1.2120251497 -0.0294464911 1.4295825246
| 21> H -0.4140058427 -0.195368413 -1.5106297137
| 22> H -0.6991036097 1.3167003551 -0.6415769088
| 23> H 2.7503417749 -0.9681431074 0.2917087441
| 24> H 1.3413902109 -1.8126445525 -0.4070890014
| 25> H 1.3225534728 -1.2946787382 1.2781224789
| 26> *
| 27>
| 28>                          ****END OF INPUT****

CARTESIAN COORDINATES (ANGSTROEM)
---------------------------------
  C     -2.752281   -0.364231   -0.032132
  C     -1.303622   -0.463498    0.431930
  C     -0.370727    0.281304   -0.527909
  C      1.074518    0.289267   -0.098682
  O      1.723951    1.318490   -0.069344
  C      1.665987   -1.036223    0.278274
  H     -3.069532    0.674795   -0.080147
  H     -3.406486   -0.890741    0.657814
  H     -2.867629   -0.803657   -1.019975
  H     -1.018335   -1.513588    0.489472
  H     -1.212025   -0.029446    1.429583
  H     -0.414006   -0.195368   -1.510630
  H     -0.699104    1.316700   -0.641577
  H      2.750342   -0.968143    0.291709
  H      1.341390   -1.812645   -0.407089
  H      1.322553   -1.294679    1.278122

 Total Charge           Charge          ....    0
 Multiplicity           Mult            ....    1
 Number of Electrons    NEL             ....   48
 Basis Dimension        Dim             ....  169

ORBITAL ENERGIES
----------------

  NO   OCC          E(Eh)            E(eV)
   0   2.0000     -18.945094      -515.5222
   1   2.0000     -10.124074      -275.4900
   2   2.0000     -10.027449      -272.8608
   3   2.0000     -10.026976      -272.8479
   4   2.0000     -10.022258      -272.7195
   5   2.0000     -10.011155      -272.4174
   6   2.0000      -1.013133       -27.5688
   7   2.0000      -0.765309       -20.8251
   8   2.0000      -0.708134       -19.2693
   9   2.0000      -0.656107       -17.8536
  10   2.0000      -0.562921       -15.3179
  11   2.0000      -0.497007       -13.5242
  12   2.0000      -0.442663       -12.0455
  13   2.0000      -0.432927       -11.7806
  14   2.0000      -0.414173       -11.2702
  15   2.0000      -0.402664       -10.9570
  16   2.0000      -0.374469       -10.1898
  17   2.0000      -0.354258        -9.6398
  18   2.0000      -0.340877        -9.2757
  19   2.0000      -0.333943        -9.0871
  20   2.0000      -0.323206        -8.7949
  21   2.0000      -0.303021        -8.2456
  22   2.0000      -0.296396        -8.0653
  23   2.0000      -0.221681        -6.0322
  24   0.0000      -0.046825        -1.2742
  25   0.0000       0.093646         2.5482
  26   0.0000       0.111877         3.0443
  27   0.0000       0.135219         3.6795
  28   0.0000       0.141538         3.8514

MULLIKEN ATOMIC CHARGES
-----------------------
   0 C :   -0.506564
   1 C :   -0.242203
   2 C :   -0.297047
   3 C :    0.321026
   4 O :   -0.455221
   5 C :   -0.539617
   6 H :    0.157299
   7 H :    0.159538
   8 H :    0.155635
   9 H :    0.158691
  10 H :    0.158949
  11 H :    0.187211
  12 H :    0.165805
  13 H :    0.178078
  14 H :    0.192546
  15 H :    0.205876
Sum of atomic charges:    0.0000000

LOEWDIN ATOMIC CHARGES
----------------------
   0 C :   -0.426898
   1 C :   -0.297838
   2 C :   -0.277197
   3 C :    0.234094
   4 O :   -0.545624
   5 C :   -0.387461
   6 H :    0.154375
   7 H :    0.154940
   8 H :    0.154330
   9 H :    0.160719
  10 H :    0.159503
  11 H :    0.189204
  12 H :    0.177451
  13 H :    0.175988
  14 H :    0.181699
  15 H :    0.192716

  Mayer bond orders larger than 0.100000
B(  0-C ,  1-C ) :   0.8918 B(  0-C ,  6-H ) :   0.9801 B(  0-C ,  7-H ) :   0.9694
B(  0-C ,  8-H ) :   0.9796 B(  1-C ,  2-C ) :   0.8936 B(  1-C ,  9-H ) :   0.9501
B(  1-C , 10-H ) :   0.9698 B(  2-C ,  3-C ) :   0.9439 B(  2-C , 11-H ) :   0.9228
B(  2-C , 12-H ) :   0.9841 B(  3-C ,  4-O ) :   1.9019 B(  3-C ,  5-C ) :   0.9238
B(  5-C , 13-H ) :   0.9636 B(  5-C , 14-H ) :   0.9464 B(  5-C , 15-H ) :   0.9247

Dispersion correction           -0.003714166
FINAL SINGLE POINT ENERGY      -271.709989465542

DIPOLE MOMENT
-------------

Method             : SCF
Type of density    : Electron Density
Multiplicity       :   1
Irrep              :   0
Energy             :  -271.7136305168107810 Eh
Relativity type    :
Basis              : AO
                                X                 Y                 Z
Electronic contribution:      5.791175393       3.641911072      -0.449346462
Nuclear contribution   :     -6.797530259      -5.156075096       0.456123438
                        -----------------------------------------
Total Dipole Moment    :     -1.006354866      -1.514164024       0.006776976
                        -----------------------------------------
Magnitude (a.u.)       :      1.818100310
Magnitude (Debye)      :      4.621243731

Rotational constants in cm-1:             0.248260             0.062549             0.053723
Rotational constants in MHz :          7442.659612          1875.165668          1610.588282

                             ****ORCA TERMINATED NORMALLY****
TOTAL RUN TIME: 0 days 0 hours 0 minutes 26 seconds 6 msec
