                         Program Version 6.0.0  -   RELEASE  -
|  1> ! r2scan-3c def2/J RI DEFGRID2 scfconv6 printgap
|  2> %output
|  3>     printlevel normal
|  4> end
|  5> * xyz 0 1
|  6> C -3.0708490353 0.7923484321 0.0564062183
|  7> C -1.5473582277 0.8319425258 0.0831618726
|  8> C -0.9612237104 -0.5678953909 -0.0768625184
|  9> C 0.5430520695 -0.6236818704 -0.0658199621
| 10> O 1.1830499371 -1.6515257371 -0.1776030583
| 11> O 1.1119198471 0.5654696782 0.0770605539
| 12> C 2.5403138436 0.6159387393 0.0975938847
| 13> H -3.4513902212 0.1721039456 0.864186284
| 14> H -3.4761057377 1.7937501003 0.1717068588
| 15> H -3.4260733078 0.3839647376 -0.8864947084
| 16> H -1.2064253489 1.2610039888 1.0262339467
| 17> H -1.1813808607 1.4711639575 -0.7212812121
| 18> H -1.2901777759 -1.0175178145 -1.0171063385
| 19> H -1.3113414768 -1.2257093915 0.7225277085
| 20> H 2.9211707 0.0522818281 0.9499330988
| 21> H 2.7939372015 1.6679410417 0.1799951399
| 22> H 2.9426969128 0.1844255842 -0.8195881379
| 23> *
| 24>
| 25>                          ****END OF INPUT****

CARTESIAN COORDINATES (ANGSTROEM)
---------------------------------
  C     -3.070849    0.792348    0.056406
  C     -1.547358    0.831943    0.083162
  C     -0.961224   -0.567895   -0.076863
  C      0.543052   -0.623682   -0.065820
  O      1.183050   -1.651526   -0.177603
  O      1.111920    0.565470    0.077061
  C      2.540314    0.615939    0.097594
  H     -3.451390    0.172104    0.864186
  H     -3.476106    1.793750    0.171707
  H     -3.426073    0.383965   -0.886495
  H     -1.206425    1.261004    1.026234
  H     -1.181381    1.471164   -0.721281
  H     -1.290178   -1.017518   -1.017106
  H     -1.311341   -1.225709    0.722528
  H      2.921171    0.052282    0.949933
  H      2.793937    1.667941    0.179995
  H      2.942697    0.184426   -0.819588

 Total Charge           Charge          ....    0
 Multiplicity           Mult            ....    1
 Number of Electrons    NEL             ....   56
 Basis Dimension        Dim             ....  193

ORBITAL ENERGIES
----------------

  NO   OCC          E(Eh)            E(eV)
   0   2.0000     -19.001350      -517.0530
   1   2.0000     -18.926242      -515.0092
   2   2.0000     -10.152764      -276.2708
   3   2.0000     -10.087954      -274.5072
   4   2.0000     -10.044011      -273.3114
   5   2.0000     -10.032854      -273.0078
   6   2.0000     -10.021878      -272.7092
   7   2.0000      -1.075028       -29.2530
   8   2.0000      -0.973830       -26.4993
   9   2.0000      -0.773978       -21.0610
  10   2.0000      -0.710378       -19.3304
  11   2.0000      -0.663376       -18.0514
  12   2.0000      -0.571909       -15.5624
  13   2.0000      -0.537283       -14.6202
  14   2.0000      -0.470533       -12.8039
  15   2.0000      -0.465794       -12.6749
  16   2.0000      -0.435109       -11.8399
  17   2.0000      -0.433526       -11.7968
  18   2.0000      -0.396190       -10.7809
  19   2.0000      -0.383124       -10.4253
  20   2.0000      -0.374236       -10.1835
  21   2.0000      -0.340350        -9.2614
  22   2.0000      -0.337887        -9.1944
  23   2.0000      -0.326266        -8.8782
  24   2.0000      -0.312080        -8.4921
  25   2.0000      -0.308307        -8.3894
  26   2.0000      -0.272596        -7.4177
  27   2.0000      -0.232882        -6.3370
  28   0.0000      -0.014341        -0.3902
  29   0.0000       0.061271         1.6673
  30   0.0000       0.097086         2.6418
  31   0.0000       0.102302         2.7838
  32   0.0000       0.122772         3.3408

MULLIKEN ATOMIC CHARGES
-----------------------
   0 C :   -0.459087
   1 C :   -0.246352
   2 C :   -0.316095
   3 C :    0.346907
   4 O :   -0.411618
   5 O :   -0.156350
   6 C :   -0.295919
   7 H :    0.141355
   8 H :    0.148940
   9 H :    0.141477
  10 H :    0.148023
  11 H :    0.148181
  12 H :    0.167879
  13 H :    0.167781
  14 H :    0.160894
  15 H :    0.150685
  16 H :    0.163298
Sum of atomic charges:   -0.0000000

LOEWDIN ATOMIC CHARGES
----------------------
   0 C :   -0.422018
   1 C :   -0.297969
   2 C :   -0.228857
   3 C :    0.357294
   4 O :   -0.428911
   5 O :   -0.611940
   6 C :   -0.041326
   7 H :    0.150468
   8 H :    0.152156
   9 H :    0.150459
  10 H :    0.160878
  11 H :    0.161070
  12 H :    0.183903
  13 H :    0.183823
  14 H :    0.176883
  15 H :    0.175918
  16 H :    0.178170

  Mayer bond orders larger than 0.100000
B(  0-C ,  1-C ) :   0.8903 B(  0-C ,  7-H ) :   0.9821 B(  0-C ,  8-H ) :   0.9747
B(  0-C ,  9-H ) :   0.9824 B(  1-C ,  2-C ) :   0.9356 B(  1-C , 10-H ) :   0.9655
B(  1-C , 11-H ) :   0.9658 B(  2-C ,  3-C ) :   1.0180 B(  2-C , 12-H ) :   0.9454
B(  2-C , 13-H ) :   0.9456 B(  3-C ,  4-O ) :   1.8374 B(  3-C ,  5-O ) :   1.0874
B(  5-O ,  6-C ) :   0.8457 B(  6-C , 14-H ) :   0.9606 B(  6-C , 15-H ) :   0.9705
B(  6-C , 16-H ) :   0.9615

Dispersion correction           -0.003965317
FINAL SINGLE POINT ENERGY      -346.930501416636

DIPOLE MOMENT
-------------

Method             : SCF
Type of density    : Electron Density
Multiplicity       :   1
Irrep              :   0
Energy             :  -346.9372150918737248 Eh
Relativity type    :
Basis              : AO
                                X                 Y                 Z
Electronic contribution:      6.073742448      -3.584198008      -0.344833717
Nuclear contribution   :     -6.237706515       4.434007751       0.439553601
                        -----------------------------------------
Total Dipole Moment    :     -0.163964068       0.849809743       0.094719883
                        -----------------------------------------
Magnitude (a.u.)       :      0.870650717
Magnitude (Debye)      :      2.213018250

Rotational constants in cm-1:             0.189647             0.046977             0.038735
Rotational constants in MHz :          5685.482880          1408.346868          1161.239277

                             ****ORCA TERMINATED NORMALLY****
TOTAL RUN TIME: 0 days 0 hours 0 minutes 22 seconds 763 msec
