                         Program Version 6.0.0  -   RELEASE  -
|  1> ! r2scan-3c def2/J RI DEFGRID2 scfconv6 printgap
|  2> %output
|  3>     printlevel normal
|  4> end
|  5> %cpcm
|  6>     smd true
|  7>     smdsolvent "water"
|  8> end
|  9> * xyz 0 1
| 10> C -3.0708490353 0.7923484321 0.0564062183
| 11> C -1.5473582277 0.8319425258 0.0831618726
| 12> C -0.9612237104 -0.5678953909 -0.0768625184
| 13> C 0.5430520695 -0.6236818704 -0.0658199621
| 14> O 1.1830499371 -1.6515257371 -0.1776030583
| 15> O 1.1119198471 0.5654696782 0.0770605539
| 16> C 2.5403138436 0.6159387393 0.0975938847
| 17> H -3.4513902212 0.1721039456 0.864186284
| 18> H -3.4761057377 1.7937501003 0.1717068588
| 19> H -3.4260733078 0.3839647376 -0.8864947084
| 20> H -1.2064253489 1.2610039888 1.0262339467
| 21> H -1.1813808607 1.4711639575 -0.7212812121
| 22> H -1.2901777759 -1.0175178145 -1.0171063385
| 23> H -1.3113414768 -1.2257093915 0.7225277085
| 24> H 2.9211707 0.0522818281 0.9499330988
| 25> H 2.7939372015 1.6679410417 0.1799951399
| 26> H 2.9426969128 0.1844255842 -0.8195881379
| 27> *
| 28>
| 29>                          ****END OF INPUT****

CARTESIAN COORDINATES (ANGSTROEM)
---------------------------------
  C     -3.070849    0.792348    0.056406
  C     -1.547358    0.831943    0.083162
  C     -0.961224   -0.567895   -0.076863
  C      0.543052   -0.623682   -0.065820
  O      1.183050   -1.651526   -0.177603
  O      1.111920    0.565470    0.077061
  C      2.540314    0.615939    0.097594
  H     -3.451390    0.172104    0.864186
  H     -3.476106    1.793750    0.171707
  H     -3.426073    0.383965   -0.886495
  H     -1.206425    1.261004    1.026234
  H     -1.181381    1.471164   -0.721281
  H     -1.290178   -1.017518   -1.017106
  H     -1.311341   -1.225709    0.722528
  H      2.921171    0.052282    0.949933
  H      2.793937    1.667941    0.179995
  H      2.942697    0.184426   -0.819588

 Total Charge           Charge          ....    0
 Multiplicity           Mult            ....    1
 Number of Electrons    NEL             ....   56
 Basis Dimension        Dim             ....  193

ORBITAL ENERGIES
----------------

  NO   OCC          E(Eh)            E(eV)
   0   2.0000     -19.005755      -517.1729
   1   2.0000     -18.941884      -515.4349
   2   2.0000     -10.162620      -276.5389
   3   2.0000     -10.077026      -274.2098
   4   2.0000     -10.036656      -273.1113
   5   2.0000     -10.023635      -272.7570
   6   2.0000     -10.010184      -272.3910
   7   2.0000      -1.080932       -29.4137
   8   2.0000      -0.987418       -26.8690
   9   2.0000      -0.766805       -20.8658
  10   2.0000      -0.704018       -19.1573
  11   2.0000      -0.655456       -17.8359
  12   2.0000      -0.564266       -15.3545
  13   2.0000      -0.533867       -14.5273
  14   2.0000      -0.468384       -12.7454
  15   2.0000      -0.463545       -12.6137
  16   2.0000      -0.449993       -12.2449
  17   2.0000      -0.424381       -11.5480
  18   2.0000      -0.392547       -10.6817
  19   2.0000      -0.377335       -10.2678
  20   2.0000      -0.365165        -9.9366
  21   2.0000      -0.335275        -9.1233
  22   2.0000      -0.334595        -9.1048
  23   2.0000      -0.325100        -8.8464
  24   2.0000      -0.305505        -8.3132
  25   2.0000      -0.298390        -8.1196
  26   2.0000      -0.279555        -7.6071
  27   2.0000      -0.248813        -6.7706
  28   0.0000      -0.021368        -0.5815
  29   0.0000       0.068035         1.8513
  30   0.0000       0.105833         2.8799
  31   0.0000       0.112744         3.0679
  32   0.0000       0.132997         3.6190

MULLIKEN ATOMIC CHARGES
-----------------------
   0 C :   -0.508341
   1 C :   -0.255870
   2 C :   -0.325155
   3 C :    0.392462
   4 O :   -0.503976
   5 O :   -0.169216
   6 C :   -0.331745
   7 H :    0.155690
   8 H :    0.159231
   9 H :    0.155724
  10 H :    0.156972
  11 H :    0.157103
  12 H :    0.190494
  13 H :    0.190475
  14 H :    0.178966
  15 H :    0.179109
  16 H :    0.178076
Sum of atomic charges:   -0.0000000

LOEWDIN ATOMIC CHARGES
----------------------
   0 C :   -0.427935
   1 C :   -0.296835
   2 C :   -0.227098
   3 C :    0.369078
   4 O :   -0.494818
   5 O :   -0.611553
   6 C :   -0.039145
   7 H :    0.154335
   8 H :    0.154726
   9 H :    0.154305
  10 H :    0.162455
  11 H :    0.162632
  12 H :    0.193025
  13 H :    0.192943
  14 H :    0.182615
  15 H :    0.188368
  16 H :    0.182904

  Mayer bond orders larger than 0.100000
B(  0-C ,  1-C ) :   0.8847 B(  0-C ,  7-H ) :   0.9800 B(  0-C ,  8-H ) :   0.9715
B(  0-C ,  9-H ) :   0.9802 B(  1-C ,  2-C ) :   0.9226 B(  1-C , 10-H ) :   0.9666
B(  1-C , 11-H ) :   0.9669 B(  2-C ,  3-C ) :   1.0243 B(  2-C , 12-H ) :   0.9340
B(  2-C , 13-H ) :   0.9345 B(  3-C ,  4-O ) :   1.7669 B(  3-C ,  5-O ) :   1.1176
B(  5-O ,  6-C ) :   0.8255 B(  6-C , 14-H ) :   0.9553 B(  6-C , 15-H ) :   0.9603
B(  6-C , 16-H ) :   0.9563

Dispersion correction           -0.003965317
FINAL SINGLE POINT ENERGY      -346.936169843064

DIPOLE MOMENT
-------------

Method             : SCF
Type of density    : Electron Density
Multiplicity       :   1
Irrep              :   0
Energy             :  -346.9428835183015281 Eh
Relativity type    :
Basis              : AO
                                X                 Y                 Z
Electronic contribution:      5.961118919      -3.291621316      -0.312012147
Nuclear contribution   :     -6.237706515       4.434007751       0.439553601
                        -----------------------------------------
Total Dipole Moment    :     -0.276587596       1.142386435       0.127541453
                        -----------------------------------------
Magnitude (a.u.)       :      1.182291963
Magnitude (Debye)      :      3.005147348

Rotational constants in cm-1:             0.189647             0.046977             0.038735
Rotational constants in MHz :          5685.482880          1408.346868          1161.239277

                             ****ORCA TERMINATED NORMALLY****
TOTAL RUN TIME: 0 days 0 hours 0 minutes 32 seconds 18 msec
