                         Program Version 6.0.0  -   RELEASE  -
|  1> ! r2scan-3c def2/J RI DEFGRID2 scfconv6 printgap
|  2> %output
|  3>     printlevel normal
|  4> end
|  5> * xyz 0 1
|  6> C -2.6583119447 -0.4832154886 1.4623470263
|  7> C -2.0837146277 -0.3054320764 0.0581208022
|  8> C -3.2167001364 -0.0632105864 -0.937588631
|  9> C -1.070961454 0.8612355228 0.0074897509
| 10> C 0.353593778 0.4082350992 -0.0451120433
| 11> C 0.9136519346 -0.4613772651 0.8948742971
| 12> N 2.1733829442 -0.8581892578 0.8307094687
| 13> C 2.9041357575 -0.3916963798 -0.1752485833
| 14> C 2.3622603282 0.4729104502 -1.1138200677
| 15> N 1.0985503959 0.866745152 -1.0490617238
| 16> H -3.3284204433 -1.3392499977 1.489989961
| 17> H -3.221339504 0.4014878685 1.7516717771
| 18> H -1.8716396339 -0.644667968 2.1948316954
| 19> H -1.568366338 -1.229581844 -0.2281093839
| 20> H -2.8284680886 0.0126254541 -1.9502360034
| 21> H -3.9299723927 -0.8833255502 -0.904799283
| 22> H -3.7409597998 0.8583445725 -0.695696635
| 23> H -1.2048191579 1.4955488025 0.8860623166
| 24> H -1.2443414275 1.473970989 -0.8771246069
| 25> H 0.3398424709 -0.8514432964 1.7228208888
| 26> H 3.9315077396 -0.7216987159 -0.2169421996
| 27> H 2.942226272 0.862811497 -1.9382367296
| 28> *
| 29>
| 30>                          ****END OF INPUT****

CARTESIAN COORDINATES (ANGSTROEM)
---------------------------------
  C     -2.658312   -0.483215    1.462347
  C     -2.083715   -0.305432    0.058121
  C     -3.216700   -0.063211   -0.937589
  C     -1.070961    0.861236    0.007490
  C      0.353594    0.408235   -0.045112
  C      0.913652   -0.461377    0.894874
  N      2.173383   -0.858189    0.830709
  C      2.904136   -0.391696   -0.175249
  C      2.362260    0.472910   -1.113820
  N      1.098550    0.866745   -1.049062
  H     -3.328420   -1.339250    1.489990
  H     -3.221340    0.401488    1.751672
  H     -1.871640   -0.644668    2.194832
  H     -1.568366   -1.229582   -0.228109
  H     -2.828468    0.012625   -1.950236
  H     -3.929972   -0.883326   -0.904799
  H     -3.740960    0.858345   -0.695697
  H     -1.204819    1.495549    0.886062
  H     -1.244341    1.473971   -0.877125
  H      0.339842   -0.851443    1.722821
  H      3.931508   -0.721699   -0.216942
  H      2.942226    0.862811   -1.938237

 Total Charge           Charge          ....    0
 Multiplicity           Mult            ....    1
 Number of Electrons    NEL             ....   74
 Basis Dimension        Dim             ....  260

ORBITAL ENERGIES
----------------

  NO   OCC          E(Eh)            E(eV)
   0   2.0000     -14.172852      -385.6629
   1   2.0000     -14.169724      -385.5778
   2   2.0000     -10.083825      -274.3948
   3   2.0000     -10.075760      -274.1754
   4   2.0000     -10.074280      -274.1351
   5   2.0000     -10.073331      -274.1093
   6   2.0000     -10.045729      -273.3582
   7   2.0000     -10.035721      -273.0859
   8   2.0000     -10.024285      -272.7747
   9   2.0000     -10.021859      -272.7086
  10   2.0000      -0.953360       -25.9423
  11   2.0000      -0.878822       -23.9140
  12   2.0000      -0.792661       -21.5694
  13   2.0000      -0.748523       -20.3683
  14   2.0000      -0.677014       -18.4225
  15   2.0000      -0.658194       -17.9104
  16   2.0000      -0.628895       -17.1131
  17   2.0000      -0.598549       -16.2873
  18   2.0000      -0.541124       -14.7247
  19   2.0000      -0.492693       -13.4069
  20   2.0000      -0.488782       -13.3004
  21   2.0000      -0.453595       -12.3430
  22   2.0000      -0.428328       -11.6554
  23   2.0000      -0.420654       -11.4466
  24   2.0000      -0.403005       -10.9663
  25   2.0000      -0.398532       -10.8446
  26   2.0000      -0.384534       -10.4637
  27   2.0000      -0.363984        -9.9045
  28   2.0000      -0.359535        -9.7835
  29   2.0000      -0.340174        -9.2566
  30   2.0000      -0.316413        -8.6100
  31   2.0000      -0.305938        -8.3250
  32   2.0000      -0.305825        -8.3219
  33   2.0000      -0.301067        -8.1925
  34   2.0000      -0.272160        -7.4058
  35   2.0000      -0.248130        -6.7520
  36   2.0000      -0.214708        -5.8425
  37   0.0000      -0.075908        -2.0656
  38   0.0000      -0.050663        -1.3786
  39   0.0000       0.069290         1.8855
  40   0.0000       0.083628         2.2756
  41   0.0000       0.088784         2.4159

MULLIKEN ATOMIC CHARGES
-----------------------
   0 C :   -0.484107
   1 C :    0.004271
   2 C :   -0.509810
   3 C :   -0.464179
   4 C :    0.353718
   5 C :   -0.256663
   6 N :   -0.147843
   7 C :   -0.072626
   8 C :   -0.055652
   9 N :   -0.183101
  10 H :    0.148216
  11 H :    0.156912
  12 H :    0.134990
  13 H :    0.160062
  14 H :    0.154131
  15 H :    0.146521
  16 H :    0.153104
  17 H :    0.173913
  18 H :    0.180849
  19 H :    0.134214
  20 H :    0.135739
  21 H :    0.137341
Sum of atomic charges:    0.0000000

LOEWDIN ATOMIC CHARGES
----------------------
   0 C :   -0.414544
   1 C :   -0.233478
   2 C :   -0.412642
   3 C :   -0.242241
   4 C :    0.155651
   5 C :    0.100958
   6 N :   -0.570135
   7 C :    0.085457
   8 C :    0.099426
   9 N :   -0.576094
  10 H :    0.154440
  11 H :    0.154058
  12 H :    0.149652
  13 H :    0.160917
  14 H :    0.155518
  15 H :    0.154009
  16 H :    0.154906
  17 H :    0.177171
  18 H :    0.185114
  19 H :    0.188965
  20 H :    0.186457
  21 H :    0.186437

  Mayer bond orders larger than 0.100000
B(  0-C ,  1-C ) :   0.9082 B(  0-C , 10-H ) :   0.9730 B(  0-C , 11-H ) :   0.9894
B(  0-C , 12-H ) :   0.9680 B(  1-C ,  2-C ) :   0.9020 B(  1-C ,  3-C ) :   0.7781
B(  1-C , 13-H ) :   0.9586 B(  2-C , 14-H ) :   0.9756 B(  2-C , 15-H ) :   0.9768
B(  2-C , 16-H ) :   0.9851 B(  3-C ,  4-C ) :   0.8718 B(  3-C , 17-H ) :   0.9670
B(  3-C , 18-H ) :   1.0051 B(  4-C ,  5-C ) :   1.2606 B(  4-C ,  9-N ) :   1.2613
B(  5-C ,  6-N ) :   1.4839 B(  5-C ,  8-C ) :   0.1166 B(  5-C , 19-H ) :   0.9771
B(  6-N ,  7-C ) :   1.4225 B(  7-C ,  8-C ) :   1.3059 B(  7-C , 20-H ) :   0.9711
B(  8-C ,  9-N ) :   1.4347 B(  8-C , 21-H ) :   0.9668

Dispersion correction           -0.007281994
FINAL SINGLE POINT ENERGY      -421.446822107832

DIPOLE MOMENT
-------------

Method             : SCF
Type of density    : Electron Density
Multiplicity       :   1
Irrep              :   0
Energy             :  -421.4522868852679380 Eh
Relativity type    :
Basis              : AO
                                X                 Y                 Z
Electronic contribution:     14.391757633       0.573822262      -1.196152632
Nuclear contribution   :    -14.734523593      -0.530185269       1.156719982
                        -----------------------------------------
Total Dipole Moment    :     -0.342765960       0.043636993      -0.039432650
                        -----------------------------------------
Magnitude (a.u.)       :      0.347775250
Magnitude (Debye)      :      0.883974434

Rotational constants in cm-1:             0.104233             0.025486             0.021950
Rotational constants in MHz :          3124.823974           764.052808           658.049544

                             ****ORCA TERMINATED NORMALLY****
TOTAL RUN TIME: 0 days 0 hours 0 minutes 35 seconds 192 msec
