                         Program Version 6.0.0  -   RELEASE  -
|  1> ! r2scan-3c def2/J RI DEFGRID2 scfconv6 printgap
|  2> %output
|  3>     printlevel normal
|  4> end
|  5> %cpcm
|  6>     smd true
|  7>     smdsolvent "water"
|  8> end
|  9> * xyz 0 1
| 10> C -2.6583119447 -0.4832154886 1.4623470263
| 11> C -2.0837146277 -0.3054320764 0.0581208022
| 12> C -3.2167001364 -0.0632105864 -0.937588631
| 13> C -1.070961454 0.8612355228 0.0074897509
| 14> C 0.353593778 0.4082350992 -0.0451120433
| 15> C 0.9136519346 -0.4613772651 0.8948742971
| 16> N 2.1733829442 -0.8581892578 0.8307094687
| 17> C 2.9041357575 -0.3916963798 -0.1752485833
| 18> C 2.3622603282 0.4729104502 -1.1138200677
| 19> N 1.0985503959 0.866745152 -1.0490617238
| 20> H -3.3284204433 -1.3392499977 1.489989961
| 21> H -3.221339504 0.4014878685 1.7516717771
| 22> H -1.8716396339 -0.644667968 2.1948316954
| 23> H -1.568366338 -1.229581844 -0.2281093839
| 24> H -2.8284680886 0.0126254541 -1.9502360034
| 25> H -3.9299723927 -0.8833255502 -0.904799283
| 26> H -3.7409597998 0.8583445725 -0.695696635
| 27> H -1.2048191579 1.4955488025 0.8860623166
| 28> H -1.2443414275 1.473970989 -0.8771246069
| 29> H 0.3398424709 -0.8514432964 1.7228208888
| 30> H 3.9315077396 -0.7216987159 -0.2169421996
| 31> H 2.942226272 0.862811497 -1.9382367296
| 32> *
| 33>
| 34>                          ****END OF INPUT****

CARTESIAN COORDINATES (ANGSTROEM)
---------------------------------
  C     -2.658312   -0.483215    1.462347
  C     -2.083715   -0.305432    0.058121
  C     -3.216700   -0.063211   -0.937589
  C     -1.070961    0.861236    0.007490
  C      0.353594    0.408235   -0.045112
  C      0.913652   -0.461377    0.894874
  N      2.173383   -0.858189    0.830709
  C      2.904136   -0.391696   -0.175249
  C      2.362260    0.472910   -1.113820
  N      1.098550    0.866745   -1.049062
  H     -3.328420   -1.339250    1.489990
  H     -3.221340    0.401488    1.751672
  H     -1.871640   -0.644668    2.194832
  H     -1.568366   -1.229582   -0.228109
  H     -2.828468    0.012625   -1.950236
  H     -3.929972   -0.883326   -0.904799
  H     -3.740960    0.858345   -0.695697
  H     -1.204819    1.495549    0.886062
  H     -1.244341    1.473971   -0.877125
  H      0.339842   -0.851443    1.722821
  H      3.931508   -0.721699   -0.216942
  H      2.942226    0.862811   -1.938237

 Total Charge           Charge          ....    0
 Multiplicity           Mult            ....    1
 Number of Electrons    NEL             ....   74
 Basis Dimension        Dim             ....  260

ORBITAL ENERGIES
----------------

  NO   OCC          E(Eh)            E(eV)
   0   2.0000     -14.174170      -385.6988
   1   2.0000     -14.170238      -385.5918
   2   2.0000     -10.080836      -274.3135
   3   2.0000     -10.071487      -274.0591
   4   2.0000     -10.069951      -274.0173
   5   2.0000     -10.069009      -273.9917
   6   2.0000     -10.033120      -273.0151
   7   2.0000     -10.025484      -272.8073
   8   2.0000     -10.008399      -272.3424
   9   2.0000     -10.008018      -272.3320
  10   2.0000      -0.952783       -25.9265
  11   2.0000      -0.879131       -23.9224
  12   2.0000      -0.782427       -21.2909
  13   2.0000      -0.741246       -20.1703
  14   2.0000      -0.669283       -18.2121
  15   2.0000      -0.644250       -17.5309
  16   2.0000      -0.624940       -17.0055
  17   2.0000      -0.593501       -16.1500
  18   2.0000      -0.529043       -14.3960
  19   2.0000      -0.489621       -13.3233
  20   2.0000      -0.484145       -13.1743
  21   2.0000      -0.443911       -12.0794
  22   2.0000      -0.418199       -11.3798
  23   2.0000      -0.412582       -11.2269
  24   2.0000      -0.392171       -10.6715
  25   2.0000      -0.390012       -10.6128
  26   2.0000      -0.376061       -10.2331
  27   2.0000      -0.352097        -9.5811
  28   2.0000      -0.348721        -9.4892
  29   2.0000      -0.328629        -8.9425
  30   2.0000      -0.312771        -8.5109
  31   2.0000      -0.298093        -8.1115
  32   2.0000      -0.293834        -7.9956
  33   2.0000      -0.288857        -7.8602
  34   2.0000      -0.276673        -7.5287
  35   2.0000      -0.243532        -6.6269
  36   2.0000      -0.217360        -5.9147
  37   0.0000      -0.075883        -2.0649
  38   0.0000      -0.047275        -1.2864
  39   0.0000       0.076674         2.0864
  40   0.0000       0.087974         2.3939
  41   0.0000       0.098860         2.6901

MULLIKEN ATOMIC CHARGES
-----------------------
   0 C :   -0.534153
   1 C :    0.025810
   2 C :   -0.550689
   3 C :   -0.466986
   4 C :    0.343500
   5 C :   -0.248994
   6 N :   -0.200709
   7 C :   -0.087086
   8 C :   -0.064581
   9 N :   -0.227572
  10 H :    0.157730
  11 H :    0.167480
  12 H :    0.155423
  13 H :    0.166660
  14 H :    0.160309
  15 H :    0.158520
  16 H :    0.165015
  17 H :    0.193645
  18 H :    0.181323
  19 H :    0.168794
  20 H :    0.167382
  21 H :    0.169178
Sum of atomic charges:    0.0000000

LOEWDIN ATOMIC CHARGES
----------------------
   0 C :   -0.421443
   1 C :   -0.228787
   2 C :   -0.420185
   3 C :   -0.242094
   4 C :    0.158978
   5 C :    0.106621
   6 N :   -0.605956
   7 C :    0.086237
   8 C :    0.101923
   9 N :   -0.606009
  10 H :    0.155917
  11 H :    0.156736
  12 H :    0.155701
  13 H :    0.163207
  14 H :    0.156182
  15 H :    0.156716
  16 H :    0.157801
  17 H :    0.185704
  18 H :    0.183814
  19 H :    0.202147
  20 H :    0.198187
  21 H :    0.198603

  Mayer bond orders larger than 0.100000
B(  0-C ,  1-C ) :   0.9015 B(  0-C , 10-H ) :   0.9722 B(  0-C , 11-H ) :   0.9864
B(  0-C , 12-H ) :   0.9660 B(  1-C ,  2-C ) :   0.8893 B(  1-C ,  3-C ) :   0.7709
B(  1-C , 13-H ) :   0.9609 B(  2-C , 14-H ) :   0.9741 B(  2-C , 15-H ) :   0.9752
B(  2-C , 16-H ) :   0.9831 B(  3-C ,  4-C ) :   0.8756 B(  3-C ,  9-N ) :   0.1136
B(  3-C , 17-H ) :   0.9547 B(  3-C , 18-H ) :   1.0134 B(  4-C ,  5-C ) :   1.2833
B(  4-C ,  9-N ) :   1.2606 B(  5-C ,  6-N ) :   1.4882 B(  5-C ,  8-C ) :   0.1167
B(  5-C , 19-H ) :   0.9583 B(  6-N ,  7-C ) :   1.4157 B(  7-C ,  8-C ) :   1.3207
B(  7-C , 20-H ) :   0.9608 B(  8-C ,  9-N ) :   1.4248 B(  8-C , 21-H ) :   0.9566

Dispersion correction           -0.007281994
FINAL SINGLE POINT ENERGY      -421.455866664472

DIPOLE MOMENT
-------------

Method             : SCF
Type of density    : Electron Density
Multiplicity       :   1
Irrep              :   0
Energy             :  -421.4613314419076460 Eh
Relativity type    :
Basis              : AO
                                X                 Y                 Z
Electronic contribution:     14.329129764       0.577364210      -1.134092856
Nuclear contribution   :    -14.734523593      -0.530185269       1.156719982
                        -----------------------------------------
Total Dipole Moment    :     -0.405393829       0.047178941       0.022627127
                        -----------------------------------------
Magnitude (a.u.)       :      0.408756647
Magnitude (Debye)      :      1.038976827

Rotational constants in cm-1:             0.104233             0.025486             0.021950
Rotational constants in MHz :          3124.823974           764.052808           658.049544

                             ****ORCA TERMINATED NORMALLY****
TOTAL RUN TIME: 0 days 0 hours 0 minutes 49 seconds 378 msec
