                         Program Version 6.0.0  -   RELEASE  -
|  1> ! r2scan-3c def2/J RI DEFGRID2 scfconv6 printgap
|  2> %output
|  3>     printlevel normal
|  4> end
|  5> * xyz 0 1
|  6> C 2.8305330688 -0.3540314465 0.1383811636
|  7> C 1.4204566476 -0.5602236286 -0.4037875976
|  8> C 0.413395014 0.3396095727 0.3084494101
|  9> C -0.9946446646 0.2789622627 -0.2971868247
| 10> H -0.930656584 0.504298499 -1.3755243988
| 11> C -1.6510146628 -1.0859437916 -0.1177346635
| 12> O -1.8532503048 1.2283360445 0.3201325076
| 13> H 2.8641539003 -0.5755927031 1.2025046938
| 14> H 3.1506876104 0.6751635372 -0.0074052594
| 15> H 3.5334607494 -1.0078222713 -0.371525946
| 16> H 1.4057521091 -0.3392195192 -1.4735533889
| 17> H 1.1376841323 -1.6053855976 -0.2743746273
| 18> H 0.3512542661 0.0658673964 1.3639662633
| 19> H 0.7695036632 1.3724042381 0.2538158891
| 20> H -1.1245876429 -1.8409889976 -0.6914117332
| 21> H -1.6507160414 -1.3591443197 0.9340693413
| 22> H -2.6813833364 -1.0332833985 -0.4590662531
| 23> H -1.4635275546 2.1097538973 0.2483464431
| 24> *
| 25>
| 26>                          ****END OF INPUT****

CARTESIAN COORDINATES (ANGSTROEM)
---------------------------------
  C      2.830533   -0.354031    0.138381
  C      1.420457   -0.560224   -0.403788
  C      0.413395    0.339610    0.308449
  C     -0.994645    0.278962   -0.297187
  H     -0.930657    0.504298   -1.375524
  C     -1.651015   -1.085944   -0.117735
  O     -1.853250    1.228336    0.320133
  H      2.864154   -0.575593    1.202505
  H      3.150688    0.675164   -0.007405
  H      3.533461   -1.007822   -0.371526
  H      1.405752   -0.339220   -1.473553
  H      1.137684   -1.605386   -0.274375
  H      0.351254    0.065867    1.363966
  H      0.769504    1.372404    0.253816
  H     -1.124588   -1.840989   -0.691412
  H     -1.650716   -1.359144    0.934069
  H     -2.681383   -1.033283   -0.459066
  H     -1.463528    2.109754    0.248346

 Total Charge           Charge          ....    0
 Multiplicity           Mult            ....    1
 Number of Electrons    NEL             ....   50
 Basis Dimension        Dim             ....  179

ORBITAL ENERGIES
----------------

  NO   OCC          E(Eh)            E(eV)
   0   2.0000     -18.942244      -515.4447
   1   2.0000     -10.079371      -274.2736
   2   2.0000     -10.029296      -272.9110
   3   2.0000     -10.024998      -272.7941
   4   2.0000     -10.019311      -272.6393
   5   2.0000     -10.014618      -272.5116
   6   2.0000      -0.979910       -26.6647
   7   2.0000      -0.767142       -20.8750
   8   2.0000      -0.712196       -19.3798
   9   2.0000      -0.649265       -17.6674
  10   2.0000      -0.573263       -15.5993
  11   2.0000      -0.541203       -14.7269
  12   2.0000      -0.480086       -13.0638
  13   2.0000      -0.442030       -12.0282
  14   2.0000      -0.417993       -11.3742
  15   2.0000      -0.391611       -10.6563
  16   2.0000      -0.365970        -9.9585
  17   2.0000      -0.353458        -9.6181
  18   2.0000      -0.349148        -9.5008
  19   2.0000      -0.335725        -9.1355
  20   2.0000      -0.326647        -8.8885
  21   2.0000      -0.305713        -8.3189
  22   2.0000      -0.300196        -8.1688
  23   2.0000      -0.280986        -7.6460
  24   2.0000      -0.230716        -6.2781
  25   0.0000       0.066007         1.7961
  26   0.0000       0.093584         2.5465
  27   0.0000       0.111364         3.0304
  28   0.0000       0.125458         3.4139
  29   0.0000       0.128351         3.4926

MULLIKEN ATOMIC CHARGES
-----------------------
   0 C :   -0.470326
   1 C :   -0.271154
   2 C :   -0.251540
   3 C :    0.062792
   4 H :    0.125704
   5 C :   -0.512433
   6 O :   -0.417188
   7 H :    0.143711
   8 H :    0.142247
   9 H :    0.146394
  10 H :    0.141799
  11 H :    0.144192
  12 H :    0.150753
  13 H :    0.122432
  14 H :    0.148733
  15 H :    0.153530
  16 H :    0.158006
  17 H :    0.282349
Sum of atomic charges:   -0.0000000

LOEWDIN ATOMIC CHARGES
----------------------
   0 C :   -0.422696
   1 C :   -0.314328
   2 C :   -0.289673
   3 C :    0.046887
   4 H :    0.158512
   5 C :   -0.384126
   6 O :   -0.616978
   7 H :    0.150891
   8 H :    0.149408
   9 H :    0.150188
  10 H :    0.152245
  11 H :    0.153252
  12 H :    0.163240
  13 H :    0.154811
  14 H :    0.156392
  15 H :    0.160280
  16 H :    0.165004
  17 H :    0.266690

  Mayer bond orders larger than 0.100000
B(  0-C ,  1-C ) :   0.8962 B(  0-C ,  7-H ) :   0.9818 B(  0-C ,  8-H ) :   0.9866
B(  0-C ,  9-H ) :   0.9727 B(  1-C ,  2-C ) :   0.9122 B(  1-C , 10-H ) :   0.9751
B(  1-C , 11-H ) :   0.9641 B(  2-C ,  3-C ) :   0.9002 B(  2-C , 12-H ) :   0.9732
B(  2-C , 13-H ) :   0.9729 B(  3-C ,  4-H ) :   0.9711 B(  3-C ,  5-C ) :   0.9190
B(  3-C ,  6-O ) :   0.9027 B(  5-C , 14-H ) :   0.9728 B(  5-C , 15-H ) :   0.9823
B(  5-C , 16-H ) :   0.9642 B(  6-O , 17-H ) :   0.9009

Dispersion correction           -0.004172540
FINAL SINGLE POINT ENERGY      -272.903013459057

DIPOLE MOMENT
-------------

Method             : SCF
Type of density    : Electron Density
Multiplicity       :   1
Irrep              :   0
Energy             :  -272.9083352471450894 Eh
Relativity type    :
Basis              : AO
                                X                 Y                 Z
Electronic contribution:     -4.436338623       2.906680029       0.348965246
Nuclear contribution   :      5.002578746      -2.828111764      -0.605204593
                        -----------------------------------------
Total Dipole Moment    :      0.566240123       0.078568265      -0.256239347
                        -----------------------------------------
Magnitude (a.u.)       :      0.626465842
Magnitude (Debye)      :      1.592349625

Rotational constants in cm-1:             0.234622             0.057909             0.049944
Rotational constants in MHz :          7033.783225          1736.073718          1497.284718

                             ****ORCA TERMINATED NORMALLY****
TOTAL RUN TIME: 0 days 0 hours 0 minutes 22 seconds 200 msec
