                         Program Version 6.0.0  -   RELEASE  -
|  1> ! r2scan-3c def2/J RI DEFGRID2 scfconv6 printgap
|  2> %output
|  3>     printlevel normal
|  4> end
|  5> %cpcm
|  6>     smd true
|  7>     smdsolvent "water"
|  8> end
|  9> * xyz 0 1
| 10> C 2.8305330688 -0.3540314465 0.1383811636
| 11> C 1.4204566476 -0.5602236286 -0.4037875976
| 12> C 0.413395014 0.3396095727 0.3084494101
| 13> C -0.9946446646 0.2789622627 -0.2971868247
| 14> H -0.930656584 0.504298499 -1.3755243988
| 15> C -1.6510146628 -1.0859437916 -0.1177346635
| 16> O -1.8532503048 1.2283360445 0.3201325076
| 17> H 2.8641539003 -0.5755927031 1.2025046938
| 18> H 3.1506876104 0.6751635372 -0.0074052594
| 19> H 3.5334607494 -1.0078222713 -0.371525946
| 20> H 1.4057521091 -0.3392195192 -1.4735533889
| 21> H 1.1376841323 -1.6053855976 -0.2743746273
| 22> H 0.3512542661 0.0658673964 1.3639662633
| 23> H 0.7695036632 1.3724042381 0.2538158891
| 24> H -1.1245876429 -1.8409889976 -0.6914117332
| 25> H -1.6507160414 -1.3591443197 0.9340693413
| 26> H -2.6813833364 -1.0332833985 -0.4590662531
| 27> H -1.4635275546 2.1097538973 0.2483464431
| 28> *
| 29>
| 30>                          ****END OF INPUT****

CARTESIAN COORDINATES (ANGSTROEM)
---------------------------------
  C      2.830533   -0.354031    0.138381
  C      1.420457   -0.560224   -0.403788
  C      0.413395    0.339610    0.308449
  C     -0.994645    0.278962   -0.297187
  H     -0.930657    0.504298   -1.375524
  C     -1.651015   -1.085944   -0.117735
  O     -1.853250    1.228336    0.320133
  H      2.864154   -0.575593    1.202505
  H      3.150688    0.675164   -0.007405
  H      3.533461   -1.007822   -0.371526
  H      1.405752   -0.339220   -1.473553
  H      1.137684   -1.605386   -0.274375
  H      0.351254    0.065867    1.363966
  H      0.769504    1.372404    0.253816
  H     -1.124588   -1.840989   -0.691412
  H     -1.650716   -1.359144    0.934069
  H     -2.681383   -1.033283   -0.459066
  H     -1.463528    2.109754    0.248346

 Total Charge           Charge          ....    0
 Multiplicity           Mult            ....    1
 Number of Electrons    NEL             ....   50
 Basis Dimension        Dim             ....  179

ORBITAL ENERGIES
----------------

  NO   OCC          E(Eh)            E(eV)
   0   2.0000     -18.947472      -515.5869
   1   2.0000     -10.074859      -274.1509
   2   2.0000     -10.017950      -272.6023
   3   2.0000     -10.014905      -272.5194
   4   2.0000     -10.009854      -272.3820
   5   2.0000     -10.008362      -272.3414
   6   2.0000      -0.983843       -26.7717
   7   2.0000      -0.758089       -20.6286
   8   2.0000      -0.706153       -19.2154
   9   2.0000      -0.641393       -17.4532
  10   2.0000      -0.566226       -15.4078
  11   2.0000      -0.534151       -14.5350
  12   2.0000      -0.477283       -12.9875
  13   2.0000      -0.433177       -11.7873
  14   2.0000      -0.410542       -11.1714
  15   2.0000      -0.386109       -10.5066
  16   2.0000      -0.361160        -9.8277
  17   2.0000      -0.348464        -9.4822
  18   2.0000      -0.342622        -9.3232
  19   2.0000      -0.328699        -8.9443
  20   2.0000      -0.323530        -8.8037
  21   2.0000      -0.296039        -8.0556
  22   2.0000      -0.290161        -7.8957
  23   2.0000      -0.279054        -7.5934
  24   2.0000      -0.235404        -6.4057
  25   0.0000       0.081505         2.2179
  26   0.0000       0.104090         2.8324
  27   0.0000       0.119758         3.2588
  28   0.0000       0.136112         3.7038
  29   0.0000       0.139501         3.7960

MULLIKEN ATOMIC CHARGES
-----------------------
   0 C :   -0.512680
   1 C :   -0.276982
   2 C :   -0.271790
   3 C :    0.076803
   4 H :    0.138022
   5 C :   -0.551959
   6 O :   -0.509346
   7 H :    0.153766
   8 H :    0.155063
   9 H :    0.155850
  10 H :    0.152238
  11 H :    0.153558
  12 H :    0.152467
  13 H :    0.148890
  14 H :    0.170301
  15 H :    0.165047
  16 H :    0.161475
  17 H :    0.339278
Sum of atomic charges:   -0.0000000

LOEWDIN ATOMIC CHARGES
----------------------
   0 C :   -0.431244
   1 C :   -0.313779
   2 C :   -0.290249
   3 C :    0.047970
   4 H :    0.165957
   5 C :   -0.394090
   6 O :   -0.655201
   7 H :    0.152759
   8 H :    0.152425
   9 H :    0.152300
  10 H :    0.155615
  11 H :    0.155777
  12 H :    0.163035
  13 H :    0.163394
  14 H :    0.164978
  15 H :    0.161718
  16 H :    0.163293
  17 H :    0.285340

  Mayer bond orders larger than 0.100000
B(  0-C ,  1-C ) :   0.8855 B(  0-C ,  7-H ) :   0.9802 B(  0-C ,  8-H ) :   0.9837
B(  0-C ,  9-H ) :   0.9703 B(  1-C ,  2-C ) :   0.9146 B(  1-C , 10-H ) :   0.9747
B(  1-C , 11-H ) :   0.9625 B(  2-C ,  3-C ) :   0.9130 B(  2-C , 12-H ) :   0.9689
B(  2-C , 13-H ) :   0.9692 B(  3-C ,  4-H ) :   0.9651 B(  3-C ,  5-C ) :   0.9156
B(  3-C ,  6-O ) :   0.8848 B(  5-C , 14-H ) :   0.9660 B(  5-C , 15-H ) :   0.9784
B(  5-C , 16-H ) :   0.9640 B(  6-O , 17-H ) :   0.8749

Dispersion correction           -0.004172540
FINAL SINGLE POINT ENERGY      -272.909512383574

DIPOLE MOMENT
-------------

Method             : SCF
Type of density    : Electron Density
Multiplicity       :   1
Irrep              :   0
Energy             :  -272.9148341716622781 Eh
Relativity type    :
Basis              : AO
                                X                 Y                 Z
Electronic contribution:     -4.195762746       2.962892644       0.206242373
Nuclear contribution   :      5.002578746      -2.828111764      -0.605204593
                        -----------------------------------------
Total Dipole Moment    :      0.806816001       0.134780880      -0.398962220
                        -----------------------------------------
Magnitude (a.u.)       :      0.910103729
Magnitude (Debye)      :      2.313299838

Rotational constants in cm-1:             0.234622             0.057909             0.049944
Rotational constants in MHz :          7033.783225          1736.073718          1497.284718

                             ****ORCA TERMINATED NORMALLY****
TOTAL RUN TIME: 0 days 0 hours 0 minutes 26 seconds 881 msec
