                         Program Version 6.0.0  -   RELEASE  -
|  1> ! r2scan-3c def2/J RI DEFGRID2 scfconv6 printgap
|  2> %output
|  3>     printlevel normal
|  4> end
|  5> * xyz 0 1
|  6> C -1.2446124561 0.241090126 -0.2575067672
|  7> C 0.1264383008 0.6661543636 0.292537171
|  8> C 1.2508307614 -0.2090086971 -0.2963523981
|  9> O 1.125984776 -1.5677543646 0.0582045284
| 10> O 0.305235872 2.0203493168 -0.0551026397
| 11> O -1.6460578725 -1.0275238534 0.1911382373
| 12> H -1.212721409 0.2831569446 -1.3545697356
| 13> H -1.9986061673 0.9507202651 0.0912242846
| 14> H 0.1042975508 0.5467348006 1.3877595864
| 15> H 2.2263346729 0.1857735071 0.0137060394
| 16> H 1.1966448954 -0.1711801814 -1.3875997135
| 17> H 1.3382802308 -1.6784865833 0.9957784323
| 18> H 1.1266135763 2.3544463435 0.333041146
| 19> H -0.9514061674 -1.6653691301 -0.0486407854
| 20> *
| 21>
| 22>                          ****END OF INPUT****

CARTESIAN COORDINATES (ANGSTROEM)
---------------------------------
  C     -1.244612    0.241090   -0.257507
  C      0.126438    0.666154    0.292537
  C      1.250831   -0.209009   -0.296352
  O      1.125985   -1.567754    0.058205
  O      0.305236    2.020349   -0.055103
  O     -1.646058   -1.027524    0.191138
  H     -1.212721    0.283157   -1.354570
  H     -1.998606    0.950720    0.091224
  H      0.104298    0.546735    1.387760
  H      2.226335    0.185774    0.013706
  H      1.196645   -0.171180   -1.387600
  H      1.338280   -1.678487    0.995778
  H      1.126614    2.354446    0.333041
  H     -0.951406   -1.665369   -0.048641

 Total Charge           Charge          ....    0
 Multiplicity           Mult            ....    1
 Number of Electrons    NEL             ....   50
 Basis Dimension        Dim             ....  169

ORBITAL ENERGIES
----------------

  NO   OCC          E(Eh)            E(eV)
   0   2.0000     -18.976034      -516.3641
   1   2.0000     -18.964333      -516.0457
   2   2.0000     -18.938661      -515.3472
   3   2.0000     -10.091185      -274.5951
   4   2.0000     -10.089244      -274.5423
   5   2.0000     -10.071838      -274.0686
   6   2.0000      -1.016225       -27.6529
   7   2.0000      -1.000048       -27.2127
   8   2.0000      -0.976284       -26.5660
   9   2.0000      -0.725789       -19.7497
  10   2.0000      -0.650631       -17.7046
  11   2.0000      -0.575739       -15.6667
  12   2.0000      -0.512867       -13.9558
  13   2.0000      -0.491273       -13.3682
  14   2.0000      -0.472733       -12.8637
  15   2.0000      -0.424746       -11.5579
  16   2.0000      -0.405379       -11.0309
  17   2.0000      -0.394192       -10.7265
  18   2.0000      -0.372874       -10.1464
  19   2.0000      -0.332631        -9.0514
  20   2.0000      -0.320123        -8.7110
  21   2.0000      -0.308794        -8.4027
  22   2.0000      -0.267670        -7.2837
  23   2.0000      -0.243171        -6.6170
  24   2.0000      -0.226464        -6.1624
  25   0.0000       0.027277         0.7423
  26   0.0000       0.048225         1.3123
  27   0.0000       0.098477         2.6797
  28   0.0000       0.119956         3.2642
  29   0.0000       0.127918         3.4808

MULLIKEN ATOMIC CHARGES
-----------------------
   0 C :   -0.189663
   1 C :    0.031125
   2 C :   -0.187870
   3 O :   -0.433082
   4 O :   -0.419235
   5 O :   -0.422219
   6 H :    0.135600
   7 H :    0.147459
   8 H :    0.135209
   9 H :    0.124384
  10 H :    0.155432
  11 H :    0.310326
  12 H :    0.293256
  13 H :    0.319279
Sum of atomic charges:    0.0000000

LOEWDIN ATOMIC CHARGES
----------------------
   0 C :    0.037615
   1 C :    0.075240
   2 C :    0.021860
   3 O :   -0.612400
   4 O :   -0.597235
   5 O :   -0.606291
   6 H :    0.163181
   7 H :    0.185862
   8 H :    0.166323
   9 H :    0.160125
  10 H :    0.186149
  11 H :    0.270547
  12 H :    0.271447
  13 H :    0.277577

  Mayer bond orders larger than 0.100000
B(  0-C ,  1-C ) :   0.9252 B(  0-C ,  5-O ) :   0.9834 B(  0-C ,  6-H ) :   0.9793
B(  0-C ,  7-H ) :   0.9640 B(  1-C ,  2-C ) :   0.9003 B(  1-C ,  4-O ) :   0.8892
B(  1-C ,  8-H ) :   0.9562 B(  2-C ,  3-O ) :   0.9552 B(  2-C ,  9-H ) :   0.9718
B(  2-C , 10-H ) :   0.9712 B(  3-O , 11-H ) :   0.8894 B(  4-O , 12-H ) :   0.8953
B(  5-O , 13-H ) :   0.8496

Dispersion correction           -0.003076054
FINAL SINGLE POINT ENERGY      -344.722379825760

DIPOLE MOMENT
-------------

Method             : SCF
Type of density    : Electron Density
Multiplicity       :   1
Irrep              :   0
Energy             :  -344.7301578619032512 Eh
Relativity type    :
Basis              : AO
                                X                 Y                 Z
Electronic contribution:     -0.517555860      -0.534783504       0.438345758
Nuclear contribution   :      1.713138638       0.747437861       0.031685948
                        -----------------------------------------
Total Dipole Moment    :      1.195582778       0.212654357       0.470031706
                        -----------------------------------------
Magnitude (a.u.)       :      1.302140492
Magnitude (Debye)      :      3.309778098

Rotational constants in cm-1:             0.131141             0.111326             0.064958
Rotational constants in MHz :          3931.514628          3337.464847          1947.380989

                             ****ORCA TERMINATED NORMALLY****
TOTAL RUN TIME: 0 days 0 hours 0 minutes 20 seconds 858 msec
