                         Program Version 6.0.0  -   RELEASE  -
|  1> ! r2scan-3c def2/J RI DEFGRID2 scfconv6 printgap
|  2> %output
|  3>     printlevel normal
|  4> end
|  5> %cpcm
|  6>     smd true
|  7>     smdsolvent "water"
|  8> end
|  9> * xyz 0 1
| 10> C -1.2446124561 0.241090126 -0.2575067672
| 11> C 0.1264383008 0.6661543636 0.292537171
| 12> C 1.2508307614 -0.2090086971 -0.2963523981
| 13> O 1.125984776 -1.5677543646 0.0582045284
| 14> O 0.305235872 2.0203493168 -0.0551026397
| 15> O -1.6460578725 -1.0275238534 0.1911382373
| 16> H -1.212721409 0.2831569446 -1.3545697356
| 17> H -1.9986061673 0.9507202651 0.0912242846
| 18> H 0.1042975508 0.5467348006 1.3877595864
| 19> H 2.2263346729 0.1857735071 0.0137060394
| 20> H 1.1966448954 -0.1711801814 -1.3875997135
| 21> H 1.3382802308 -1.6784865833 0.9957784323
| 22> H 1.1266135763 2.3544463435 0.333041146
| 23> H -0.9514061674 -1.6653691301 -0.0486407854
| 24> *
| 25>
| 26>                          ****END OF INPUT****

CARTESIAN COORDINATES (ANGSTROEM)
---------------------------------
  C     -1.244612    0.241090   -0.257507
  C      0.126438    0.666154    0.292537
  C      1.250831   -0.209009   -0.296352
  O      1.125985   -1.567754    0.058205
  O      0.305236    2.020349   -0.055103
  O     -1.646058   -1.027524    0.191138
  H     -1.212721    0.283157   -1.354570
  H     -1.998606    0.950720    0.091224
  H      0.104298    0.546735    1.387760
  H      2.226335    0.185774    0.013706
  H      1.196645   -0.171180   -1.387600
  H      1.338280   -1.678487    0.995778
  H      1.126614    2.354446    0.333041
  H     -0.951406   -1.665369   -0.048641

 Total Charge           Charge          ....    0
 Multiplicity           Mult            ....    1
 Number of Electrons    NEL             ....   50
 Basis Dimension        Dim             ....  169

ORBITAL ENERGIES
----------------

  NO   OCC          E(Eh)            E(eV)
   0   2.0000     -18.960893      -515.9521
   1   2.0000     -18.958605      -515.8899
   2   2.0000     -18.950562      -515.6710
   3   2.0000     -10.079118      -274.2668
   4   2.0000     -10.072906      -274.0977
   5   2.0000     -10.070797      -274.0403
   6   2.0000      -1.005194       -27.3527
   7   2.0000      -0.990507       -26.9531
   8   2.0000      -0.984129       -26.7795
   9   2.0000      -0.716486       -19.4966
  10   2.0000      -0.641345       -17.4519
  11   2.0000      -0.569094       -15.4858
  12   2.0000      -0.502674       -13.6785
  13   2.0000      -0.477164       -12.9843
  14   2.0000      -0.468028       -12.7357
  15   2.0000      -0.419961       -11.4277
  16   2.0000      -0.396889       -10.7999
  17   2.0000      -0.389832       -10.6079
  18   2.0000      -0.374477       -10.1900
  19   2.0000      -0.327744        -8.9184
  20   2.0000      -0.313812        -8.5393
  21   2.0000      -0.307726        -8.3736
  22   2.0000      -0.264298        -7.1919
  23   2.0000      -0.244222        -6.6456
  24   2.0000      -0.226437        -6.1617
  25   0.0000       0.044141         1.2011
  26   0.0000       0.083021         2.2591
  27   0.0000       0.107040         2.9127
  28   0.0000       0.134093         3.6489
  29   0.0000       0.141176         3.8416

MULLIKEN ATOMIC CHARGES
-----------------------
   0 C :   -0.201986
   1 C :    0.039304
   2 C :   -0.185147
   3 O :   -0.494802
   4 O :   -0.500389
   5 O :   -0.498520
   6 H :    0.150834
   7 H :    0.156891
   8 H :    0.155806
   9 H :    0.152762
  10 H :    0.161694
  11 H :    0.358218
  12 H :    0.350915
  13 H :    0.354421
Sum of atomic charges:   -0.0000000

LOEWDIN ATOMIC CHARGES
----------------------
   0 C :    0.029684
   1 C :    0.081205
   2 C :    0.025484
   3 O :   -0.629619
   4 O :   -0.624549
   5 O :   -0.643318
   6 H :    0.169799
   7 H :    0.186824
   8 H :    0.176181
   9 H :    0.173725
  10 H :    0.186950
  11 H :    0.288358
  12 H :    0.292345
  13 H :    0.286931

  Mayer bond orders larger than 0.100000
B(  0-C ,  1-C ) :   0.9261 B(  0-C ,  5-O ) :   0.9678 B(  0-C ,  6-H ) :   0.9691
B(  0-C ,  7-H ) :   0.9619 B(  1-C ,  2-C ) :   0.9143 B(  1-C ,  4-O ) :   0.8853
B(  1-C ,  8-H ) :   0.9539 B(  2-C ,  3-O ) :   0.9531 B(  2-C ,  9-H ) :   0.9600
B(  2-C , 10-H ) :   0.9687 B(  3-O , 11-H ) :   0.8638 B(  4-O , 12-H ) :   0.8672
B(  5-O , 13-H ) :   0.8317

Dispersion correction           -0.003076054
FINAL SINGLE POINT ENERGY      -344.743346274116

DIPOLE MOMENT
-------------

Method             : SCF
Type of density    : Electron Density
Multiplicity       :   1
Irrep              :   0
Energy             :  -344.7511243102592289 Eh
Relativity type    :
Basis              : AO
                                X                 Y                 Z
Electronic contribution:     -0.083466181      -0.462182182       0.634835855
Nuclear contribution   :      1.713138638       0.747437861       0.031685948
                        -----------------------------------------
Total Dipole Moment    :      1.629672458       0.285255679       0.666521803
                        -----------------------------------------
Magnitude (a.u.)       :      1.783663207
Magnitude (Debye)      :      4.533711572

Rotational constants in cm-1:             0.131141             0.111326             0.064958
Rotational constants in MHz :          3931.514628          3337.464847          1947.380989

                             ****ORCA TERMINATED NORMALLY****
TOTAL RUN TIME: 0 days 0 hours 0 minutes 23 seconds 902 msec
