                         Program Version 6.0.0  -   RELEASE  -
|  1> ! r2scan-3c def2/J RI DEFGRID2 scfconv6 printgap
|  2> %output
|  3>     printlevel normal
|  4> end
|  5> * xyz 0 1
|  6> C 1.3945234115 1.4983871642 0.8402625086
|  7> C 1.4348201906 0.1697474505 0.0937883706
|  8> C 0.0847560872 -0.5361654061 -0.1463231845
|  9> C 0.3800311992 -1.7654812036 -1.0199296923
| 10> C -0.5055186066 -1.029487873 1.1763511797
| 11> C -0.9082324775 0.359183622 -0.9218121179
| 12> C -1.8363620849 1.2432956563 -0.0920017542
| 13> H 0.9040269793 1.396157844 1.8045129597
| 14> H 0.8798683368 2.258800891 0.2598089501
| 15> H 2.4113704554 1.8439473908 1.0163379334
| 16> H 1.908312744 0.3376601758 -0.8772922099
| 17> H 2.0757966513 -0.518715648 0.6507962906
| 18> H 1.1400678342 -2.3912413851 -0.5571010461
| 19> H 0.7393152597 -1.4607928843 -2.0006637756
| 20> H -0.5180727002 -2.3642105182 -1.1543434076
| 21> H -1.447232462 -1.5444481916 1.0006431792
| 22> H 0.1810640495 -1.7287922631 1.6491140629
| 23> H -0.6845405087 -0.2103831741 1.8655719896
| 24> H -0.3364225687 0.9882567953 -1.6081133753
| 25> H -1.5409854498 -0.2875608304 -1.5348936256
| 26> H -2.5250453945 0.6410699854 0.4940127928
| 27> H -1.2873546482 1.8922071105 0.5821779259
| 28> H -2.4247214397 1.869259905 -0.7603845068
| 29> *
| 30>
| 31>                          ****END OF INPUT****

CARTESIAN COORDINATES (ANGSTROEM)
---------------------------------
  C      1.394523    1.498387    0.840263
  C      1.434820    0.169747    0.093788
  C      0.084756   -0.536165   -0.146323
  C      0.380031   -1.765481   -1.019930
  C     -0.505519   -1.029488    1.176351
  C     -0.908232    0.359184   -0.921812
  C     -1.836362    1.243296   -0.092002
  H      0.904027    1.396158    1.804513
  H      0.879868    2.258801    0.259809
  H      2.411370    1.843947    1.016338
  H      1.908313    0.337660   -0.877292
  H      2.075797   -0.518716    0.650796
  H      1.140068   -2.391241   -0.557101
  H      0.739315   -1.460793   -2.000664
  H     -0.518073   -2.364211   -1.154343
  H     -1.447232   -1.544448    1.000643
  H      0.181064   -1.728792    1.649114
  H     -0.684541   -0.210383    1.865572
  H     -0.336423    0.988257   -1.608113
  H     -1.540985   -0.287561   -1.534894
  H     -2.525045    0.641070    0.494013
  H     -1.287355    1.892207    0.582178
  H     -2.424721    1.869260   -0.760385

 Total Charge           Charge          ....    0
 Multiplicity           Mult            ....    1
 Number of Electrons    NEL             ....   58
 Basis Dimension        Dim             ....  213

ORBITAL ENERGIES
----------------

  NO   OCC          E(Eh)            E(eV)
   0   2.0000     -10.036898      -273.1179
   1   2.0000     -10.020344      -272.6674
   2   2.0000     -10.020059      -272.6597
   3   2.0000     -10.013938      -272.4931
   4   2.0000     -10.012347      -272.4498
   5   2.0000     -10.011092      -272.4157
   6   2.0000     -10.010444      -272.3980
   7   2.0000      -0.793018       -21.5791
   8   2.0000      -0.712045       -19.3757
   9   2.0000      -0.694058       -18.8863
  10   2.0000      -0.649156       -17.6644
  11   2.0000      -0.596400       -16.2289
  12   2.0000      -0.576608       -15.6903
  13   2.0000      -0.489759       -13.3270
  14   2.0000      -0.435113       -11.8400
  15   2.0000      -0.426534       -11.6066
  16   2.0000      -0.411234       -11.1902
  17   2.0000      -0.388499       -10.5716
  18   2.0000      -0.373204       -10.1554
  19   2.0000      -0.369028       -10.0418
  20   2.0000      -0.349922        -9.5219
  21   2.0000      -0.344955        -9.3867
  22   2.0000      -0.329652        -8.9703
  23   2.0000      -0.326510        -8.8848
  24   2.0000      -0.312193        -8.4952
  25   2.0000      -0.304185        -8.2773
  26   2.0000      -0.278771        -7.5857
  27   2.0000      -0.275042        -7.4843
  28   2.0000      -0.267958        -7.2915
  29   0.0000       0.078196         2.1278
  30   0.0000       0.099244         2.7006
  31   0.0000       0.117953         3.2097
  32   0.0000       0.121092         3.2951
  33   0.0000       0.128324         3.4919

MULLIKEN ATOMIC CHARGES
-----------------------
   0 C :   -0.534120
   1 C :   -0.250320
   2 C :    0.211189
   3 C :   -0.509331
   4 C :   -0.548646
   5 C :   -0.329245
   6 C :   -0.488175
   7 H :    0.156787
   8 H :    0.155292
   9 H :    0.146651
  10 H :    0.149627
  11 H :    0.144137
  12 H :    0.149700
  13 H :    0.154063
  14 H :    0.153679
  15 H :    0.160208
  16 H :    0.151356
  17 H :    0.160462
  18 H :    0.153609
  19 H :    0.152170
  20 H :    0.152119
  21 H :    0.162584
  22 H :    0.146204
Sum of atomic charges:   -0.0000000

LOEWDIN ATOMIC CHARGES
----------------------
   0 C :   -0.423946
   1 C :   -0.302004
   2 C :   -0.207338
   3 C :   -0.410813
   4 C :   -0.407087
   5 C :   -0.302258
   6 C :   -0.422661
   7 H :    0.149895
   8 H :    0.150628
   9 H :    0.151029
  10 H :    0.157455
  11 H :    0.156595
  12 H :    0.154877
  13 H :    0.156917
  14 H :    0.154031
  15 H :    0.157793
  16 H :    0.157701
  17 H :    0.156190
  18 H :    0.159007
  19 H :    0.159720
  20 H :    0.150817
  21 H :    0.152119
  22 H :    0.151333

  Mayer bond orders larger than 0.100000
B(  0-C ,  1-C ) :   0.8651 B(  0-C ,  7-H ) :   0.9908 B(  0-C ,  8-H ) :   0.9793
B(  0-C ,  9-H ) :   0.9680 B(  1-C ,  2-C ) :   0.8920 B(  1-C , 10-H ) :   0.9744
B(  1-C , 11-H ) :   0.9814 B(  2-C ,  3-C ) :   0.9365 B(  2-C ,  4-C ) :   0.9045
B(  2-C ,  5-C ) :   0.8487 B(  3-C , 12-H ) :   0.9788 B(  3-C , 13-H ) :   0.9789
B(  3-C , 14-H ) :   0.9780 B(  4-C , 15-H ) :   0.9820 B(  4-C , 16-H ) :   0.9740
B(  4-C , 17-H ) :   0.9676 B(  5-C ,  6-C ) :   0.8805 B(  5-C , 18-H ) :   0.9814
B(  5-C , 19-H ) :   0.9753 B(  6-C , 20-H ) :   0.9753 B(  6-C , 21-H ) :   0.9821
B(  6-C , 22-H ) :   0.9738

Dispersion correction           -0.006823373
FINAL SINGLE POINT ENERGY      -276.284530088865

DIPOLE MOMENT
-------------

Method             : SCF
Type of density    : Electron Density
Multiplicity       :   1
Irrep              :   0
Energy             :  -276.2891739795779813 Eh
Relativity type    :
Basis              : AO
                                X                 Y                 Z
Electronic contribution:      0.506351358      -0.663871761      -0.791577457
Nuclear contribution   :     -0.492115266       0.676616291       0.778846743
                        -----------------------------------------
Total Dipole Moment    :      0.014236092       0.012744529      -0.012730715
                        -----------------------------------------
Magnitude (a.u.)       :      0.022959974
Magnitude (Debye)      :      0.058359617

Rotational constants in cm-1:             0.082257             0.080936             0.057696
Rotational constants in MHz :          2465.996362          2426.406063          1729.675258

                             ****ORCA TERMINATED NORMALLY****
TOTAL RUN TIME: 0 days 0 hours 0 minutes 21 seconds 918 msec
