                         Program Version 6.0.0  -   RELEASE  -
|  1> ! r2scan-3c def2/J RI DEFGRID2 scfconv6 printgap
|  2> %output
|  3>     printlevel normal
|  4> end
|  5> %cpcm
|  6>     smd true
|  7>     smdsolvent "water"
|  8> end
|  9> * xyz 0 1
| 10> C 1.3945234115 1.4983871642 0.8402625086
| 11> C 1.4348201906 0.1697474505 0.0937883706
| 12> C 0.0847560872 -0.5361654061 -0.1463231845
| 13> C 0.3800311992 -1.7654812036 -1.0199296923
| 14> C -0.5055186066 -1.029487873 1.1763511797
| 15> C -0.9082324775 0.359183622 -0.9218121179
| 16> C -1.8363620849 1.2432956563 -0.0920017542
| 17> H 0.9040269793 1.396157844 1.8045129597
| 18> H 0.8798683368 2.258800891 0.2598089501
| 19> H 2.4113704554 1.8439473908 1.0163379334
| 20> H 1.908312744 0.3376601758 -0.8772922099
| 21> H 2.0757966513 -0.518715648 0.6507962906
| 22> H 1.1400678342 -2.3912413851 -0.5571010461
| 23> H 0.7393152597 -1.4607928843 -2.0006637756
| 24> H -0.5180727002 -2.3642105182 -1.1543434076
| 25> H -1.447232462 -1.5444481916 1.0006431792
| 26> H 0.1810640495 -1.7287922631 1.6491140629
| 27> H -0.6845405087 -0.2103831741 1.8655719896
| 28> H -0.3364225687 0.9882567953 -1.6081133753
| 29> H -1.5409854498 -0.2875608304 -1.5348936256
| 30> H -2.5250453945 0.6410699854 0.4940127928
| 31> H -1.2873546482 1.8922071105 0.5821779259
| 32> H -2.4247214397 1.869259905 -0.7603845068
| 33> *
| 34>
| 35>                          ****END OF INPUT****

CARTESIAN COORDINATES (ANGSTROEM)
---------------------------------
  C      1.394523    1.498387    0.840263
  C      1.434820    0.169747    0.093788
  C      0.084756   -0.536165   -0.146323
  C      0.380031   -1.765481   -1.019930
  C     -0.505519   -1.029488    1.176351
  C     -0.908232    0.359184   -0.921812
  C     -1.836362    1.243296   -0.092002
  H      0.904027    1.396158    1.804513
  H      0.879868    2.258801    0.259809
  H      2.411370    1.843947    1.016338
  H      1.908313    0.337660   -0.877292
  H      2.075797   -0.518716    0.650796
  H      1.140068   -2.391241   -0.557101
  H      0.739315   -1.460793   -2.000664
  H     -0.518073   -2.364211   -1.154343
  H     -1.447232   -1.544448    1.000643
  H      0.181064   -1.728792    1.649114
  H     -0.684541   -0.210383    1.865572
  H     -0.336423    0.988257   -1.608113
  H     -1.540985   -0.287561   -1.534894
  H     -2.525045    0.641070    0.494013
  H     -1.287355    1.892207    0.582178
  H     -2.424721    1.869260   -0.760385

 Total Charge           Charge          ....    0
 Multiplicity           Mult            ....    1
 Number of Electrons    NEL             ....   58
 Basis Dimension        Dim             ....  213

ORBITAL ENERGIES
----------------

  NO   OCC          E(Eh)            E(eV)
   0   2.0000     -10.029439      -272.9149
   1   2.0000     -10.012418      -272.4517
   2   2.0000     -10.011831      -272.4358
   3   2.0000     -10.005414      -272.2612
   4   2.0000     -10.004831      -272.2453
   5   2.0000     -10.003059      -272.1971
   6   2.0000     -10.002707      -272.1875
   7   2.0000      -0.785164       -21.3654
   8   2.0000      -0.704379       -19.1671
   9   2.0000      -0.686559       -18.6822
  10   2.0000      -0.641727       -17.4623
  11   2.0000      -0.589152       -16.0316
  12   2.0000      -0.569075       -15.4853
  13   2.0000      -0.482317       -13.1245
  14   2.0000      -0.427124       -11.6226
  15   2.0000      -0.418506       -11.3881
  16   2.0000      -0.403502       -10.9798
  17   2.0000      -0.381059       -10.3691
  18   2.0000      -0.365665        -9.9502
  19   2.0000      -0.361393        -9.8340
  20   2.0000      -0.341867        -9.3027
  21   2.0000      -0.337069        -9.1721
  22   2.0000      -0.321661        -8.7528
  23   2.0000      -0.319039        -8.6815
  24   2.0000      -0.304479        -8.2853
  25   2.0000      -0.296118        -8.0578
  26   2.0000      -0.271108        -7.3772
  27   2.0000      -0.267521        -7.2796
  28   2.0000      -0.260027        -7.0757
  29   0.0000       0.086851         2.3633
  30   0.0000       0.106492         2.8978
  31   0.0000       0.125294         3.4094
  32   0.0000       0.129673         3.5286
  33   0.0000       0.134665         3.6644

MULLIKEN ATOMIC CHARGES
-----------------------
   0 C :   -0.565257
   1 C :   -0.271111
   2 C :    0.254684
   3 C :   -0.558708
   4 C :   -0.590254
   5 C :   -0.341695
   6 C :   -0.523041
   7 H :    0.166941
   8 H :    0.164688
   9 H :    0.155020
  10 H :    0.156756
  11 H :    0.153576
  12 H :    0.160870
  13 H :    0.163359
  14 H :    0.164806
  15 H :    0.170976
  16 H :    0.161874
  17 H :    0.170369
  18 H :    0.162177
  19 H :    0.158219
  20 H :    0.160404
  21 H :    0.170550
  22 H :    0.154796
Sum of atomic charges:    0.0000000

LOEWDIN ATOMIC CHARGES
----------------------
   0 C :   -0.431385
   1 C :   -0.304645
   2 C :   -0.203125
   3 C :   -0.419659
   4 C :   -0.414836
   5 C :   -0.304103
   6 C :   -0.429915
   7 H :    0.152823
   8 H :    0.153288
   9 H :    0.152306
  10 H :    0.159020
  11 H :    0.158331
  12 H :    0.156888
  13 H :    0.158528
  14 H :    0.156517
  15 H :    0.160211
  16 H :    0.159551
  17 H :    0.158670
  18 H :    0.161126
  19 H :    0.160828
  20 H :    0.152477
  21 H :    0.154224
  22 H :    0.152879

  Mayer bond orders larger than 0.100000
B(  0-C ,  1-C ) :   0.8634 B(  0-C ,  7-H ) :   0.9866 B(  0-C ,  8-H ) :   0.9766
B(  0-C ,  9-H ) :   0.9665 B(  1-C ,  2-C ) :   0.8836 B(  1-C , 10-H ) :   0.9747
B(  1-C , 11-H ) :   0.9828 B(  2-C ,  3-C ) :   0.9196 B(  2-C ,  4-C ) :   0.8961
B(  2-C ,  5-C ) :   0.8474 B(  3-C , 12-H ) :   0.9788 B(  3-C , 13-H ) :   0.9775
B(  3-C , 14-H ) :   0.9760 B(  4-C , 15-H ) :   0.9788 B(  4-C , 16-H ) :   0.9738
B(  4-C , 17-H ) :   0.9651 B(  5-C ,  6-C ) :   0.8735 B(  5-C , 18-H ) :   0.9811
B(  5-C , 19-H ) :   0.9765 B(  6-C , 20-H ) :   0.9743 B(  6-C , 21-H ) :   0.9798
B(  6-C , 22-H ) :   0.9720

Dispersion correction           -0.006823373
FINAL SINGLE POINT ENERGY      -276.280894784461

DIPOLE MOMENT
-------------

Method             : SCF
Type of density    : Electron Density
Multiplicity       :   1
Irrep              :   0
Energy             :  -276.2855386751737115 Eh
Relativity type    :
Basis              : AO
                                X                 Y                 Z
Electronic contribution:      0.502525214      -0.656140140      -0.791177960
Nuclear contribution   :     -0.492115266       0.676616291       0.778846743
                        -----------------------------------------
Total Dipole Moment    :      0.010409948       0.020476151      -0.012331218
                        -----------------------------------------
Magnitude (a.u.)       :      0.026071032
Magnitude (Debye)      :      0.066267297

Rotational constants in cm-1:             0.082257             0.080936             0.057696
Rotational constants in MHz :          2465.996362          2426.406063          1729.675258

                             ****ORCA TERMINATED NORMALLY****
TOTAL RUN TIME: 0 days 0 hours 0 minutes 27 seconds 850 msec
