                         Program Version 6.0.0  -   RELEASE  -
|  1> ! pbe def2-sv(p) def2/J RI DEFGRID1 loosescf d4 GCP(DFT/SV(P)) printgap
|  2> %output
|  3>     printlevel normal
|  4> end
|  5> * xyz 0 1
|  6> C -2.7522807735 -0.3642313916 -0.0321320313
|  7> C -1.3036223024 -0.463497794 0.4319298659
|  8> C -0.3707272721 0.2813037211 -0.5279093761
|  9> C 1.0745182621 0.2892667049 -0.0986819027
| 10> O 1.7239506675 1.3184895676 -0.0693444793
| 11> C 1.6659870419 -1.0362231658 0.278273953
| 12> H -3.069531589 0.6747949593 -0.0801473337
| 13> H -3.4064860472 -0.8907414688 0.6578135864
| 14> H -2.8676285581 -0.8036567848 -1.0199745414
| 15> H -1.0183351259 -1.5135881969 0.489472389
| 16> H -1.2120251497 -0.0294464911 1.4295825246
| 17> H -0.4140058427 -0.195368413 -1.5106297137
| 18> H -0.6991036097 1.3167003551 -0.6415769088
| 19> H 2.7503417749 -0.9681431074 0.2917087441
| 20> H 1.3413902109 -1.8126445525 -0.4070890014
| 21> H 1.3225534728 -1.2946787382 1.2781224789
| 22> *
| 23>
| 24>                          ****END OF INPUT****

CARTESIAN COORDINATES (ANGSTROEM)
---------------------------------
  C     -2.752281   -0.364231   -0.032132
  C     -1.303622   -0.463498    0.431930
  C     -0.370727    0.281304   -0.527909
  C      1.074518    0.289267   -0.098682
  O      1.723951    1.318490   -0.069344
  C      1.665987   -1.036223    0.278274
  H     -3.069532    0.674795   -0.080147
  H     -3.406486   -0.890741    0.657814
  H     -2.867629   -0.803657   -1.019975
  H     -1.018335   -1.513588    0.489472
  H     -1.212025   -0.029446    1.429583
  H     -0.414006   -0.195368   -1.510630
  H     -0.699104    1.316700   -0.641577
  H      2.750342   -0.968143    0.291709
  H      1.341390   -1.812645   -0.407089
  H      1.322553   -1.294679    1.278122

 Total Charge           Charge          ....    0
 Multiplicity           Mult            ....    1
 Number of Electrons    NEL             ....   48
 Basis Dimension        Dim             ....  104

ORBITAL ENERGIES
----------------

  NO   OCC          E(Eh)            E(eV)
   0   2.0000     -18.732385      -509.7341
   1   2.0000      -9.970148      -271.3015
   2   2.0000      -9.900582      -269.4085
   3   2.0000      -9.891530      -269.1622
   4   2.0000      -9.886051      -269.0131
   5   2.0000      -9.883317      -268.9387
   6   2.0000      -0.929417       -25.2907
   7   2.0000      -0.729822       -19.8595
   8   2.0000      -0.672816       -18.3083
   9   2.0000      -0.625317       -17.0157
  10   2.0000      -0.541849       -14.7445
  11   2.0000      -0.470412       -12.8006
  12   2.0000      -0.435810       -11.8590
  13   2.0000      -0.414119       -11.2687
  14   2.0000      -0.401182       -10.9167
  15   2.0000      -0.383936       -10.4474
  16   2.0000      -0.366223        -9.9654
  17   2.0000      -0.347659        -9.4603
  18   2.0000      -0.337582        -9.1861
  19   2.0000      -0.322482        -8.7752
  20   2.0000      -0.315870        -8.5953
  21   2.0000      -0.301553        -8.2057
  22   2.0000      -0.295287        -8.0352
  23   2.0000      -0.190352        -5.1797
  24   0.0000      -0.046726        -1.2715
  25   0.0000       0.028378         0.7722
  26   0.0000       0.057463         1.5636
  27   0.0000       0.067994         1.8502
  28   0.0000       0.079159         2.1540

MULLIKEN ATOMIC CHARGES
-----------------------
   0 C :   -0.257044
   1 C :   -0.227943
   2 C :   -0.150765
   3 C :   -0.010326
   4 O :   -0.167362
   5 C :   -0.264712
   6 H :    0.105076
   7 H :    0.107081
   8 H :    0.099344
   9 H :    0.096173
  10 H :    0.101544
  11 H :    0.105916
  12 H :    0.091829
  13 H :    0.119468
  14 H :    0.116852
  15 H :    0.134869
Sum of atomic charges:    0.0000000

LOEWDIN ATOMIC CHARGES
----------------------
   0 C :   -0.337808
   1 C :   -0.232854
   2 C :   -0.248605
   3 C :    0.038723
   4 O :   -0.134169
   5 C :   -0.363292
   6 H :    0.120476
   7 H :    0.121219
   8 H :    0.118470
   9 H :    0.116700
  10 H :    0.120346
  11 H :    0.135830
  12 H :    0.128121
  13 H :    0.136145
  14 H :    0.133520
  15 H :    0.147176

  Mayer bond orders larger than 0.100000
B(  0-C ,  1-C ) :   1.1565 B(  0-C ,  6-H ) :   0.9541 B(  0-C ,  7-H ) :   0.9522
B(  0-C ,  8-H ) :   0.9543 B(  1-C ,  2-C ) :   1.1104 B(  1-C ,  9-H ) :   0.9143
B(  1-C , 10-H ) :   0.9302 B(  2-C ,  3-C ) :   1.0135 B(  2-C , 11-H ) :   0.8903
B(  2-C , 12-H ) :   0.9065 B(  3-C ,  4-O ) :   2.1995 B(  3-C ,  5-C ) :   1.0523
B(  5-C , 13-H ) :   0.9310 B(  5-C , 14-H ) :   0.9324 B(  5-C , 15-H ) :   0.9167

Dispersion correction           -0.011048283
FINAL SINGLE POINT ENERGY      -271.141444573454

DIPOLE MOMENT
-------------

Method             : SCF
Type of density    : Electron Density
Multiplicity       :   1
Irrep              :   0
Energy             :  -271.1960115530884536 Eh
Relativity type    :
Basis              : AO
                                X                 Y                 Z
Electronic contribution:      6.154551116       4.254179420      -0.432036969
Nuclear contribution   :     -6.797530259      -5.156075096       0.456123438
                        -----------------------------------------
Total Dipole Moment    :     -0.642979143      -0.901895676       0.024086469
                        -----------------------------------------
Magnitude (a.u.)       :      1.107889049
Magnitude (Debye)      :      2.816030170

Rotational constants in cm-1:             0.248260             0.062549             0.053723
Rotational constants in MHz :          7442.659612          1875.165668          1610.588282

                             ****ORCA TERMINATED NORMALLY****
TOTAL RUN TIME: 0 days 0 hours 0 minutes 7 seconds 785 msec
