                         Program Version 6.0.0  -   RELEASE  -
|  1> ! r2scan-3c def2/J RI DEFGRID2 scfconv6 printgap
|  2> %output
|  3>     printlevel normal
|  4> end
|  5> * xyz 0 1
|  6> C -1.293827203 0.0197843497 0.5898569871
|  7> C 0.0918311115 0.6839269317 0.6420123907
|  8> C 1.2136596344 -0.3751797794 0.683405763
|  9> O 1.226109236 -1.1893144954 -0.4703866793
| 10> O 0.2611553652 1.5334104278 -0.4751954392
| 11> O -1.515998326 -0.574967931 -0.6677986594
| 12> H -2.0727484099 0.7768911912 0.7063785657
| 13> H -1.3854433395 -0.7123705006 1.4000348741
| 14> H 0.1719535635 1.304090281 1.5410062735
| 15> H 1.0525376749 -1.0427064626 1.5317561376
| 16> H 2.1771012916 0.1305704149 0.807554107
| 17> H 1.5223327769 -0.6494856398 -1.2175185882
| 18> H -0.3173440988 1.1977762829 -1.1816121666
| 19> H -0.831272836 -1.2548700666 -0.800462693
| 20> *
| 21>
| 22>                          ****END OF INPUT****

CARTESIAN COORDINATES (ANGSTROEM)
---------------------------------
  C     -1.293827    0.019784    0.589857
  C      0.091831    0.683927    0.642012
  C      1.213660   -0.375180    0.683406
  O      1.226109   -1.189314   -0.470387
  O      0.261155    1.533410   -0.475195
  O     -1.515998   -0.574968   -0.667799
  H     -2.072748    0.776891    0.706379
  H     -1.385443   -0.712371    1.400035
  H      0.171954    1.304090    1.541006
  H      1.052538   -1.042706    1.531756
  H      2.177101    0.130570    0.807554
  H      1.522333   -0.649486   -1.217519
  H     -0.317344    1.197776   -1.181612
  H     -0.831273   -1.254870   -0.800463

 Total Charge           Charge          ....    0
 Multiplicity           Mult            ....    1
 Number of Electrons    NEL             ....   50
 Basis Dimension        Dim             ....  169

ORBITAL ENERGIES
----------------

  NO   OCC          E(Eh)            E(eV)
   0   2.0000     -18.970193      -516.2052
   1   2.0000     -18.953946      -515.7631
   2   2.0000     -18.953141      -515.7412
   3   2.0000     -10.087966      -274.5075
   4   2.0000     -10.086102      -274.4568
   5   2.0000     -10.083045      -274.3736
   6   2.0000      -1.017829       -27.6965
   7   2.0000      -0.994108       -27.0511
   8   2.0000      -0.977804       -26.6074
   9   2.0000      -0.728882       -19.8339
  10   2.0000      -0.650680       -17.7059
  11   2.0000      -0.580228       -15.7888
  12   2.0000      -0.503608       -13.7039
  13   2.0000      -0.484700       -13.1894
  14   2.0000      -0.462214       -12.5775
  15   2.0000      -0.445184       -12.1141
  16   2.0000      -0.417436       -11.3590
  17   2.0000      -0.392511       -10.6808
  18   2.0000      -0.373874       -10.1736
  19   2.0000      -0.330679        -8.9982
  20   2.0000      -0.326996        -8.8980
  21   2.0000      -0.300904        -8.1880
  22   2.0000      -0.270299        -7.3552
  23   2.0000      -0.255565        -6.9543
  24   2.0000      -0.227663        -6.1950
  25   0.0000       0.031909         0.8683
  26   0.0000       0.085882         2.3370
  27   0.0000       0.089467         2.4345
  28   0.0000       0.112203         3.0532
  29   0.0000       0.121450         3.3048

MULLIKEN ATOMIC CHARGES
-----------------------
   0 C :   -0.212225
   1 C :    0.066656
   2 C :   -0.183808
   3 O :   -0.450878
   4 O :   -0.442798
   5 O :   -0.457665
   6 H :    0.152243
   7 H :    0.130263
   8 H :    0.146935
   9 H :    0.136647
  10 H :    0.145433
  11 H :    0.318398
  12 H :    0.324027
  13 H :    0.326771
Sum of atomic charges:    0.0000000

LOEWDIN ATOMIC CHARGES
----------------------
   0 C :    0.019549
   1 C :    0.059505
   2 C :    0.017617
   3 O :   -0.609852
   4 O :   -0.585924
   5 O :   -0.613618
   6 H :    0.182265
   7 H :    0.164576
   8 H :    0.183654
   9 H :    0.179919
  10 H :    0.168697
  11 H :    0.273280
  12 H :    0.281235
  13 H :    0.279098

  Mayer bond orders larger than 0.100000
B(  0-C ,  1-C ) :   0.9392 B(  0-C ,  5-O ) :   0.9793 B(  0-C ,  6-H ) :   0.9720
B(  0-C ,  7-H ) :   0.9744 B(  1-C ,  2-C ) :   0.9281 B(  1-C ,  4-O ) :   0.9308
B(  1-C ,  8-H ) :   0.9307 B(  2-C ,  3-O ) :   0.9640 B(  2-C ,  9-H ) :   0.9684
B(  2-C , 10-H ) :   0.9724 B(  3-O , 11-H ) :   0.8797 B(  4-O , 12-H ) :   0.8515
B(  5-O , 13-H ) :   0.8482

Dispersion correction           -0.003168856
FINAL SINGLE POINT ENERGY      -344.729812963822

DIPOLE MOMENT
-------------

Method             : SCF
Type of density    : Electron Density
Multiplicity       :   1
Irrep              :   0
Energy             :  -344.7381635984891091 Eh
Relativity type    :
Basis              : AO
                                X                 Y                 Z
Electronic contribution:     -0.008287809       0.127731749      -2.210480544
Nuclear contribution   :      0.297083638      -0.238070140       2.590856413
                        -----------------------------------------
Total Dipole Moment    :      0.288795830      -0.110338390       0.380375869
                        -----------------------------------------
Magnitude (a.u.)       :      0.490166700
Magnitude (Debye)      :      1.245904737

Rotational constants in cm-1:             0.142796             0.107635             0.085548
Rotational constants in MHz :          4280.925622          3226.819897          2564.673346

                             ****ORCA TERMINATED NORMALLY****
TOTAL RUN TIME: 0 days 0 hours 0 minutes 21 seconds 985 msec
