                         Program Version 6.0.0  -   RELEASE  -
|  1> ! r2scan-3c def2/J RI DEFGRID2 scfconv6 printgap
|  2> %output
|  3>     printlevel normal
|  4> end
|  5> %cpcm
|  6>     smd true
|  7>     smdsolvent "water"
|  8> end
|  9> * xyz 0 1
| 10> C -1.293827203 0.0197843497 0.5898569871
| 11> C 0.0918311115 0.6839269317 0.6420123907
| 12> C 1.2136596344 -0.3751797794 0.683405763
| 13> O 1.226109236 -1.1893144954 -0.4703866793
| 14> O 0.2611553652 1.5334104278 -0.4751954392
| 15> O -1.515998326 -0.574967931 -0.6677986594
| 16> H -2.0727484099 0.7768911912 0.7063785657
| 17> H -1.3854433395 -0.7123705006 1.4000348741
| 18> H 0.1719535635 1.304090281 1.5410062735
| 19> H 1.0525376749 -1.0427064626 1.5317561376
| 20> H 2.1771012916 0.1305704149 0.807554107
| 21> H 1.5223327769 -0.6494856398 -1.2175185882
| 22> H -0.3173440988 1.1977762829 -1.1816121666
| 23> H -0.831272836 -1.2548700666 -0.800462693
| 24> *
| 25>
| 26>                          ****END OF INPUT****

CARTESIAN COORDINATES (ANGSTROEM)
---------------------------------
  C     -1.293827    0.019784    0.589857
  C      0.091831    0.683927    0.642012
  C      1.213660   -0.375180    0.683406
  O      1.226109   -1.189314   -0.470387
  O      0.261155    1.533410   -0.475195
  O     -1.515998   -0.574968   -0.667799
  H     -2.072748    0.776891    0.706379
  H     -1.385443   -0.712371    1.400035
  H      0.171954    1.304090    1.541006
  H      1.052538   -1.042706    1.531756
  H      2.177101    0.130570    0.807554
  H      1.522333   -0.649486   -1.217519
  H     -0.317344    1.197776   -1.181612
  H     -0.831273   -1.254870   -0.800463

 Total Charge           Charge          ....    0
 Multiplicity           Mult            ....    1
 Number of Electrons    NEL             ....   50
 Basis Dimension        Dim             ....  169

ORBITAL ENERGIES
----------------

  NO   OCC          E(Eh)            E(eV)
   0   2.0000     -18.958771      -515.8944
   1   2.0000     -18.953496      -515.7508
   2   2.0000     -18.953373      -515.7475
   3   2.0000     -10.077771      -274.2301
   4   2.0000     -10.072457      -274.0855
   5   2.0000     -10.070930      -274.0440
   6   2.0000      -1.011699       -27.5297
   7   2.0000      -0.986677       -26.8488
   8   2.0000      -0.976855       -26.5816
   9   2.0000      -0.717770       -19.5315
  10   2.0000      -0.639353       -17.3977
  11   2.0000      -0.571205       -15.5433
  12   2.0000      -0.495948       -13.4954
  13   2.0000      -0.473420       -12.8824
  14   2.0000      -0.455386       -12.3917
  15   2.0000      -0.437291       -11.8993
  16   2.0000      -0.407890       -11.0993
  17   2.0000      -0.384778       -10.4703
  18   2.0000      -0.364824        -9.9274
  19   2.0000      -0.328769        -8.9463
  20   2.0000      -0.322110        -8.7651
  21   2.0000      -0.298975        -8.1355
  22   2.0000      -0.266195        -7.2435
  23   2.0000      -0.252405        -6.8683
  24   2.0000      -0.222978        -6.0676
  25   0.0000       0.046427         1.2634
  26   0.0000       0.102439         2.7875
  27   0.0000       0.108027         2.9396
  28   0.0000       0.121909         3.3173
  29   0.0000       0.137974         3.7545

MULLIKEN ATOMIC CHARGES
-----------------------
   0 C :   -0.218473
   1 C :    0.064916
   2 C :   -0.190972
   3 O :   -0.501532
   4 O :   -0.505084
   5 O :   -0.515015
   6 H :    0.164443
   7 H :    0.153163
   8 H :    0.166916
   9 H :    0.157851
  10 H :    0.156935
  11 H :    0.357098
  12 H :    0.355362
  13 H :    0.354392
Sum of atomic charges:   -0.0000000

LOEWDIN ATOMIC CHARGES
----------------------
   0 C :    0.021559
   1 C :    0.064263
   2 C :    0.019256
   3 O :   -0.628102
   4 O :   -0.617269
   5 O :   -0.642820
   6 H :    0.186183
   7 H :    0.176034
   8 H :    0.193248
   9 H :    0.188493
  10 H :    0.173489
  11 H :    0.287275
  12 H :    0.291074
  13 H :    0.287316

  Mayer bond orders larger than 0.100000
B(  0-C ,  1-C ) :   0.9519 B(  0-C ,  5-O ) :   0.9588 B(  0-C ,  6-H ) :   0.9653
B(  0-C ,  7-H ) :   0.9656 B(  1-C ,  2-C ) :   0.9453 B(  1-C ,  4-O ) :   0.9124
B(  1-C ,  8-H ) :   0.9250 B(  2-C ,  3-O ) :   0.9505 B(  2-C ,  9-H ) :   0.9626
B(  2-C , 10-H ) :   0.9637 B(  3-O , 11-H ) :   0.8601 B(  4-O , 12-H ) :   0.8386
B(  5-O , 13-H ) :   0.8359

Dispersion correction           -0.003168856
FINAL SINGLE POINT ENERGY      -344.745954904774

DIPOLE MOMENT
-------------

Method             : SCF
Type of density    : Electron Density
Multiplicity       :   1
Irrep              :   0
Energy             :  -344.7543055394411908 Eh
Relativity type    :
Basis              : AO
                                X                 Y                 Z
Electronic contribution:      0.068996949       0.083058910      -2.041721436
Nuclear contribution   :      0.297083638      -0.238070140       2.590856413
                        -----------------------------------------
Total Dipole Moment    :      0.366080587      -0.155011230       0.549134977
                        -----------------------------------------
Magnitude (a.u.)       :      0.677932667
Magnitude (Debye)      :      1.723167897

Rotational constants in cm-1:             0.142796             0.107635             0.085548
Rotational constants in MHz :          4280.925622          3226.819897          2564.673346

                             ****ORCA TERMINATED NORMALLY****
TOTAL RUN TIME: 0 days 0 hours 0 minutes 24 seconds 226 msec
