                         Program Version 6.0.0  -   RELEASE  -
|  1> ! pbe def2-sv(p) def2/J RI DEFGRID1 loosescf d4 GCP(DFT/SV(P)) printgap
|  2> %output
|  3>     printlevel normal
|  4> end
|  5> * xyz 0 1
|  6> C -1.655945193 1.2057515964 0.7073289004
|  7> C -1.3875299721 0.037589569 -0.2323027025
|  8> C -0.0088829694 -0.6085543982 -0.0409166365
|  9> C 1.1603052545 0.3313251567 -0.3939383035
| 10> C 1.8152613171 0.9666468357 0.8276448546
| 11> O 0.0645373956 -1.8159296251 -0.7876780076
| 12> H -0.9905307742 2.0375590149 0.4944106774
| 13> H -2.6798760685 1.5500028482 0.5848524467
| 14> H -1.5169201307 0.9019964768 1.7420670806
| 15> H -2.1385999501 -0.7390034069 -0.0675430765
| 16> H -1.4781491417 0.375185226 -1.268388837
| 17> H 0.0936242557 -0.9385816025 0.9991578871
| 18> H 1.9132685428 -0.2620359834 -0.9182422741
| 19> H 0.813752518 1.110956338 -1.0753303111
| 20> H 1.1034684698 1.5623573667 1.3913384777
| 21> H 2.2137943715 0.1970298701 1.4846135089
| 22> H 2.6347332869 1.6107190637 0.517621574
| 23> H -0.0779176417 -1.6125360579 -1.7226004255
| 24> *
| 25>
| 26>                          ****END OF INPUT****

CARTESIAN COORDINATES (ANGSTROEM)
---------------------------------
  C     -1.655945    1.205752    0.707329
  C     -1.387530    0.037590   -0.232303
  C     -0.008883   -0.608554   -0.040917
  C      1.160305    0.331325   -0.393938
  C      1.815261    0.966647    0.827645
  O      0.064537   -1.815930   -0.787678
  H     -0.990531    2.037559    0.494411
  H     -2.679876    1.550003    0.584852
  H     -1.516920    0.901996    1.742067
  H     -2.138600   -0.739003   -0.067543
  H     -1.478149    0.375185   -1.268389
  H      0.093624   -0.938582    0.999158
  H      1.913269   -0.262036   -0.918242
  H      0.813753    1.110956   -1.075330
  H      1.103468    1.562357    1.391338
  H      2.213794    0.197030    1.484614
  H      2.634733    1.610719    0.517622
  H     -0.077918   -1.612536   -1.722600

 Total Charge           Charge          ....    0
 Multiplicity           Mult            ....    1
 Number of Electrons    NEL             ....   50
 Basis Dimension        Dim             ....  108

ORBITAL ENERGIES
----------------

  NO   OCC          E(Eh)            E(eV)
   0   2.0000     -18.733458      -509.7633
   1   2.0000      -9.930948      -270.2348
   2   2.0000      -9.883736      -268.9501
   3   2.0000      -9.881186      -268.8807
   4   2.0000      -9.878171      -268.7987
   5   2.0000      -9.875373      -268.7226
   6   2.0000      -0.911711       -24.8089
   7   2.0000      -0.714863       -19.4524
   8   2.0000      -0.675076       -18.3698
   9   2.0000      -0.599834       -16.3223
  10   2.0000      -0.546507       -14.8712
  11   2.0000      -0.524559       -14.2740
  12   2.0000      -0.441020       -12.0008
  13   2.0000      -0.414655       -11.2833
  14   2.0000      -0.401238       -10.9182
  15   2.0000      -0.375853       -10.2275
  16   2.0000      -0.363409        -9.8889
  17   2.0000      -0.343267        -9.3408
  18   2.0000      -0.338140        -9.2013
  19   2.0000      -0.314318        -8.5530
  20   2.0000      -0.310701        -8.4546
  21   2.0000      -0.302539        -8.2325
  22   2.0000      -0.279441        -7.6040
  23   2.0000      -0.260338        -7.0842
  24   2.0000      -0.206025        -5.6062
  25   0.0000       0.034688         0.9439
  26   0.0000       0.039585         1.0772
  27   0.0000       0.067651         1.8409
  28   0.0000       0.068403         1.8614
  29   0.0000       0.083329         2.2675

MULLIKEN ATOMIC CHARGES
-----------------------
   0 C :   -0.289240
   1 C :   -0.184580
   2 C :    0.043835
   3 C :   -0.168417
   4 C :   -0.295617
   5 O :   -0.428448
   6 H :    0.112761
   7 H :    0.105190
   8 H :    0.104742
   9 H :    0.092566
  10 H :    0.070907
  11 H :    0.066464
  12 H :    0.085347
  13 H :    0.078939
  14 H :    0.105907
  15 H :    0.107593
  16 H :    0.102751
  17 H :    0.289301
Sum of atomic charges:    0.0000000

LOEWDIN ATOMIC CHARGES
----------------------
   0 C :   -0.342309
   1 C :   -0.246009
   2 C :   -0.051860
   3 C :   -0.250714
   4 C :   -0.340701
   5 O :   -0.329814
   6 H :    0.117827
   7 H :    0.122245
   8 H :    0.119449
   9 H :    0.118324
  10 H :    0.108549
  11 H :    0.109843
  12 H :    0.119847
  13 H :    0.111382
  14 H :    0.116233
  15 H :    0.119912
  16 H :    0.119951
  17 H :    0.277844

  Mayer bond orders larger than 0.100000
B(  0-C ,  1-C ) :   1.1412 B(  0-C ,  6-H ) :   0.9439 B(  0-C ,  7-H ) :   0.9460
B(  0-C ,  8-H ) :   0.9518 B(  1-C ,  2-C ) :   1.0940 B(  1-C ,  9-H ) :   0.9200
B(  1-C , 10-H ) :   0.9114 B(  2-C ,  3-C ) :   1.0299 B(  2-C ,  5-O ) :   1.0404
B(  2-C , 11-H ) :   0.9095 B(  3-C ,  4-C ) :   1.1519 B(  3-C , 12-H ) :   0.9181
B(  3-C , 13-H ) :   0.9180 B(  4-C , 14-H ) :   0.9486 B(  4-C , 15-H ) :   0.9524
B(  4-C , 16-H ) :   0.9494 B(  5-O , 17-H ) :   0.8559

Dispersion correction           -0.012881226
FINAL SINGLE POINT ENERGY      -272.301402830923

DIPOLE MOMENT
-------------

Method             : SCF
Type of density    : Electron Density
Multiplicity       :   1
Irrep              :   0
Energy             :  -272.3710456404731985 Eh
Relativity type    :
Basis              : AO
                                X                 Y                 Z
Electronic contribution:     -0.012853754      -4.876368449      -2.281506873
Nuclear contribution   :     -0.101632551       5.408441695       2.016579671
                        -----------------------------------------
Total Dipole Moment    :     -0.114486305       0.532073246      -0.264927203
                        -----------------------------------------
Magnitude (a.u.)       :      0.605306101
Magnitude (Debye)      :      1.538565836

Rotational constants in cm-1:             0.114207             0.103578             0.060506
Rotational constants in MHz :          3423.848853          3105.177919          1813.926051

                             ****ORCA TERMINATED NORMALLY****
TOTAL RUN TIME: 0 days 0 hours 0 minutes 8 seconds 247 msec
