                         Program Version 6.0.0  -   RELEASE  -
|  1> ! pbe def2-sv(p) def2/J RI DEFGRID1 loosescf d4 GCP(DFT/SV(P)) printgap
|  2> %output
|  3>     printlevel normal
|  4> end
|  5> * xyz 0 1
|  6> C 2.0219554077 1.2515454656 0.1015036881
|  7> C 1.532944964 0.1638441487 -0.8480276965
|  8> C 0.2804904852 -0.6126627393 -0.4057109951
|  9> H 0.0629659356 -1.3012417584 -1.2323305165
| 10> C 0.5629572228 -1.4766385378 0.8222939972
| 11> C -0.9666880234 0.2896625607 -0.2504037516
| 12> C -2.2206536645 -0.4566368246 -0.7114510571
| 13> C -1.1987413119 0.814937912 1.1666286294
| 14> H 1.2933826307 2.05322089 0.1850476555
| 15> H 2.2200416895 0.8491822267 1.0912109166
| 16> H 2.9476596453 1.6779585503 -0.2795574754
| 17> H 2.339588097 -0.5594586753 -0.9937360598
| 18> H 1.3275191344 0.6195238891 -1.8203723334
| 19> H -0.3114079237 -2.0691685403 1.0798993864
| 20> H 1.3828646144 -2.1596176478 0.6097868301
| 21> H 0.836082619 -0.8742746423 1.682930381
| 22> H -0.8313881725 1.1517170963 -0.914007818
| 23> H -2.3724304864 -1.3524451007 -0.113262879
| 24> H -2.1353922146 -0.7506029914 -1.7552782633
| 25> H -3.0991981692 0.1759360988 -0.6058104086
| 26> H -2.0104519822 1.5399031533 1.1559944188
| 27> H -0.3154952314 1.3026530526 1.5657325054
| 28> H -1.4805013879 0.0059331746 1.8353530902
| 29> *
| 30>
| 31>                          ****END OF INPUT****

CARTESIAN COORDINATES (ANGSTROEM)
---------------------------------
  C      2.021955    1.251545    0.101504
  C      1.532945    0.163844   -0.848028
  C      0.280490   -0.612663   -0.405711
  H      0.062966   -1.301242   -1.232331
  C      0.562957   -1.476639    0.822294
  C     -0.966688    0.289663   -0.250404
  C     -2.220654   -0.456637   -0.711451
  C     -1.198741    0.814938    1.166629
  H      1.293383    2.053221    0.185048
  H      2.220042    0.849182    1.091211
  H      2.947660    1.677959   -0.279557
  H      2.339588   -0.559459   -0.993736
  H      1.327519    0.619524   -1.820372
  H     -0.311408   -2.069169    1.079899
  H      1.382865   -2.159618    0.609787
  H      0.836083   -0.874275    1.682930
  H     -0.831388    1.151717   -0.914008
  H     -2.372430   -1.352445   -0.113263
  H     -2.135392   -0.750603   -1.755278
  H     -3.099198    0.175936   -0.605810
  H     -2.010452    1.539903    1.155994
  H     -0.315495    1.302653    1.565733
  H     -1.480501    0.005933    1.835353

 Total Charge           Charge          ....    0
 Multiplicity           Mult            ....    1
 Number of Electrons    NEL             ....   58
 Basis Dimension        Dim             ....  130

ORBITAL ENERGIES
----------------

  NO   OCC          E(Eh)            E(eV)
   0   2.0000      -9.888163      -269.0706
   1   2.0000      -9.886056      -269.0132
   2   2.0000      -9.877899      -268.7913
   3   2.0000      -9.869447      -268.5613
   4   2.0000      -9.868132      -268.5255
   5   2.0000      -9.868064      -268.5237
   6   2.0000      -9.867152      -268.4989
   7   2.0000      -0.740042       -20.1376
   8   2.0000      -0.682407       -18.5692
   9   2.0000      -0.639458       -17.4005
  10   2.0000      -0.606853       -16.5133
  11   2.0000      -0.573242       -15.5987
  12   2.0000      -0.523257       -14.2386
  13   2.0000      -0.468159       -12.7393
  14   2.0000      -0.414158       -11.2698
  15   2.0000      -0.411169       -11.1885
  16   2.0000      -0.404905       -11.0180
  17   2.0000      -0.373732       -10.1698
  18   2.0000      -0.350833        -9.5467
  19   2.0000      -0.343674        -9.3518
  20   2.0000      -0.337795        -9.1919
  21   2.0000      -0.333039        -9.0624
  22   2.0000      -0.326876        -8.8948
  23   2.0000      -0.313484        -8.5303
  24   2.0000      -0.297095        -8.0844
  25   2.0000      -0.288808        -7.8589
  26   2.0000      -0.267804        -7.2873
  27   2.0000      -0.262968        -7.1557
  28   2.0000      -0.256576        -6.9818
  29   0.0000       0.029694         0.8080
  30   0.0000       0.060491         1.6460
  31   0.0000       0.063619         1.7311
  32   0.0000       0.066114         1.7990
  33   0.0000       0.088392         2.4053

MULLIKEN ATOMIC CHARGES
-----------------------
   0 C :   -0.293854
   1 C :   -0.155223
   2 C :   -0.126439
   3 H :    0.060994
   4 C :   -0.253633
   5 C :   -0.157831
   6 C :   -0.249302
   7 C :   -0.249177
   8 H :    0.113315
   9 H :    0.103214
  10 H :    0.100362
  11 H :    0.076936
  12 H :    0.079892
  13 H :    0.099480
  14 H :    0.095958
  15 H :    0.105315
  16 H :    0.066798
  17 H :    0.094620
  18 H :    0.098161
  19 H :    0.094861
  20 H :    0.096097
  21 H :    0.103985
  22 H :    0.095470
Sum of atomic charges:    0.0000000

LOEWDIN ATOMIC CHARGES
----------------------
   0 C :   -0.344957
   1 C :   -0.223158
   2 C :   -0.143936
   3 H :    0.113942
   4 C :   -0.330952
   5 C :   -0.149411
   6 C :   -0.327896
   7 C :   -0.331820
   8 H :    0.117642
   9 H :    0.116211
  10 H :    0.120095
  11 H :    0.112114
  12 H :    0.112370
  13 H :    0.116687
  14 H :    0.118027
  15 H :    0.116519
  16 H :    0.112128
  17 H :    0.115090
  18 H :    0.115206
  19 H :    0.115324
  20 H :    0.118098
  21 H :    0.116038
  22 H :    0.116635

  Mayer bond orders larger than 0.100000
B(  0-C ,  1-C ) :   1.1582 B(  0-C ,  8-H ) :   0.9423 B(  0-C ,  9-H ) :   0.9492
B(  0-C , 10-H ) :   0.9472 B(  1-C ,  2-C ) :   1.0903 B(  1-C , 11-H ) :   0.9234
B(  1-C , 12-H ) :   0.9204 B(  2-C ,  3-H ) :   0.8977 B(  2-C ,  4-C ) :   1.1277
B(  2-C ,  5-C ) :   1.0120 B(  4-C , 13-H ) :   0.9453 B(  4-C , 14-H ) :   0.9455
B(  4-C , 15-H ) :   0.9310 B(  5-C ,  6-C ) :   1.1102 B(  5-C ,  7-C ) :   1.1255
B(  5-C , 16-H ) :   0.9044 B(  6-C , 17-H ) :   0.9472 B(  6-C , 18-H ) :   0.9481
B(  6-C , 19-H ) :   0.9502 B(  7-C , 20-H ) :   0.9469 B(  7-C , 21-H ) :   0.9408
B(  7-C , 22-H ) :   0.9364

Dispersion correction           -0.019608700
FINAL SINGLE POINT ENERGY      -275.657714259651

DIPOLE MOMENT
-------------

Method             : SCF
Type of density    : Electron Density
Multiplicity       :   1
Irrep              :   0
Energy             :  -275.7348799662941019 Eh
Relativity type    :
Basis              : AO
                                X                 Y                 Z
Electronic contribution:      0.156157754      -0.277733344      -1.435387711
Nuclear contribution   :     -0.137122803       0.290097131       1.399361064
                        -----------------------------------------
Total Dipole Moment    :      0.019034951       0.012363787      -0.036026648
                        -----------------------------------------
Magnitude (a.u.)       :      0.042580652
Magnitude (Debye)      :      0.108231417

Rotational constants in cm-1:             0.112322             0.057973             0.053955
Rotational constants in MHz :          3367.330602          1737.995777          1617.542106

                             ****ORCA TERMINATED NORMALLY****
TOTAL RUN TIME: 0 days 0 hours 0 minutes 10 seconds 308 msec
