                         Program Version 6.0.0  -   RELEASE  -
|  1> ! pbe def2-sv(p) def2/J RI DEFGRID1 loosescf d4 GCP(DFT/SV(P)) printgap
|  2> %output
|  3>     printlevel normal
|  4> end
|  5> * xyz 0 1
|  6> C 1.0330262549 -1.2649766559 0.66772485
|  7> C 1.0807696507 0.2412050927 0.424746899
|  8> C 1.6889778095 0.5444433025 -0.9439520767
|  9> C -0.2964818407 0.8973455898 0.6086314058
| 10> C -1.3684734164 0.5321138623 -0.4183764489
| 11> O -1.8411332147 -0.7844614992 -0.1996072629
| 12> H 0.3622779374 -1.7438625603 -0.0395262793
| 13> H 0.6703398408 -1.4774359133 1.6705371063
| 14> H 2.0252282686 -1.6969489055 0.558754142
| 15> H 1.7333427574 0.6855322952 1.186695617
| 16> H 2.7312598373 0.2351897682 -0.9635586577
| 17> H 1.6418016555 1.6095038324 -1.1591802913
| 18> H 1.1656446717 0.0043068387 -1.7287342037
| 19> H -0.1705431891 1.9814021534 0.5722164331
| 20> H -0.6808821259 0.6327348818 1.5956623123
| 21> H -2.1999333289 1.2429324594 -0.308628069
| 22> H -0.9691888109 0.6284270738 -1.435298134
| 23> H -2.5592837607 -0.9718210442 -0.8175039505
| 24> *
| 25>
| 26>                          ****END OF INPUT****

CARTESIAN COORDINATES (ANGSTROEM)
---------------------------------
  C      1.033026   -1.264977    0.667725
  C      1.080770    0.241205    0.424747
  C      1.688978    0.544443   -0.943952
  C     -0.296482    0.897346    0.608631
  C     -1.368473    0.532114   -0.418376
  O     -1.841133   -0.784461   -0.199607
  H      0.362278   -1.743863   -0.039526
  H      0.670340   -1.477436    1.670537
  H      2.025228   -1.696949    0.558754
  H      1.733343    0.685532    1.186696
  H      2.731260    0.235190   -0.963559
  H      1.641802    1.609504   -1.159180
  H      1.165645    0.004307   -1.728734
  H     -0.170543    1.981402    0.572216
  H     -0.680882    0.632735    1.595662
  H     -2.199933    1.242932   -0.308628
  H     -0.969189    0.628427   -1.435298
  H     -2.559284   -0.971821   -0.817504

 Total Charge           Charge          ....    0
 Multiplicity           Mult            ....    1
 Number of Electrons    NEL             ....   50
 Basis Dimension        Dim             ....  108

ORBITAL ENERGIES
----------------

  NO   OCC          E(Eh)            E(eV)
   0   2.0000     -18.739784      -509.9354
   1   2.0000      -9.927569      -270.1429
   2   2.0000      -9.887245      -269.0456
   3   2.0000      -9.878655      -268.8119
   4   2.0000      -9.867717      -268.5142
   5   2.0000      -9.855893      -268.1925
   6   2.0000      -0.915646       -24.9160
   7   2.0000      -0.723002       -19.6739
   8   2.0000      -0.646550       -17.5935
   9   2.0000      -0.601076       -16.3561
  10   2.0000      -0.555400       -15.1132
  11   2.0000      -0.477406       -12.9909
  12   2.0000      -0.464204       -12.6316
  13   2.0000      -0.425718       -11.5844
  14   2.0000      -0.387457       -10.5433
  15   2.0000      -0.374521       -10.1912
  16   2.0000      -0.359224        -9.7750
  17   2.0000      -0.342461        -9.3189
  18   2.0000      -0.326470        -8.8837
  19   2.0000      -0.314263        -8.5515
  20   2.0000      -0.295845        -8.0503
  21   2.0000      -0.278119        -7.5680
  22   2.0000      -0.275386        -7.4936
  23   2.0000      -0.254815        -6.9339
  24   2.0000      -0.210176        -5.7192
  25   0.0000       0.023235         0.6323
  26   0.0000       0.048162         1.3105
  27   0.0000       0.073545         2.0013
  28   0.0000       0.082785         2.2527
  29   0.0000       0.099677         2.7123

MULLIKEN ATOMIC CHARGES
-----------------------
   0 C :   -0.238846
   1 C :   -0.169871
   2 C :   -0.264706
   3 C :   -0.146972
   4 C :   -0.005534
   5 O :   -0.431752
   6 H :    0.108642
   7 H :    0.091989
   8 H :    0.086759
   9 H :    0.068705
  10 H :    0.098164
  11 H :    0.093075
  12 H :    0.103882
  13 H :    0.080826
  14 H :    0.087931
  15 H :    0.069207
  16 H :    0.071299
  17 H :    0.297200
Sum of atomic charges:    0.0000000

LOEWDIN ATOMIC CHARGES
----------------------
   0 C :   -0.335313
   1 C :   -0.156616
   2 C :   -0.333765
   3 C :   -0.230435
   4 C :   -0.122368
   5 O :   -0.344041
   6 H :    0.119374
   7 H :    0.116270
   8 H :    0.110961
   9 H :    0.112969
  10 H :    0.119013
  11 H :    0.113786
  12 H :    0.115858
  13 H :    0.119175
  14 H :    0.121544
  15 H :    0.095493
  16 H :    0.093949
  17 H :    0.284147

  Mayer bond orders larger than 0.100000
B(  0-C ,  1-C ) :   1.1197 B(  0-C ,  6-H ) :   0.9347 B(  0-C ,  7-H ) :   0.9501
B(  0-C ,  8-H ) :   0.9495 B(  1-C ,  2-C ) :   1.1093 B(  1-C ,  3-C ) :   1.0947
B(  1-C ,  9-H ) :   0.9044 B(  2-C , 10-H ) :   0.9488 B(  2-C , 11-H ) :   0.9516
B(  2-C , 12-H ) :   0.9444 B(  3-C ,  4-C ) :   1.1197 B(  3-C , 13-H ) :   0.9146
B(  3-C , 14-H ) :   0.9134 B(  4-C ,  5-O ) :   1.0675 B(  4-C , 15-H ) :   0.9232
B(  4-C , 16-H ) :   0.9161 B(  5-O , 17-H ) :   0.8519

Dispersion correction           -0.013346013
FINAL SINGLE POINT ENERGY      -272.298730175911

DIPOLE MOMENT
-------------

Method             : SCF
Type of density    : Electron Density
Multiplicity       :   1
Irrep              :   0
Energy             :  -272.3685329442156444 Eh
Relativity type    :
Basis              : AO
                                X                 Y                 Z
Electronic contribution:     -3.822926947      -0.745347059       0.404659638
Nuclear contribution   :      3.490850168       1.048446436      -0.817817391
                        -----------------------------------------
Total Dipole Moment    :     -0.332076779       0.303099377      -0.413157754
                        -----------------------------------------
Magnitude (a.u.)       :      0.610609162
Magnitude (Debye)      :      1.552045147

Rotational constants in cm-1:             0.160150             0.081195             0.069826
Rotational constants in MHz :          4801.181391          2434.167338          2093.324671

                             ****ORCA TERMINATED NORMALLY****
TOTAL RUN TIME: 0 days 0 hours 0 minutes 9 seconds 594 msec
