                         Program Version 6.0.0  -   RELEASE  -
|  1> ! pbe def2-sv(p) def2/J RI DEFGRID1 loosescf d4 GCP(DFT/SV(P)) printgap
|  2> %output
|  3>     printlevel normal
|  4> end
|  5> * xyz 0 1
|  6> C -1.9485295486 0.2715885988 0.6285842098
|  7> C -1.0679979482 0.2360913246 -0.617164806
|  8> N -0.0208445593 -0.7713835574 -0.5087774871
|  9> C 1.0480960883 -0.488458863 0.4347943554
| 10> C 1.9634263949 0.6851767488 0.0681838192
| 11> H -1.4121754195 0.6830206471 1.4793113437
| 12> H -2.8205882043 0.8922596668 0.4418732459
| 13> H -2.2746254077 -0.7347283334 0.8745829301
| 14> H -0.6729323292 1.2473094669 -0.8122429868
| 15> H -1.6843907461 -0.0477059289 -1.4741153524
| 16> H 0.3872821134 -0.9237604708 -1.4255722718
| 17> H 0.5973772119 -0.3121070734 1.413051785
| 18> H 1.6491886801 -1.3997403035 0.5047214181
| 19> H 2.7642757819 0.7693358696 0.7974000322
| 20> H 2.4039168792 0.5293231926 -0.9151347209
| 21> H 1.4119751594 1.6225296706 0.0566578376
| 22> *
| 23>
| 24>                          ****END OF INPUT****

CARTESIAN COORDINATES (ANGSTROEM)
---------------------------------
  C     -1.948530    0.271589    0.628584
  C     -1.067998    0.236091   -0.617165
  N     -0.020845   -0.771384   -0.508777
  C      1.048096   -0.488459    0.434794
  C      1.963426    0.685177    0.068184
  H     -1.412175    0.683021    1.479311
  H     -2.820588    0.892260    0.441873
  H     -2.274625   -0.734728    0.874583
  H     -0.672932    1.247309   -0.812243
  H     -1.684391   -0.047706   -1.474115
  H      0.387282   -0.923760   -1.425572
  H      0.597377   -0.312107    1.413052
  H      1.649189   -1.399740    0.504721
  H      2.764276    0.769336    0.797400
  H      2.403917    0.529323   -0.915135
  H      1.411975    1.622530    0.056658

 Total Charge           Charge          ....    0
 Multiplicity           Mult            ....    1
 Number of Electrons    NEL             ....   42
 Basis Dimension        Dim             ....   92

ORBITAL ENERGIES
----------------

  NO   OCC          E(Eh)            E(eV)
   0   2.0000     -13.960836      -379.8936
   1   2.0000      -9.904128      -269.5050
   2   2.0000      -9.903344      -269.4837
   3   2.0000      -9.872277      -268.6383
   4   2.0000      -9.868610      -268.5385
   5   2.0000      -0.811028       -22.0692
   6   2.0000      -0.676372       -18.4050
   7   2.0000      -0.637946       -17.3594
   8   2.0000      -0.561434       -15.2774
   9   2.0000      -0.507671       -13.8144
  10   2.0000      -0.444507       -12.0957
  11   2.0000      -0.415089       -11.2951
  12   2.0000      -0.383361       -10.4318
  13   2.0000      -0.368473       -10.0267
  14   2.0000      -0.354744        -9.6531
  15   2.0000      -0.330685        -8.9984
  16   2.0000      -0.320466        -8.7203
  17   2.0000      -0.310981        -8.4622
  18   2.0000      -0.293860        -7.9963
  19   2.0000      -0.286937        -7.8079
  20   2.0000      -0.166860        -4.5405
  21   0.0000       0.031043         0.8447
  22   0.0000       0.058099         1.5810
  23   0.0000       0.073301         1.9946
  24   0.0000       0.080343         2.1862
  25   0.0000       0.107050         2.9130

MULLIKEN ATOMIC CHARGES
-----------------------
   0 C :   -0.287217
   1 C :   -0.095292
   2 N :   -0.343362
   3 C :   -0.103312
   4 C :   -0.300250
   5 H :    0.106830
   6 H :    0.098516
   7 H :    0.105213
   8 H :    0.067131
   9 H :    0.078777
  10 H :    0.194484
  11 H :    0.090643
  12 H :    0.086313
  13 H :    0.098361
  14 H :    0.092452
  15 H :    0.110713
Sum of atomic charges:   -0.0000000

LOEWDIN ATOMIC CHARGES
----------------------
   0 C :   -0.351877
   1 C :   -0.174972
   2 N :   -0.264948
   3 C :   -0.179727
   4 C :   -0.365143
   5 H :    0.115643
   6 H :    0.121050
   7 H :    0.122020
   8 H :    0.087008
   9 H :    0.111185
  10 H :    0.204018
  11 H :    0.112281
  12 H :    0.110677
  13 H :    0.121351
  14 H :    0.113640
  15 H :    0.117795

  Mayer bond orders larger than 0.100000
B(  0-C ,  1-C ) :   1.1571 B(  0-C ,  5-H ) :   0.9496 B(  0-C ,  6-H ) :   0.9481
B(  0-C ,  7-H ) :   0.9479 B(  1-C ,  2-N ) :   1.0883 B(  1-C ,  8-H ) :   0.9082
B(  1-C ,  9-H ) :   0.9348 B(  2-N ,  3-C ) :   1.1052 B(  2-N , 10-H ) :   0.8828
B(  3-C ,  4-C ) :   1.1217 B(  3-C , 11-H ) :   0.9285 B(  3-C , 12-H ) :   0.9390
B(  4-C , 13-H ) :   0.9424 B(  4-C , 14-H ) :   0.9526 B(  4-C , 15-H ) :   0.9483

Dispersion correction           -0.010475117
FINAL SINGLE POINT ENERGY      -213.242356707233

DIPOLE MOMENT
-------------

Method             : SCF
Type of density    : Electron Density
Multiplicity       :   1
Irrep              :   0
Energy             :  -213.3021444566002458 Eh
Relativity type    :
Basis              : AO
                                X                 Y                 Z
Electronic contribution:     -0.141180904      -1.931331132      -1.067095491
Nuclear contribution   :      0.327591866       2.177689906       0.879578734
                        -----------------------------------------
Total Dipole Moment    :      0.186410962       0.246358774      -0.187516757
                        -----------------------------------------
Magnitude (a.u.)       :      0.361392067
Magnitude (Debye)      :      0.918585634

Rotational constants in cm-1:             0.304600             0.093770             0.089713
Rotational constants in MHz :          9131.692407          2811.147240          2689.536098

                             ****ORCA TERMINATED NORMALLY****
TOTAL RUN TIME: 0 days 0 hours 0 minutes 6 seconds 443 msec
