                         Program Version 6.0.0  -   RELEASE  -
|  1> ! pbe def2-sv(p) def2/J RI DEFGRID1 loosescf d4 GCP(DFT/SV(P)) printgap
|  2> %output
|  3>     printlevel normal
|  4> end
|  5> * xyz 0 1
|  6> C 2.4181295597 -0.3061567736 -0.2613760415
|  7> C 1.0972516749 -0.1322953655 0.4780859137
|  8> C -0.0359959019 0.263748513 -0.4739720417
|  9> C -1.3234628495 0.4555799308 0.2608974329
| 10> C -2.4287170259 -0.2286737942 0.0321767634
| 11> H 3.2071557341 -0.59054507 0.4304664467
| 12> H 2.7064645301 0.6219198102 -0.7501165378
| 13> H 2.3308358118 -1.0802890488 -1.0204445099
| 14> H 0.8315629968 -1.0660939189 0.9786935084
| 15> H 1.2072907098 0.6365028028 1.2461240667
| 16> H -0.156709439 -0.5046840762 -1.2398412667
| 17> H 0.2346992717 1.2000677174 -0.9705545557
| 18> H -1.3023990811 1.2098547996 1.0375655448
| 19> H -3.3326667159 -0.0606024287 0.5924668023
| 20> H -2.4755832152 -0.9881816032 -0.7310996579
| 21> *
| 22>
| 23>                          ****END OF INPUT****

CARTESIAN COORDINATES (ANGSTROEM)
---------------------------------
  C      2.418130   -0.306157   -0.261376
  C      1.097252   -0.132295    0.478086
  C     -0.035996    0.263749   -0.473972
  C     -1.323463    0.455580    0.260897
  C     -2.428717   -0.228674    0.032177
  H      3.207156   -0.590545    0.430466
  H      2.706465    0.621920   -0.750117
  H      2.330836   -1.080289   -1.020445
  H      0.831563   -1.066094    0.978694
  H      1.207291    0.636503    1.246124
  H     -0.156709   -0.504684   -1.239841
  H      0.234699    1.200068   -0.970555
  H     -1.302399    1.209855    1.037566
  H     -3.332667   -0.060602    0.592467
  H     -2.475583   -0.988182   -0.731100

 Total Charge           Charge          ....    0
 Multiplicity           Mult            ....    1
 Number of Electrons    NEL             ....   40
 Basis Dimension        Dim             ....   90

ORBITAL ENERGIES
----------------

  NO   OCC          E(Eh)            E(eV)
   0   2.0000      -9.888685      -269.0848
   1   2.0000      -9.886499      -269.0253
   2   2.0000      -9.886441      -269.0237
   3   2.0000      -9.874396      -268.6960
   4   2.0000      -9.871756      -268.6241
   5   2.0000      -0.727514       -19.7967
   6   2.0000      -0.675466       -18.3804
   7   2.0000      -0.603966       -16.4348
   8   2.0000      -0.525774       -14.3070
   9   2.0000      -0.493183       -13.4202
  10   2.0000      -0.428279       -11.6541
  11   2.0000      -0.402874       -10.9628
  12   2.0000      -0.378768       -10.3068
  13   2.0000      -0.366596        -9.9756
  14   2.0000      -0.341452        -9.2914
  15   2.0000      -0.318390        -8.6638
  16   2.0000      -0.301070        -8.1925
  17   2.0000      -0.290582        -7.9071
  18   2.0000      -0.286035        -7.7834
  19   2.0000      -0.224235        -6.1018
  20   0.0000      -0.011454        -0.3117
  21   0.0000       0.042847         1.1659
  22   0.0000       0.062653         1.7049
  23   0.0000       0.074271         2.0210
  24   0.0000       0.085958         2.3390

MULLIKEN ATOMIC CHARGES
-----------------------
   0 C :   -0.256680
   1 C :   -0.217593
   2 C :   -0.125444
   3 C :   -0.105444
   4 C :   -0.202809
   5 H :    0.104003
   6 H :    0.096429
   7 H :    0.098527
   8 H :    0.093988
   9 H :    0.088066
  10 H :    0.080172
  11 H :    0.090996
  12 H :    0.070115
  13 H :    0.094997
  14 H :    0.090676
Sum of atomic charges:    0.0000000

LOEWDIN ATOMIC CHARGES
----------------------
   0 C :   -0.340508
   1 C :   -0.230992
   2 C :   -0.221978
   3 C :   -0.131581
   4 C :   -0.259600
   5 H :    0.119661
   6 H :    0.116776
   7 H :    0.117464
   8 H :    0.117747
   9 H :    0.114559
  10 H :    0.118406
  11 H :    0.123888
  12 H :    0.118441
  13 H :    0.119867
  14 H :    0.117851

  Mayer bond orders larger than 0.100000
B(  0-C ,  1-C ) :   1.1521 B(  0-C ,  5-H ) :   0.9530 B(  0-C ,  6-H ) :   0.9542
B(  0-C ,  7-H ) :   0.9541 B(  1-C ,  2-C ) :   1.1083 B(  1-C ,  8-H ) :   0.9299
B(  1-C ,  9-H ) :   0.9299 B(  2-C ,  3-C ) :   1.0869 B(  2-C , 10-H ) :   0.9192
B(  2-C , 11-H ) :   0.9042 B(  3-C ,  4-C ) :   2.0709 B(  3-C , 12-H ) :   0.9310
B(  4-C , 13-H ) :   0.9239 B(  4-C , 14-H ) :   0.9201

Dispersion correction           -0.009551466
FINAL SINGLE POINT ENERGY      -196.026720598038

DIPOLE MOMENT
-------------

Method             : SCF
Type of density    : Electron Density
Multiplicity       :   1
Irrep              :   0
Energy             :  -196.0754991868380444 Eh
Relativity type    :
Basis              : AO
                                X                 Y                 Z
Electronic contribution:     -2.889191563       0.618121420       0.410480341
Nuclear contribution   :      3.049667607      -0.583590507      -0.400355436
                        -----------------------------------------
Total Dipole Moment    :      0.160476044       0.034530914       0.010124905
                        -----------------------------------------
Magnitude (a.u.)       :      0.164461115
Magnitude (Debye)      :      0.418026933

Rotational constants in cm-1:             0.608323             0.072000             0.070788
Rotational constants in MHz :         18237.079011          2158.506382          2122.163744

                             ****ORCA TERMINATED NORMALLY****
TOTAL RUN TIME: 0 days 0 hours 0 minutes 6 seconds 592 msec
