                         Program Version 6.0.0  -   RELEASE  -
|  1> ! r2scan-3c def2/J RI DEFGRID2 scfconv6 printgap
|  2> %output
|  3>     printlevel normal
|  4> end
|  5> * xyz 0 1
|  6> C 1.885900737 1.2233946744 0.9766464954
|  7> C 1.5510882075 0.1204941704 -0.0225717487
|  8> C 0.0785980661 -0.340781232 -0.0573820261
|  9> C -0.0202826541 -1.4587898594 -1.1020036612
| 10> C -0.3313126338 -0.901106638 1.3074174053
| 11> C -0.8203836553 0.8456029762 -0.4520332759
| 12> C -2.2894041534 0.5071826963 -0.6876717972
| 13> H 1.6446640021 0.9197543933 1.9914158835
| 14> H 1.3495462311 2.1404997854 0.7492967781
| 15> H 2.9513828405 1.4389313769 0.9337872409
| 16> H 1.8273527784 0.4621274713 -1.023519944
| 17> H 2.1729117236 -0.7489054734 0.2059820174
| 18> H -1.0124760587 -1.900848202 -1.1087080671
| 19> H 0.6959378594 -2.2462658989 -0.8771967479
| 20> H 0.1959306387 -1.0743635473 -2.0964885037
| 21> H 0.4015006239 -1.627915495 1.6510930485
| 22> H -0.4083263295 -0.1096387603 2.0482088103
| 23> H -1.2944395077 -1.4006079987 1.2430205232
| 24> H -0.7695771069 1.5968020755 0.338094919
| 25> H -0.4173038267 1.2962821997 -1.3627403139
| 26> H -2.8413351265 1.41986528 -0.9025326723
| 27> H -2.4105135204 -0.1641602054 -1.5330822825
| 28> H -2.7311955054 0.0461487041 0.1914265438
| 29> *
| 30>
| 31>                          ****END OF INPUT****

CARTESIAN COORDINATES (ANGSTROEM)
---------------------------------
  C      1.885901    1.223395    0.976646
  C      1.551088    0.120494   -0.022572
  C      0.078598   -0.340781   -0.057382
  C     -0.020283   -1.458790   -1.102004
  C     -0.331313   -0.901107    1.307417
  C     -0.820384    0.845603   -0.452033
  C     -2.289404    0.507183   -0.687672
  H      1.644664    0.919754    1.991416
  H      1.349546    2.140500    0.749297
  H      2.951383    1.438931    0.933787
  H      1.827353    0.462127   -1.023520
  H      2.172912   -0.748905    0.205982
  H     -1.012476   -1.900848   -1.108708
  H      0.695938   -2.246266   -0.877197
  H      0.195931   -1.074364   -2.096489
  H      0.401501   -1.627915    1.651093
  H     -0.408326   -0.109639    2.048209
  H     -1.294440   -1.400608    1.243021
  H     -0.769577    1.596802    0.338095
  H     -0.417304    1.296282   -1.362740
  H     -2.841335    1.419865   -0.902533
  H     -2.410514   -0.164160   -1.533082
  H     -2.731196    0.046149    0.191427

 Total Charge           Charge          ....    0
 Multiplicity           Mult            ....    1
 Number of Electrons    NEL             ....   58
 Basis Dimension        Dim             ....  213

ORBITAL ENERGIES
----------------

  NO   OCC          E(Eh)            E(eV)
   0   2.0000     -10.036537      -273.1081
   1   2.0000     -10.019661      -272.6488
   2   2.0000     -10.019546      -272.6457
   3   2.0000     -10.013412      -272.4788
   4   2.0000     -10.012824      -272.4628
   5   2.0000     -10.011227      -272.4193
   6   2.0000     -10.010597      -272.4022
   7   2.0000      -0.793820       -21.6009
   8   2.0000      -0.714439       -19.4409
   9   2.0000      -0.689141       -18.7525
  10   2.0000      -0.649132       -17.6638
  11   2.0000      -0.602416       -16.3926
  12   2.0000      -0.573712       -15.6115
  13   2.0000      -0.487421       -13.2634
  14   2.0000      -0.433498       -11.7961
  15   2.0000      -0.420098       -11.4315
  16   2.0000      -0.416870       -11.3436
  17   2.0000      -0.399298       -10.8654
  18   2.0000      -0.379467       -10.3258
  19   2.0000      -0.354756        -9.6534
  20   2.0000      -0.349072        -9.4987
  21   2.0000      -0.343572        -9.3491
  22   2.0000      -0.332882        -9.0582
  23   2.0000      -0.323644        -8.8068
  24   2.0000      -0.316971        -8.6252
  25   2.0000      -0.300947        -8.1892
  26   2.0000      -0.280293        -7.6272
  27   2.0000      -0.274276        -7.4634
  28   2.0000      -0.270870        -7.3707
  29   0.0000       0.079710         2.1690
  30   0.0000       0.101374         2.7585
  31   0.0000       0.112375         3.0579
  32   0.0000       0.123406         3.3581
  33   0.0000       0.128844         3.5060

MULLIKEN ATOMIC CHARGES
-----------------------
   0 C :   -0.515393
   1 C :   -0.240840
   2 C :    0.169298
   3 C :   -0.522285
   4 C :   -0.560978
   5 C :   -0.271581
   6 C :   -0.517034
   7 H :    0.154866
   8 H :    0.155165
   9 H :    0.147389
  10 H :    0.148051
  11 H :    0.149306
  12 H :    0.161623
  13 H :    0.151573
  14 H :    0.156999
  15 H :    0.155449
  16 H :    0.160689
  17 H :    0.156750
  18 H :    0.152644
  19 H :    0.151615
  20 H :    0.146744
  21 H :    0.155891
  22 H :    0.154057
Sum of atomic charges:   -0.0000000

LOEWDIN ATOMIC CHARGES
----------------------
   0 C :   -0.423633
   1 C :   -0.304623
   2 C :   -0.209134
   3 C :   -0.408321
   4 C :   -0.408916
   5 C :   -0.303251
   6 C :   -0.420910
   7 H :    0.151716
   8 H :    0.150734
   9 H :    0.151443
  10 H :    0.157489
  11 H :    0.156131
  12 H :    0.155148
  13 H :    0.157279
  14 H :    0.157589
  15 H :    0.158607
  16 H :    0.156630
  17 H :    0.156082
  18 H :    0.157642
  19 H :    0.158288
  20 H :    0.151081
  21 H :    0.151368
  22 H :    0.151562

  Mayer bond orders larger than 0.100000
B(  0-C ,  1-C ) :   0.8823 B(  0-C ,  7-H ) :   0.9837 B(  0-C ,  8-H ) :   0.9832
B(  0-C ,  9-H ) :   0.9714 B(  1-C ,  2-C ) :   0.9070 B(  1-C , 10-H ) :   0.9795
B(  1-C , 11-H ) :   0.9804 B(  2-C ,  3-C ) :   0.9154 B(  2-C ,  4-C ) :   0.9124
B(  2-C ,  5-C ) :   0.8812 B(  3-C , 12-H ) :   0.9789 B(  3-C , 13-H ) :   0.9744
B(  3-C , 14-H ) :   0.9787 B(  4-C , 15-H ) :   0.9722 B(  4-C , 16-H ) :   0.9762
B(  4-C , 17-H ) :   0.9739 B(  5-C ,  6-C ) :   0.8836 B(  5-C , 18-H ) :   0.9763
B(  5-C , 19-H ) :   0.9745 B(  6-C , 20-H ) :   0.9717 B(  6-C , 21-H ) :   0.9824
B(  6-C , 22-H ) :   0.9855

Dispersion correction           -0.006737762
FINAL SINGLE POINT ENERGY      -276.287792882492

DIPOLE MOMENT
-------------

Method             : SCF
Type of density    : Electron Density
Multiplicity       :   1
Irrep              :   0
Energy             :  -276.2924796645016272 Eh
Relativity type    :
Basis              : AO
                                X                 Y                 Z
Electronic contribution:      0.622719690      -0.020692097      -0.430017857
Nuclear contribution   :     -0.605996264       0.044755653       0.420350018
                        -----------------------------------------
Total Dipole Moment    :      0.016723425       0.024063556      -0.009667840
                        -----------------------------------------
Magnitude (a.u.)       :      0.030857654
Magnitude (Debye)      :      0.078433924

Rotational constants in cm-1:             0.109001             0.061517             0.054632
Rotational constants in MHz :          3267.770875          1844.239567          1637.825016

                             ****ORCA TERMINATED NORMALLY****
TOTAL RUN TIME: 0 days 0 hours 0 minutes 21 seconds 761 msec
