                         Program Version 6.0.0  -   RELEASE  -
|  1> ! r2scan-3c def2/J RI DEFGRID2 scfconv6 printgap
|  2> %output
|  3>     printlevel normal
|  4> end
|  5> %cpcm
|  6>     smd true
|  7>     smdsolvent "water"
|  8> end
|  9> * xyz 0 1
| 10> C 1.885900737 1.2233946744 0.9766464954
| 11> C 1.5510882075 0.1204941704 -0.0225717487
| 12> C 0.0785980661 -0.340781232 -0.0573820261
| 13> C -0.0202826541 -1.4587898594 -1.1020036612
| 14> C -0.3313126338 -0.901106638 1.3074174053
| 15> C -0.8203836553 0.8456029762 -0.4520332759
| 16> C -2.2894041534 0.5071826963 -0.6876717972
| 17> H 1.6446640021 0.9197543933 1.9914158835
| 18> H 1.3495462311 2.1404997854 0.7492967781
| 19> H 2.9513828405 1.4389313769 0.9337872409
| 20> H 1.8273527784 0.4621274713 -1.023519944
| 21> H 2.1729117236 -0.7489054734 0.2059820174
| 22> H -1.0124760587 -1.900848202 -1.1087080671
| 23> H 0.6959378594 -2.2462658989 -0.8771967479
| 24> H 0.1959306387 -1.0743635473 -2.0964885037
| 25> H 0.4015006239 -1.627915495 1.6510930485
| 26> H -0.4083263295 -0.1096387603 2.0482088103
| 27> H -1.2944395077 -1.4006079987 1.2430205232
| 28> H -0.7695771069 1.5968020755 0.338094919
| 29> H -0.4173038267 1.2962821997 -1.3627403139
| 30> H -2.8413351265 1.41986528 -0.9025326723
| 31> H -2.4105135204 -0.1641602054 -1.5330822825
| 32> H -2.7311955054 0.0461487041 0.1914265438
| 33> *
| 34>
| 35>                          ****END OF INPUT****

CARTESIAN COORDINATES (ANGSTROEM)
---------------------------------
  C      1.885901    1.223395    0.976646
  C      1.551088    0.120494   -0.022572
  C      0.078598   -0.340781   -0.057382
  C     -0.020283   -1.458790   -1.102004
  C     -0.331313   -0.901107    1.307417
  C     -0.820384    0.845603   -0.452033
  C     -2.289404    0.507183   -0.687672
  H      1.644664    0.919754    1.991416
  H      1.349546    2.140500    0.749297
  H      2.951383    1.438931    0.933787
  H      1.827353    0.462127   -1.023520
  H      2.172912   -0.748905    0.205982
  H     -1.012476   -1.900848   -1.108708
  H      0.695938   -2.246266   -0.877197
  H      0.195931   -1.074364   -2.096489
  H      0.401501   -1.627915    1.651093
  H     -0.408326   -0.109639    2.048209
  H     -1.294440   -1.400608    1.243021
  H     -0.769577    1.596802    0.338095
  H     -0.417304    1.296282   -1.362740
  H     -2.841335    1.419865   -0.902533
  H     -2.410514   -0.164160   -1.533082
  H     -2.731196    0.046149    0.191427

 Total Charge           Charge          ....    0
 Multiplicity           Mult            ....    1
 Number of Electrons    NEL             ....   58
 Basis Dimension        Dim             ....  213

ORBITAL ENERGIES
----------------

  NO   OCC          E(Eh)            E(eV)
   0   2.0000     -10.029049      -272.9043
   1   2.0000     -10.011786      -272.4345
   2   2.0000     -10.011468      -272.4259
   3   2.0000     -10.005718      -272.2694
   4   2.0000     -10.005461      -272.2624
   5   2.0000     -10.002794      -272.1899
   6   2.0000     -10.002773      -272.1893
   7   2.0000      -0.786010       -21.3884
   8   2.0000      -0.707134       -19.2421
   9   2.0000      -0.681846       -18.5540
  10   2.0000      -0.641576       -17.4582
  11   2.0000      -0.595139       -16.1946
  12   2.0000      -0.566462       -15.4142
  13   2.0000      -0.480067       -13.0633
  14   2.0000      -0.425680       -11.5833
  15   2.0000      -0.412295       -11.2191
  16   2.0000      -0.409282       -11.1371
  17   2.0000      -0.391741       -10.6598
  18   2.0000      -0.372076       -10.1247
  19   2.0000      -0.347179        -9.4472
  20   2.0000      -0.341434        -9.2909
  21   2.0000      -0.335750        -9.1362
  22   2.0000      -0.325468        -8.8564
  23   2.0000      -0.316122        -8.6021
  24   2.0000      -0.309125        -8.4117
  25   2.0000      -0.293098        -7.9756
  26   2.0000      -0.272571        -7.4170
  27   2.0000      -0.266693        -7.2571
  28   2.0000      -0.263161        -7.1610
  29   0.0000       0.088299         2.4027
  30   0.0000       0.108315         2.9474
  31   0.0000       0.119498         3.2517
  32   0.0000       0.131514         3.5787
  33   0.0000       0.136534         3.7153

MULLIKEN ATOMIC CHARGES
-----------------------
   0 C :   -0.548844
   1 C :   -0.264256
   2 C :    0.212822
   3 C :   -0.568633
   4 C :   -0.602252
   5 C :   -0.290823
   6 C :   -0.549222
   7 H :    0.163965
   8 H :    0.163917
   9 H :    0.156693
  10 H :    0.156432
  11 H :    0.159011
  12 H :    0.171717
  13 H :    0.162603
  14 H :    0.167279
  15 H :    0.165396
  16 H :    0.170757
  17 H :    0.168152
  18 H :    0.162304
  19 H :    0.159401
  20 H :    0.155730
  21 H :    0.164032
  22 H :    0.163819
Sum of atomic charges:   -0.0000000

LOEWDIN ATOMIC CHARGES
----------------------
   0 C :   -0.431428
   1 C :   -0.307587
   2 C :   -0.205103
   3 C :   -0.416698
   4 C :   -0.416690
   5 C :   -0.305439
   6 C :   -0.428799
   7 H :    0.153993
   8 H :    0.152839
   9 H :    0.153060
  10 H :    0.159058
  11 H :    0.158287
  12 H :    0.157588
  13 H :    0.159096
  14 H :    0.159669
  15 H :    0.160473
  16 H :    0.159172
  17 H :    0.158589
  18 H :    0.159936
  19 H :    0.160054
  20 H :    0.152593
  21 H :    0.153292
  22 H :    0.154044

  Mayer bond orders larger than 0.100000
B(  0-C ,  1-C ) :   0.8806 B(  0-C ,  7-H ) :   0.9805 B(  0-C ,  8-H ) :   0.9800
B(  0-C ,  9-H ) :   0.9699 B(  1-C ,  2-C ) :   0.8975 B(  1-C , 10-H ) :   0.9806
B(  1-C , 11-H ) :   0.9811 B(  2-C ,  3-C ) :   0.9037 B(  2-C ,  4-C ) :   0.9052
B(  2-C ,  5-C ) :   0.8773 B(  3-C , 12-H ) :   0.9758 B(  3-C , 13-H ) :   0.9744
B(  3-C , 14-H ) :   0.9770 B(  4-C , 15-H ) :   0.9713 B(  4-C , 16-H ) :   0.9732
B(  4-C , 17-H ) :   0.9715 B(  5-C ,  6-C ) :   0.8805 B(  5-C , 18-H ) :   0.9757
B(  5-C , 19-H ) :   0.9750 B(  6-C , 20-H ) :   0.9701 B(  6-C , 21-H ) :   0.9794
B(  6-C , 22-H ) :   0.9821

Dispersion correction           -0.006737762
FINAL SINGLE POINT ENERGY      -276.284088173382

DIPOLE MOMENT
-------------

Method             : SCF
Type of density    : Electron Density
Multiplicity       :   1
Irrep              :   0
Energy             :  -276.2887749553916024 Eh
Relativity type    :
Basis              : AO
                                X                 Y                 Z
Electronic contribution:      0.621950350      -0.016435257      -0.425413265
Nuclear contribution   :     -0.605996264       0.044755653       0.420350018
                        -----------------------------------------
Total Dipole Moment    :      0.015954086       0.028320396      -0.005063247
                        -----------------------------------------
Magnitude (a.u.)       :      0.032897023
Magnitude (Debye)      :      0.083617588

Rotational constants in cm-1:             0.109001             0.061517             0.054632
Rotational constants in MHz :          3267.770875          1844.239567          1637.825016

                             ****ORCA TERMINATED NORMALLY****
TOTAL RUN TIME: 0 days 0 hours 0 minutes 27 seconds 726 msec
