                         Program Version 6.0.0  -   RELEASE  -
|  1> ! pbe def2-sv(p) def2/J RI DEFGRID1 loosescf d4 GCP(DFT/SV(P)) printgap
|  2> %output
|  3>     printlevel normal
|  4> end
|  5> * xyz 0 1
|  6> C 2.0004915369 0.5758322791 0.7345382153
|  7> C 1.4998442985 -0.4180580276 -0.3078784246
|  8> C 0.259848991 0.028886628 -1.0889299983
|  9> C -1.1044569377 -0.0032857425 -0.3771858873
| 10> C -1.306313213 1.1391173234 0.6172686993
| 11> C -1.376710282 -1.347257339 0.2953438188
| 12> H 1.3406816374 0.6202753529 1.5952461597
| 13> H 2.9869919993 0.2792738811 1.0852488847
| 14> H 2.0755297368 1.572690079 0.3060619986
| 15> H 2.2988066131 -0.5693526642 -1.0391010854
| 16> H 1.3132371994 -1.3824422774 0.1654561153
| 17> H 0.4291289344 1.0418643909 -1.4628765559
| 18> H 0.1786662183 -0.6263148917 -1.961091207
| 19> H -1.8518931357 0.128487484 -1.1705877986
| 20> H -2.3535356978 1.1949062562 0.9079123276
| 21> H -1.0239819147 2.0907703007 0.1736009105
| 22> H -0.7186277358 0.9886591512 1.5175007987
| 23> H -1.2070241824 -2.1660453975 -0.4001989375
| 24> H -0.7332606493 -1.4851316299 1.1606519939
| 25> H -2.4094411917 -1.3925205216 0.63375314
| 26> *
| 27>
| 28>                          ****END OF INPUT****

CARTESIAN COORDINATES (ANGSTROEM)
---------------------------------
  C      2.000492    0.575832    0.734538
  C      1.499844   -0.418058   -0.307878
  C      0.259849    0.028887   -1.088930
  C     -1.104457   -0.003286   -0.377186
  C     -1.306313    1.139117    0.617269
  C     -1.376710   -1.347257    0.295344
  H      1.340682    0.620275    1.595246
  H      2.986992    0.279274    1.085249
  H      2.075530    1.572690    0.306062
  H      2.298807   -0.569353   -1.039101
  H      1.313237   -1.382442    0.165456
  H      0.429129    1.041864   -1.462877
  H      0.178666   -0.626315   -1.961091
  H     -1.851893    0.128487   -1.170588
  H     -2.353536    1.194906    0.907912
  H     -1.023982    2.090770    0.173601
  H     -0.718628    0.988659    1.517501
  H     -1.207024   -2.166045   -0.400199
  H     -0.733261   -1.485132    1.160652
  H     -2.409441   -1.392521    0.633753

 Total Charge           Charge          ....    0
 Multiplicity           Mult            ....    1
 Number of Electrons    NEL             ....   50
 Basis Dimension        Dim             ....  112

ORBITAL ENERGIES
----------------

  NO   OCC          E(Eh)            E(eV)
   0   2.0000      -9.889277      -269.1009
   1   2.0000      -9.878366      -268.8040
   2   2.0000      -9.876171      -268.7443
   3   2.0000      -9.868998      -268.5491
   4   2.0000      -9.868578      -268.5377
   5   2.0000      -9.867173      -268.4994
   6   2.0000      -0.730244       -19.8709
   7   2.0000      -0.678497       -18.4628
   8   2.0000      -0.608679       -16.5630
   9   2.0000      -0.604034       -16.4366
  10   2.0000      -0.531624       -14.4662
  11   2.0000      -0.475232       -12.9317
  12   2.0000      -0.424672       -11.5559
  13   2.0000      -0.402274       -10.9464
  14   2.0000      -0.383310       -10.4304
  15   2.0000      -0.367099        -9.9893
  16   2.0000      -0.363714        -9.8972
  17   2.0000      -0.338234        -9.2038
  18   2.0000      -0.329994        -8.9796
  19   2.0000      -0.313122        -8.5205
  20   2.0000      -0.305283        -8.3072
  21   2.0000      -0.294931        -8.0255
  22   2.0000      -0.275483        -7.4963
  23   2.0000      -0.266467        -7.2509
  24   2.0000      -0.259638        -7.0651
  25   0.0000       0.028794         0.7835
  26   0.0000       0.060165         1.6372
  27   0.0000       0.069564         1.8929
  28   0.0000       0.072213         1.9650
  29   0.0000       0.093579         2.5464

MULLIKEN ATOMIC CHARGES
-----------------------
   0 C :   -0.279227
   1 C :   -0.185829
   2 C :   -0.144213
   3 C :   -0.162327
   4 C :   -0.246617
   5 C :   -0.258583
   6 H :    0.107768
   7 H :    0.098493
   8 H :    0.093960
   9 H :    0.081836
  10 H :    0.087933
  11 H :    0.074883
  12 H :    0.076562
  13 H :    0.068663
  14 H :    0.094598
  15 H :    0.094052
  16 H :    0.100352
  17 H :    0.098018
  18 H :    0.102776
  19 H :    0.096903
Sum of atomic charges:   -0.0000000

LOEWDIN ATOMIC CHARGES
----------------------
   0 C :   -0.342961
   1 C :   -0.235754
   2 C :   -0.220574
   3 C :   -0.157140
   4 C :   -0.331819
   5 C :   -0.331164
   6 H :    0.114810
   7 H :    0.118028
   8 H :    0.116089
   9 H :    0.116639
  10 H :    0.115070
  11 H :    0.111557
  12 H :    0.114695
  13 H :    0.114956
  14 H :    0.116811
  15 H :    0.115752
  16 H :    0.114464
  17 H :    0.116615
  18 H :    0.115788
  19 H :    0.118138

  Mayer bond orders larger than 0.100000
B(  0-C ,  1-C ) :   1.1646 B(  0-C ,  6-H ) :   0.9458 B(  0-C ,  7-H ) :   0.9493
B(  0-C ,  8-H ) :   0.9529 B(  1-C ,  2-C ) :   1.1292 B(  1-C ,  9-H ) :   0.9238
B(  1-C , 10-H ) :   0.9185 B(  2-C ,  3-C ) :   1.0919 B(  2-C , 11-H ) :   0.9202
B(  2-C , 12-H ) :   0.9163 B(  3-C ,  4-C ) :   1.1215 B(  3-C ,  5-C ) :   1.1098
B(  3-C , 13-H ) :   0.9000 B(  4-C , 14-H ) :   0.9481 B(  4-C , 15-H ) :   0.9493
B(  4-C , 16-H ) :   0.9408 B(  5-C , 17-H ) :   0.9510 B(  5-C , 18-H ) :   0.9423
B(  5-C , 19-H ) :   0.9498

Dispersion correction           -0.015413453
FINAL SINGLE POINT ENERGY      -236.446118740667

DIPOLE MOMENT
-------------

Method             : SCF
Type of density    : Electron Density
Multiplicity       :   1
Irrep              :   0
Energy             :  -236.5135742689931249 Eh
Relativity type    :
Basis              : AO
                                X                 Y                 Z
Electronic contribution:     -0.320588296      -0.299989422      -1.450241551
Nuclear contribution   :      0.305163033       0.276869670       1.418102615
                        -----------------------------------------
Total Dipole Moment    :     -0.015425264      -0.023119752      -0.032138936
                        -----------------------------------------
Magnitude (a.u.)       :      0.042489680
Magnitude (Debye)      :      0.108000184

Rotational constants in cm-1:             0.152149             0.077911             0.068111
Rotational constants in MHz :          4561.303264          2335.698031          2041.928950

                             ****ORCA TERMINATED NORMALLY****
TOTAL RUN TIME: 0 days 0 hours 0 minutes 8 seconds 217 msec
