                         Program Version 6.0.0  -   RELEASE  -
|  1> ! pbe def2-sv(p) def2/J RI DEFGRID1 loosescf d4 GCP(DFT/SV(P)) printgap
|  2> %output
|  3>     printlevel normal
|  4> end
|  5> * xyz 0 1
|  6> C -1.1812623595 0.230469141 -0.3838440307
|  7> C 0.0059636979 0.6708692851 0.4947042964
|  8> C 1.0732941453 -0.4406751032 0.5973341553
|  9> O 1.2626063869 -1.1812082249 -0.580746513
| 10> O 0.6223340226 1.8224096466 -0.040715209
| 11> O -1.6817275647 -1.0380407391 -0.0319438876
| 12> H -0.832526859 0.1504969085 -1.4169227824
| 13> H -1.9720649389 0.9897651246 -0.3431027403
| 14> H -0.3431196002 0.8842651117 1.5182263441
| 15> H 0.8141239888 -1.1080611292 1.4277736983
| 16> H 2.0309486937 0.0384357229 0.8110455912
| 17> H 0.4573619814 -1.6933209063 -0.7507806038
| 18> H -0.0280349878 2.532786813 -0.1329089996
| 19> H -2.1368612799 -0.9845110952 0.8194862455
| 20> *
| 21>
| 22>                          ****END OF INPUT****

CARTESIAN COORDINATES (ANGSTROEM)
---------------------------------
  C     -1.181262    0.230469   -0.383844
  C      0.005964    0.670869    0.494704
  C      1.073294   -0.440675    0.597334
  O      1.262606   -1.181208   -0.580747
  O      0.622334    1.822410   -0.040715
  O     -1.681728   -1.038041   -0.031944
  H     -0.832527    0.150497   -1.416923
  H     -1.972065    0.989765   -0.343103
  H     -0.343120    0.884265    1.518226
  H      0.814124   -1.108061    1.427774
  H      2.030949    0.038436    0.811046
  H      0.457362   -1.693321   -0.750781
  H     -0.028035    2.532787   -0.132909
  H     -2.136861   -0.984511    0.819486

 Total Charge           Charge          ....    0
 Multiplicity           Mult            ....    1
 Number of Electrons    NEL             ....   50
 Basis Dimension        Dim             ....  100

ORBITAL ENERGIES
----------------

  NO   OCC          E(Eh)            E(eV)
   0   2.0000     -18.767677      -510.6945
   1   2.0000     -18.750050      -510.2148
   2   2.0000     -18.734075      -509.7801
   3   2.0000      -9.939195      -270.4593
   4   2.0000      -9.939082      -270.4562
   5   2.0000      -9.923817      -270.0408
   6   2.0000      -0.944822       -25.7099
   7   2.0000      -0.926075       -25.1998
   8   2.0000      -0.907789       -24.7022
   9   2.0000      -0.675075       -18.3697
  10   2.0000      -0.615458       -16.7475
  11   2.0000      -0.537504       -14.6262
  12   2.0000      -0.486335       -13.2338
  13   2.0000      -0.475187       -12.9305
  14   2.0000      -0.429812       -11.6958
  15   2.0000      -0.423034       -11.5114
  16   2.0000      -0.374342       -10.1864
  17   2.0000      -0.369374       -10.0512
  18   2.0000      -0.347409        -9.4535
  19   2.0000      -0.306309        -8.3351
  20   2.0000      -0.291468        -7.9313
  21   2.0000      -0.274197        -7.4613
  22   2.0000      -0.243875        -6.6362
  23   2.0000      -0.214227        -5.8294
  24   2.0000      -0.206427        -5.6172
  25   0.0000       0.004551         0.1238
  26   0.0000       0.020458         0.5567
  27   0.0000       0.063818         1.7366
  28   0.0000       0.074819         2.0359
  29   0.0000       0.095365         2.5950

MULLIKEN ATOMIC CHARGES
-----------------------
   0 C :   -0.042106
   1 C :   -0.001057
   2 C :    0.046069
   3 O :   -0.439375
   4 O :   -0.418170
   5 O :   -0.434653
   6 H :    0.104870
   7 H :    0.076243
   8 H :    0.043476
   9 H :    0.062872
  10 H :    0.096817
  11 H :    0.305719
  12 H :    0.295616
  13 H :    0.303679
Sum of atomic charges:    0.0000000

LOEWDIN ATOMIC CHARGES
----------------------
   0 C :   -0.153479
   1 C :   -0.101318
   2 C :   -0.126039
   3 O :   -0.334363
   4 O :   -0.321226
   5 O :   -0.333677
   6 H :    0.118051
   7 H :    0.095324
   8 H :    0.089024
   9 H :    0.093776
  10 H :    0.122329
  11 H :    0.280238
  12 H :    0.282591
  13 H :    0.288768

  Mayer bond orders larger than 0.100000
B(  0-C ,  1-C ) :   1.0367 B(  0-C ,  5-O ) :   1.0490 B(  0-C ,  6-H ) :   0.9080
B(  0-C ,  7-H ) :   0.9287 B(  1-C ,  2-C ) :   0.9990 B(  1-C ,  4-O ) :   1.0547
B(  1-C ,  8-H ) :   0.8945 B(  2-C ,  3-O ) :   1.1075 B(  2-C ,  9-H ) :   0.9207
B(  2-C , 10-H ) :   0.9242 B(  3-O , 11-H ) :   0.8343 B(  4-O , 12-H ) :   0.8499
B(  5-O , 13-H ) :   0.8495

Dispersion correction           -0.009435507
FINAL SINGLE POINT ENERGY      -344.005102887490

DIPOLE MOMENT
-------------

Method             : SCF
Type of density    : Electron Density
Multiplicity       :   1
Irrep              :   0
Energy             :  -344.0788769905391860 Eh
Relativity type    :
Basis              : AO
                                X                 Y                 Z
Electronic contribution:      0.626649712      -0.323418285      -1.052094447
Nuclear contribution   :     -1.882872810       0.753892260       1.803613274
                        -----------------------------------------
Total Dipole Moment    :     -1.256223097       0.430473975       0.751518827
                        -----------------------------------------
Magnitude (a.u.)       :      1.525839068
Magnitude (Debye)      :      3.878374691

Rotational constants in cm-1:             0.131292             0.110405             0.071006
Rotational constants in MHz :          3936.041576          3309.870536          2128.698649

                             ****ORCA TERMINATED NORMALLY****
TOTAL RUN TIME: 0 days 0 hours 0 minutes 6 seconds 854 msec
