                         Program Version 6.0.0  -   RELEASE  -
|  1> ! pbe def2-sv(p) def2/J RI DEFGRID1 loosescf d4 GCP(DFT/SV(P)) printgap
|  2> %output
|  3>     printlevel normal
|  4> end
|  5> * xyz 0 1
|  6> C -2.6951018148 -1.1343085002 -0.0234684007
|  7> C -2.4090276799 0.3616145764 -0.0786976214
|  8> C -0.9649612575 0.7057379288 -0.450344802
|  9> C 0.0684125952 0.2481113376 0.5912823566
| 10> C 0.6927532378 -1.1197334999 0.2512981137
| 11> C 2.0677626261 -0.834403046 -0.3848090204
| 12> C 2.1609421667 0.6885545573 -0.5034906089
| 13> C 1.2824773288 1.1835811433 0.6394863652
| 14> H -2.4680471918 -1.6021793182 -0.9789398039
| 15> H -2.1005816799 -1.614685184 0.748848661
| 16> H -3.7459768195 -1.306338467 0.1985879913
| 17> H -3.0723819108 0.8197277348 -0.8166501989
| 18> H -2.6416501969 0.8072067287 0.89165267
| 19> H -0.7299510905 0.2691632835 -1.4224460933
| 20> H -0.9041602253 1.7914589973 -0.5573988489
| 21> H -0.4225348323 0.2194723263 1.5678622591
| 22> H 0.8131171362 -1.7162309936 1.1560616133
| 23> H 0.0566241943 -1.6811251156 -0.4294663459
| 24> H 2.8641821682 -1.2040829285 0.2617865478
| 25> H 2.1756859657 -1.3208907541 -1.3532732177
| 26> H 3.1867568047 1.0470464658 -0.4299041209
| 27> H 1.7491045306 1.0231307171 -1.456126141
| 28> H 1.8082234882 1.0535246368 1.5873392859
| 29> H 1.0094026776 2.2331919245 0.5404193418
| 30> *
| 31>
| 32>                          ****END OF INPUT****

CARTESIAN COORDINATES (ANGSTROEM)
---------------------------------
  C     -2.695102   -1.134309   -0.023468
  C     -2.409028    0.361615   -0.078698
  C     -0.964961    0.705738   -0.450345
  C      0.068413    0.248111    0.591282
  C      0.692753   -1.119733    0.251298
  C      2.067763   -0.834403   -0.384809
  C      2.160942    0.688555   -0.503491
  C      1.282477    1.183581    0.639486
  H     -2.468047   -1.602179   -0.978940
  H     -2.100582   -1.614685    0.748849
  H     -3.745977   -1.306338    0.198588
  H     -3.072382    0.819728   -0.816650
  H     -2.641650    0.807207    0.891653
  H     -0.729951    0.269163   -1.422446
  H     -0.904160    1.791459   -0.557399
  H     -0.422535    0.219472    1.567862
  H      0.813117   -1.716231    1.156062
  H      0.056624   -1.681125   -0.429466
  H      2.864182   -1.204083    0.261787
  H      2.175686   -1.320891   -1.353273
  H      3.186757    1.047046   -0.429904
  H      1.749105    1.023131   -1.456126
  H      1.808223    1.053525    1.587339
  H      1.009403    2.233192    0.540419

 Total Charge           Charge          ....    0
 Multiplicity           Mult            ....    1
 Number of Electrons    NEL             ....   64
 Basis Dimension        Dim             ....  144

ORBITAL ENERGIES
----------------

  NO   OCC          E(Eh)            E(eV)
   0   2.0000      -9.883551      -268.9451
   1   2.0000      -9.880138      -268.8522
   2   2.0000      -9.875884      -268.7365
   3   2.0000      -9.874614      -268.7019
   4   2.0000      -9.874367      -268.6952
   5   2.0000      -9.873811      -268.6801
   6   2.0000      -9.873151      -268.6621
   7   2.0000      -9.869397      -268.5600
   8   2.0000      -0.758960       -20.6524
   9   2.0000      -0.702698       -19.1214
  10   2.0000      -0.640644       -17.4328
  11   2.0000      -0.628798       -17.1105
  12   2.0000      -0.589646       -16.0451
  13   2.0000      -0.519485       -14.1359
  14   2.0000      -0.496392       -13.5075
  15   2.0000      -0.480480       -13.0745
  16   2.0000      -0.434198       -11.8151
  17   2.0000      -0.422099       -11.4859
  18   2.0000      -0.397879       -10.8268
  19   2.0000      -0.390444       -10.6245
  20   2.0000      -0.362023        -9.8511
  21   2.0000      -0.357693        -9.7333
  22   2.0000      -0.341729        -9.2989
  23   2.0000      -0.314665        -8.5625
  24   2.0000      -0.303291        -8.2530
  25   2.0000      -0.293272        -7.9803
  26   2.0000      -0.290307        -7.8996
  27   2.0000      -0.288171        -7.8415
  28   2.0000      -0.279415        -7.6033
  29   2.0000      -0.268864        -7.3162
  30   2.0000      -0.262888        -7.1535
  31   2.0000      -0.257607        -7.0099
  32   0.0000       0.030147         0.8203
  33   0.0000       0.041816         1.1379
  34   0.0000       0.053973         1.4687
  35   0.0000       0.070375         1.9150
  36   0.0000       0.085462         2.3255

MULLIKEN ATOMIC CHARGES
-----------------------
   0 C :   -0.290802
   1 C :   -0.179772
   2 C :   -0.124547
   3 C :   -0.201007
   4 C :   -0.117459
   5 C :   -0.151145
   6 C :   -0.163505
   7 C :   -0.126853
   8 H :    0.099765
   9 H :    0.114747
  10 H :    0.101359
  11 H :    0.082131
  12 H :    0.084591
  13 H :    0.079721
  14 H :    0.075773
  15 H :    0.065290
  16 H :    0.076083
  17 H :    0.085178
  18 H :    0.077162
  19 H :    0.080496
  20 H :    0.086596
  21 H :    0.084708
  22 H :    0.076072
  23 H :    0.085418
Sum of atomic charges:   -0.0000000

LOEWDIN ATOMIC CHARGES
----------------------
   0 C :   -0.344555
   1 C :   -0.230286
   2 C :   -0.218107
   3 C :   -0.146553
   4 C :   -0.223850
   5 C :   -0.228995
   6 C :   -0.229381
   7 C :   -0.217800
   8 H :    0.115826
   9 H :    0.118526
  10 H :    0.118448
  11 H :    0.114039
  12 H :    0.113077
  13 H :    0.112022
  14 H :    0.113546
  15 H :    0.112340
  16 H :    0.116766
  17 H :    0.115959
  18 H :    0.116920
  19 H :    0.116396
  20 H :    0.115439
  21 H :    0.114763
  22 H :    0.113263
  23 H :    0.112196

  Mayer bond orders larger than 0.100000
B(  0-C ,  1-C ) :   1.1598 B(  0-C ,  8-H ) :   0.9498 B(  0-C ,  9-H ) :   0.9456
B(  0-C , 10-H ) :   0.9503 B(  1-C ,  2-C ) :   1.1407 B(  1-C , 11-H ) :   0.9251
B(  1-C , 12-H ) :   0.9247 B(  2-C ,  3-C ) :   1.0471 B(  2-C , 13-H ) :   0.9165
B(  2-C , 14-H ) :   0.9169 B(  3-C ,  4-C ) :   1.1054 B(  3-C ,  7-C ) :   1.0956
B(  3-C , 15-H ) :   0.9053 B(  4-C ,  5-C ) :   1.1504 B(  4-C , 16-H ) :   0.9160
B(  4-C , 17-H ) :   0.9160 B(  5-C ,  6-C ) :   1.1605 B(  5-C , 18-H ) :   0.9201
B(  5-C , 19-H ) :   0.9250 B(  6-C ,  7-C ) :   1.1080 B(  6-C , 20-H ) :   0.9286
B(  6-C , 21-H ) :   0.9188 B(  7-C , 22-H ) :   0.9224 B(  7-C , 23-H ) :   0.9237

Dispersion correction           -0.021418106
FINAL SINGLE POINT ENERGY      -313.689274148826

DIPOLE MOMENT
-------------

Method             : SCF
Type of density    : Electron Density
Multiplicity       :   1
Irrep              :   0
Energy             :  -313.7701277315820221 Eh
Relativity type    :
Basis              : AO
                                X                 Y                 Z
Electronic contribution:      2.249121394       1.116228438       0.477758113
Nuclear contribution   :     -2.272406301      -1.108542779      -0.461244481
                        -----------------------------------------
Total Dipole Moment    :     -0.023284907       0.007685659       0.016513632
                        -----------------------------------------
Magnitude (a.u.)       :      0.029562752
Magnitude (Debye)      :      0.075142543

Rotational constants in cm-1:             0.130899             0.040884             0.035547
Rotational constants in MHz :          3924.253811          1225.673903          1065.662815

                             ****ORCA TERMINATED NORMALLY****
TOTAL RUN TIME: 0 days 0 hours 0 minutes 11 seconds 57 msec
