                         Program Version 6.0.0  -   RELEASE  -
|  1> ! pbe def2-sv(p) def2/J RI DEFGRID1 loosescf d4 GCP(DFT/SV(P)) printgap
|  2> %output
|  3>     printlevel normal
|  4> end
|  5> * xyz 0 1
|  6> C -3.0974328357 -0.2329131099 0.4739069317
|  7> C -2.095839657 -0.5793979296 -0.6223328074
|  8> C -0.8873051898 0.3585371199 -0.659143077
|  9> C 0.0435958493 0.2477994531 0.552348009
| 10> C 0.8615275607 -1.0467631265 0.5607687963
| 11> C 2.0493423348 -0.7801365663 -0.3742139582
| 12> C 2.2062542403 0.75052359 -0.4353187727
| 13> C 1.1427531978 1.3146611869 0.5131023956
| 14> H -2.6640123534 -0.3756955127 1.4603132807
| 15> H -3.4162507779 0.8032884527 0.3843234902
| 16> H -3.9751151598 -0.8703997213 0.3961624077
| 17> H -1.7629547989 -1.6107280759 -0.4926610525
| 18> H -2.6015432115 -0.5198645121 -1.5891760201
| 19> H -0.3143558708 0.1544858877 -1.5648007087
| 20> H -1.2526918496 1.386781811 -0.7238637366
| 21> H -0.550370242 0.3441692519 1.4639765612
| 22> H 1.2203446608 -1.2352812095 1.5738393555
| 23> H 0.2823138642 -1.9122287241 0.2449560516
| 24> H 2.9530080471 -1.2613225776 -0.0021364504
| 25> H 1.8504175133 -1.1831986057 -1.3671523268
| 26> H 3.2059223185 1.0660898695 -0.1396439212
| 27> H 2.0349344319 1.1107406226 -1.4496581384
| 28> H 1.563171751 1.4340635202 1.512956518
| 29> H 0.7709679106 2.2840585187 0.1839125425
| 30> *
| 31>
| 32>                          ****END OF INPUT****

CARTESIAN COORDINATES (ANGSTROEM)
---------------------------------
  C     -3.097433   -0.232913    0.473907
  C     -2.095840   -0.579398   -0.622333
  C     -0.887305    0.358537   -0.659143
  C      0.043596    0.247799    0.552348
  C      0.861528   -1.046763    0.560769
  C      2.049342   -0.780137   -0.374214
  C      2.206254    0.750524   -0.435319
  C      1.142753    1.314661    0.513102
  H     -2.664012   -0.375696    1.460313
  H     -3.416251    0.803288    0.384323
  H     -3.975115   -0.870400    0.396162
  H     -1.762955   -1.610728   -0.492661
  H     -2.601543   -0.519865   -1.589176
  H     -0.314356    0.154486   -1.564801
  H     -1.252692    1.386782   -0.723864
  H     -0.550370    0.344169    1.463977
  H      1.220345   -1.235281    1.573839
  H      0.282314   -1.912229    0.244956
  H      2.953008   -1.261323   -0.002136
  H      1.850418   -1.183199   -1.367152
  H      3.205922    1.066090   -0.139644
  H      2.034934    1.110741   -1.449658
  H      1.563172    1.434064    1.512957
  H      0.770968    2.284059    0.183913

 Total Charge           Charge          ....    0
 Multiplicity           Mult            ....    1
 Number of Electrons    NEL             ....   64
 Basis Dimension        Dim             ....  144

ORBITAL ENERGIES
----------------

  NO   OCC          E(Eh)            E(eV)
   0   2.0000      -9.882853      -268.9261
   1   2.0000      -9.879857      -268.8446
   2   2.0000      -9.876741      -268.7598
   3   2.0000      -9.874587      -268.7012
   4   2.0000      -9.874069      -268.6871
   5   2.0000      -9.873902      -268.6825
   6   2.0000      -9.873303      -268.6662
   7   2.0000      -9.869998      -268.5763
   8   2.0000      -0.759226       -20.6596
   9   2.0000      -0.701673       -19.0935
  10   2.0000      -0.639986       -17.4149
  11   2.0000      -0.629278       -17.1235
  12   2.0000      -0.590958       -16.0808
  13   2.0000      -0.524569       -14.2742
  14   2.0000      -0.493694       -13.4341
  15   2.0000      -0.472636       -12.8611
  16   2.0000      -0.438570       -11.9341
  17   2.0000      -0.426337       -11.6012
  18   2.0000      -0.398289       -10.8380
  19   2.0000      -0.380964       -10.3666
  20   2.0000      -0.372776       -10.1438
  21   2.0000      -0.355651        -9.6778
  22   2.0000      -0.339630        -9.2418
  23   2.0000      -0.310550        -8.4505
  24   2.0000      -0.303903        -8.2696
  25   2.0000      -0.300323        -8.1722
  26   2.0000      -0.290713        -7.9107
  27   2.0000      -0.287628        -7.8268
  28   2.0000      -0.273770        -7.4497
  29   2.0000      -0.271174        -7.3790
  30   2.0000      -0.263484        -7.1698
  31   2.0000      -0.258270        -7.0279
  32   0.0000       0.027116         0.7379
  33   0.0000       0.042608         1.1594
  34   0.0000       0.056824         1.5463
  35   0.0000       0.068713         1.8698
  36   0.0000       0.080327         2.1858

MULLIKEN ATOMIC CHARGES
-----------------------
   0 C :   -0.293926
   1 C :   -0.161023
   2 C :   -0.132968
   3 C :   -0.209791
   4 C :   -0.123100
   5 C :   -0.162591
   6 C :   -0.168007
   7 C :   -0.099252
   8 H :    0.111106
   9 H :    0.096390
  10 H :    0.101568
  11 H :    0.085666
  12 H :    0.082252
  13 H :    0.077982
  14 H :    0.075832
  15 H :    0.071362
  16 H :    0.076786
  17 H :    0.087231
  18 H :    0.081817
  19 H :    0.082960
  20 H :    0.082194
  21 H :    0.084066
  22 H :    0.074995
  23 H :    0.078451
Sum of atomic charges:   -0.0000000

LOEWDIN ATOMIC CHARGES
----------------------
   0 C :   -0.342721
   1 C :   -0.233590
   2 C :   -0.217898
   3 C :   -0.149627
   4 C :   -0.220357
   5 C :   -0.231895
   6 C :   -0.232276
   7 C :   -0.217489
   8 H :    0.116382
   9 H :    0.116368
  10 H :    0.119070
  11 H :    0.113248
  12 H :    0.115716
  13 H :    0.114739
  14 H :    0.113477
  15 H :    0.112103
  16 H :    0.116070
  17 H :    0.113972
  18 H :    0.117831
  19 H :    0.115810
  20 H :    0.117224
  21 H :    0.115777
  22 H :    0.114448
  23 H :    0.113617

  Mayer bond orders larger than 0.100000
B(  0-C ,  1-C ) :   1.1530 B(  0-C ,  8-H ) :   0.9494 B(  0-C ,  9-H ) :   0.9546
B(  0-C , 10-H ) :   0.9515 B(  1-C ,  2-C ) :   1.1286 B(  1-C , 11-H ) :   0.9186
B(  1-C , 12-H ) :   0.9241 B(  2-C ,  3-C ) :   1.0775 B(  2-C , 13-H ) :   0.9154
B(  2-C , 14-H ) :   0.9170 B(  3-C ,  4-C ) :   1.0790 B(  3-C ,  7-C ) :   1.0773
B(  3-C , 15-H ) :   0.9007 B(  4-C ,  5-C ) :   1.1563 B(  4-C , 16-H ) :   0.9160
B(  4-C , 17-H ) :   0.9186 B(  5-C ,  6-C ) :   1.1531 B(  5-C , 18-H ) :   0.9244
B(  5-C , 19-H ) :   0.9235 B(  6-C ,  7-C ) :   1.1554 B(  6-C , 20-H ) :   0.9255
B(  6-C , 21-H ) :   0.9228 B(  7-C , 22-H ) :   0.9187 B(  7-C , 23-H ) :   0.9217

Dispersion correction           -0.021330265
FINAL SINGLE POINT ENERGY      -313.691663326171

DIPOLE MOMENT
-------------

Method             : SCF
Type of density    : Electron Density
Multiplicity       :   1
Irrep              :   0
Energy             :  -313.7724713569873529 Eh
Relativity type    :
Basis              : AO
                                X                 Y                 Z
Electronic contribution:      2.473451502       0.344438848       0.104104674
Nuclear contribution   :     -2.491961581      -0.361231239      -0.101933429
                        -----------------------------------------
Total Dipole Moment    :     -0.018510079      -0.016792391       0.002171245
                        -----------------------------------------
Magnitude (a.u.)       :      0.025086285
Magnitude (Debye)      :      0.063764270

Rotational constants in cm-1:             0.137813             0.038419             0.035939
Rotational constants in MHz :          4131.536592          1151.770830          1077.410657

                             ****ORCA TERMINATED NORMALLY****
TOTAL RUN TIME: 0 days 0 hours 0 minutes 11 seconds 423 msec
