                         Program Version 6.0.0  -   RELEASE  -
|  1> ! pbe def2-sv(p) def2/J RI DEFGRID1 loosescf d4 GCP(DFT/SV(P)) printgap
|  2> %output
|  3>     printlevel normal
|  4> end
|  5> * xyz 0 1
|  6> C 2.2913644069 -0.0172726997 0.118733584
|  7> C 0.877564807 0.3858236006 -0.2503661305
|  8> O -0.0305458263 -0.5850175259 0.3164229776
|  9> C -1.3103332404 -0.3686707131 0.1874546201
| 10> O -1.8291901391 0.5696365374 -0.3646620858
| 11> H 2.403916662 -0.0373864327 1.1985618856
| 12> H 2.5112687283 -1.0051819879 -0.2744527404
| 13> H 2.9900196274 0.6989359324 -0.3008052263
| 14> H 0.7283484804 0.3995022035 -1.3341707818
| 15> H 0.6159442898 1.3717288031 0.1456726202
| 16> H -1.8764816921 -1.1820228777 0.6657287653
| 17> *
| 18>
| 19>                          ****END OF INPUT****

CARTESIAN COORDINATES (ANGSTROEM)
---------------------------------
  C      2.291364   -0.017273    0.118734
  C      0.877565    0.385824   -0.250366
  O     -0.030546   -0.585018    0.316423
  C     -1.310333   -0.368671    0.187455
  O     -1.829190    0.569637   -0.364662
  H      2.403917   -0.037386    1.198562
  H      2.511269   -1.005182   -0.274453
  H      2.990020    0.698936   -0.300805
  H      0.728348    0.399502   -1.334171
  H      0.615944    1.371729    0.145673
  H     -1.876482   -1.182023    0.665729

 Total Charge           Charge          ....    0
 Multiplicity           Mult            ....    1
 Number of Electrons    NEL             ....   40
 Basis Dimension        Dim             ....   82

ORBITAL ENERGIES
----------------

  NO   OCC          E(Eh)            E(eV)
   0   2.0000     -18.809296      -511.8270
   1   2.0000     -18.740948      -509.9671
   2   2.0000     -10.003210      -272.2012
   3   2.0000      -9.954119      -270.8653
   4   2.0000      -9.894066      -269.2312
   5   2.0000      -1.015474       -27.6324
   6   2.0000      -0.918463       -24.9927
   7   2.0000      -0.713541       -19.4164
   8   2.0000      -0.605706       -16.4821
   9   2.0000      -0.522277       -14.2119
  10   2.0000      -0.474589       -12.9142
  11   2.0000      -0.451610       -12.2889
  12   2.0000      -0.406744       -11.0681
  13   2.0000      -0.381206       -10.3732
  14   2.0000      -0.363802        -9.8996
  15   2.0000      -0.357503        -9.7281
  16   2.0000      -0.325846        -8.8667
  17   2.0000      -0.306465        -8.3393
  18   2.0000      -0.266002        -7.2383
  19   2.0000      -0.226604        -6.1662
  20   0.0000      -0.022895        -0.6230
  21   0.0000       0.040322         1.0972
  22   0.0000       0.069900         1.9021
  23   0.0000       0.086725         2.3599
  24   0.0000       0.090098         2.4517

MULLIKEN ATOMIC CHARGES
-----------------------
   0 C :   -0.280136
   1 C :   -0.041391
   2 O :   -0.221019
   3 C :    0.121828
   4 O :   -0.222185
   5 H :    0.118070
   6 H :    0.118076
   7 H :    0.114679
   8 H :    0.111093
   9 H :    0.112161
  10 H :    0.068825
Sum of atomic charges:   -0.0000000

LOEWDIN ATOMIC CHARGES
----------------------
   0 C :   -0.350804
   1 C :   -0.106995
   2 O :   -0.064519
   3 C :   -0.023468
   4 O :   -0.166341
   5 H :    0.128129
   6 H :    0.128136
   7 H :    0.131889
   8 H :    0.119008
   9 H :    0.119173
  10 H :    0.085792

  Mayer bond orders larger than 0.100000
B(  0-C ,  1-C ) :   1.1533 B(  0-C ,  5-H ) :   0.9502 B(  0-C ,  6-H ) :   0.9494
B(  0-C ,  7-H ) :   0.9449 B(  1-C ,  2-O ) :   0.9054 B(  1-C ,  8-H ) :   0.9334
B(  1-C ,  9-H ) :   0.9309 B(  2-O ,  3-C ) :   1.2396 B(  2-O ,  4-O ) :   0.1063
B(  3-C ,  4-O ) :   2.0281 B(  3-C , 10-H ) :   0.9185

Dispersion correction           -0.006145230
FINAL SINGLE POINT ENERGY      -267.807479092211

DIPOLE MOMENT
-------------

Method             : SCF
Type of density    : Electron Density
Multiplicity       :   1
Irrep              :   0
Energy             :  -267.8522600482930329 Eh
Relativity type    :
Basis              : AO
                                X                 Y                 Z
Electronic contribution:     -6.039099163      -0.476763171       0.059439813
Nuclear contribution   :      6.889557242       0.230164216       0.093602622
                        -----------------------------------------
Total Dipole Moment    :      0.850458079      -0.246598955       0.153042435
                        -----------------------------------------
Magnitude (a.u.)       :      0.898616701
Magnitude (Debye)      :      2.284102134

Rotational constants in cm-1:             0.611795             0.095874             0.085598
Rotational constants in MHz :         18341.139057          2874.244772          2566.175743

                             ****ORCA TERMINATED NORMALLY****
TOTAL RUN TIME: 0 days 0 hours 0 minutes 6 seconds 451 msec
