                         Program Version 6.0.0  -   RELEASE  -
|  1> ! r2scan-3c def2/J RI DEFGRID2 scfconv6 printgap
|  2> %output
|  3>     printlevel normal
|  4> end
|  5> * xyz 0 1
|  6> C 2.3781548465 -0.1849948524 -0.6559589998
|  7> C 1.5678562464 0.2886353563 0.5455638654
|  8> C 0.2553474834 -0.4765532581 0.7238330337
|  9> C -0.8183052747 -0.0793305743 -0.2933778237
| 10> H -0.4120446933 -0.1829768897 -1.3119801452
| 11> C -2.0527195659 -0.9715343772 -0.1597604786
| 12> O -1.1394262807 1.284105059 -0.0596301562
| 13> H 1.8359734913 -0.0213823718 -1.5836201676
| 14> H 2.600135712 -1.2464901175 -0.5693474013
| 15> H 3.317384783 0.35962552 -0.7128760433
| 16> H 2.1690480423 0.1609834496 1.4481170152
| 17> H 1.338580355 1.3508643695 0.4441051729
| 18> H 0.4398657715 -1.5484708665 0.6427229448
| 19> H -0.1452349059 -0.2678284745 1.717696714
| 20> H -2.8089874115 -0.6926560345 -0.8902632419
| 21> H -1.7799321762 -2.0097016094 -0.32376055
| 22> H -2.4747389077 -0.8696536716 0.8373081596
| 23> H -1.8461991487 1.5507639278 -0.6618009781
| 24> *
| 25>
| 26>                          ****END OF INPUT****

CARTESIAN COORDINATES (ANGSTROEM)
---------------------------------
  C      2.378155   -0.184995   -0.655959
  C      1.567856    0.288635    0.545564
  C      0.255347   -0.476553    0.723833
  C     -0.818305   -0.079331   -0.293378
  H     -0.412045   -0.182977   -1.311980
  C     -2.052720   -0.971534   -0.159760
  O     -1.139426    1.284105   -0.059630
  H      1.835973   -0.021382   -1.583620
  H      2.600136   -1.246490   -0.569347
  H      3.317385    0.359626   -0.712876
  H      2.169048    0.160983    1.448117
  H      1.338580    1.350864    0.444105
  H      0.439866   -1.548471    0.642723
  H     -0.145235   -0.267828    1.717697
  H     -2.808987   -0.692656   -0.890263
  H     -1.779932   -2.009702   -0.323761
  H     -2.474739   -0.869654    0.837308
  H     -1.846199    1.550764   -0.661801

 Total Charge           Charge          ....    0
 Multiplicity           Mult            ....    1
 Number of Electrons    NEL             ....   50
 Basis Dimension        Dim             ....  179

ORBITAL ENERGIES
----------------

  NO   OCC          E(Eh)            E(eV)
   0   2.0000     -18.944883      -515.5165
   1   2.0000     -10.079438      -274.2755
   2   2.0000     -10.020273      -272.6655
   3   2.0000     -10.019675      -272.6492
   4   2.0000     -10.017178      -272.5813
   5   2.0000     -10.011792      -272.4347
   6   2.0000      -0.982762       -26.7423
   7   2.0000      -0.760164       -20.6851
   8   2.0000      -0.710931       -19.3454
   9   2.0000      -0.646992       -17.6056
  10   2.0000      -0.576343       -15.6831
  11   2.0000      -0.531757       -14.4699
  12   2.0000      -0.480589       -13.0775
  13   2.0000      -0.424081       -11.5398
  14   2.0000      -0.412834       -11.2338
  15   2.0000      -0.393569       -10.7096
  16   2.0000      -0.383835       -10.4447
  17   2.0000      -0.354352        -9.6424
  18   2.0000      -0.345657        -9.4058
  19   2.0000      -0.339889        -9.2488
  20   2.0000      -0.312633        -8.5072
  21   2.0000      -0.297951        -8.1076
  22   2.0000      -0.295032        -8.0282
  23   2.0000      -0.274373        -7.4661
  24   2.0000      -0.233716        -6.3597
  25   0.0000       0.061270         1.6672
  26   0.0000       0.101960         2.7745
  27   0.0000       0.109047         2.9673
  28   0.0000       0.123390         3.3576
  29   0.0000       0.136370         3.7108

MULLIKEN ATOMIC CHARGES
-----------------------
   0 C :   -0.496727
   1 C :   -0.245062
   2 C :   -0.242536
   3 C :    0.034031
   4 H :    0.125484
   5 C :   -0.491210
   6 O :   -0.428592
   7 H :    0.144462
   8 H :    0.142298
   9 H :    0.146382
  10 H :    0.141104
  11 H :    0.163201
  12 H :    0.129415
  13 H :    0.150656
  14 H :    0.135687
  15 H :    0.146789
  16 H :    0.159298
  17 H :    0.285320
Sum of atomic charges:   -0.0000000

LOEWDIN ATOMIC CHARGES
----------------------
   0 C :   -0.426665
   1 C :   -0.311145
   2 C :   -0.276920
   3 C :    0.046392
   4 H :    0.159384
   5 C :   -0.400912
   6 O :   -0.620720
   7 H :    0.147172
   8 H :    0.147899
   9 H :    0.150892
  10 H :    0.151153
  11 H :    0.167166
  12 H :    0.159806
  13 H :    0.168198
  14 H :    0.150108
  15 H :    0.158125
  16 H :    0.161857
  17 H :    0.268212

  Mayer bond orders larger than 0.100000
B(  0-C ,  1-C ) :   0.8964 B(  0-C ,  7-H ) :   0.9838 B(  0-C ,  8-H ) :   0.9854
B(  0-C ,  9-H ) :   0.9712 B(  1-C ,  2-C ) :   0.8926 B(  1-C , 10-H ) :   0.9707
B(  1-C , 11-H ) :   0.9724 B(  2-C ,  3-C ) :   0.9625 B(  2-C , 12-H ) :   0.9772
B(  2-C , 13-H ) :   0.9636 B(  3-C ,  4-H ) :   0.9575 B(  3-C ,  5-C ) :   0.9205
B(  3-C ,  6-O ) :   0.8586 B(  5-C , 14-H ) :   0.9719 B(  5-C , 15-H ) :   0.9756
B(  5-C , 16-H ) :   0.9833 B(  6-O , 17-H ) :   0.9037

Dispersion correction           -0.004230475
FINAL SINGLE POINT ENERGY      -272.902660686476

DIPOLE MOMENT
-------------

Method             : SCF
Type of density    : Electron Density
Multiplicity       :   1
Irrep              :   0
Energy             :  -272.9079524043708034 Eh
Relativity type    :
Basis              : AO
                                X                 Y                 Z
Electronic contribution:     -2.349095897       2.874575089       0.555700435
Nuclear contribution   :      2.078808076      -3.186575963      -0.904991839
                        -----------------------------------------
Total Dipole Moment    :     -0.270287821      -0.312000874      -0.349291404
                        -----------------------------------------
Magnitude (a.u.)       :      0.540744428
Magnitude (Debye)      :      1.374463105

Rotational constants in cm-1:             0.198491             0.065835             0.059687
Rotational constants in MHz :          5950.596739          1973.682137          1789.372653

                             ****ORCA TERMINATED NORMALLY****
TOTAL RUN TIME: 0 days 0 hours 0 minutes 22 seconds 690 msec
