                         Program Version 6.0.0  -   RELEASE  -
|  1> ! r2scan-3c def2/J RI DEFGRID2 scfconv6 printgap
|  2> %output
|  3>     printlevel normal
|  4> end
|  5> %cpcm
|  6>     smd true
|  7>     smdsolvent "water"
|  8> end
|  9> * xyz 0 1
| 10> C 2.3781548465 -0.1849948524 -0.6559589998
| 11> C 1.5678562464 0.2886353563 0.5455638654
| 12> C 0.2553474834 -0.4765532581 0.7238330337
| 13> C -0.8183052747 -0.0793305743 -0.2933778237
| 14> H -0.4120446933 -0.1829768897 -1.3119801452
| 15> C -2.0527195659 -0.9715343772 -0.1597604786
| 16> O -1.1394262807 1.284105059 -0.0596301562
| 17> H 1.8359734913 -0.0213823718 -1.5836201676
| 18> H 2.600135712 -1.2464901175 -0.5693474013
| 19> H 3.317384783 0.35962552 -0.7128760433
| 20> H 2.1690480423 0.1609834496 1.4481170152
| 21> H 1.338580355 1.3508643695 0.4441051729
| 22> H 0.4398657715 -1.5484708665 0.6427229448
| 23> H -0.1452349059 -0.2678284745 1.717696714
| 24> H -2.8089874115 -0.6926560345 -0.8902632419
| 25> H -1.7799321762 -2.0097016094 -0.32376055
| 26> H -2.4747389077 -0.8696536716 0.8373081596
| 27> H -1.8461991487 1.5507639278 -0.6618009781
| 28> *
| 29>
| 30>                          ****END OF INPUT****

CARTESIAN COORDINATES (ANGSTROEM)
---------------------------------
  C      2.378155   -0.184995   -0.655959
  C      1.567856    0.288635    0.545564
  C      0.255347   -0.476553    0.723833
  C     -0.818305   -0.079331   -0.293378
  H     -0.412045   -0.182977   -1.311980
  C     -2.052720   -0.971534   -0.159760
  O     -1.139426    1.284105   -0.059630
  H      1.835973   -0.021382   -1.583620
  H      2.600136   -1.246490   -0.569347
  H      3.317385    0.359626   -0.712876
  H      2.169048    0.160983    1.448117
  H      1.338580    1.350864    0.444105
  H      0.439866   -1.548471    0.642723
  H     -0.145235   -0.267828    1.717697
  H     -2.808987   -0.692656   -0.890263
  H     -1.779932   -2.009702   -0.323761
  H     -2.474739   -0.869654    0.837308
  H     -1.846199    1.550764   -0.661801

 Total Charge           Charge          ....    0
 Multiplicity           Mult            ....    1
 Number of Electrons    NEL             ....   50
 Basis Dimension        Dim             ....  179

ORBITAL ENERGIES
----------------

  NO   OCC          E(Eh)            E(eV)
   0   2.0000     -18.947673      -515.5924
   1   2.0000     -10.073927      -274.1255
   2   2.0000     -10.015568      -272.5375
   3   2.0000     -10.015144      -272.5259
   4   2.0000     -10.009224      -272.3648
   5   2.0000     -10.006992      -272.3041
   6   2.0000      -0.984431       -26.7877
   7   2.0000      -0.756296       -20.5799
   8   2.0000      -0.704997       -19.1839
   9   2.0000      -0.641162       -17.4469
  10   2.0000      -0.571966       -15.5640
  11   2.0000      -0.528610       -14.3842
  12   2.0000      -0.476558       -12.9678
  13   2.0000      -0.421358       -11.4657
  14   2.0000      -0.408215       -11.1081
  15   2.0000      -0.387942       -10.5564
  16   2.0000      -0.378803       -10.3078
  17   2.0000      -0.349117        -9.4999
  18   2.0000      -0.339942        -9.2503
  19   2.0000      -0.334603        -9.1050
  20   2.0000      -0.311887        -8.4869
  21   2.0000      -0.295572        -8.0429
  22   2.0000      -0.292377        -7.9560
  23   2.0000      -0.270976        -7.3736
  24   2.0000      -0.236851        -6.4451
  25   0.0000       0.076857         2.0914
  26   0.0000       0.110520         3.0074
  27   0.0000       0.116500         3.1701
  28   0.0000       0.127939         3.4814
  29   0.0000       0.142779         3.8852

MULLIKEN ATOMIC CHARGES
-----------------------
   0 C :   -0.530630
   1 C :   -0.250863
   2 C :   -0.267040
   3 C :    0.052082
   4 H :    0.142385
   5 C :   -0.537652
   6 O :   -0.515354
   7 H :    0.158033
   8 H :    0.156233
   9 H :    0.155932
  10 H :    0.152674
  11 H :    0.148450
  12 H :    0.150554
  13 H :    0.158237
  14 H :    0.160662
  15 H :    0.164040
  16 H :    0.161714
  17 H :    0.340543
Sum of atomic charges:   -0.0000000

LOEWDIN ATOMIC CHARGES
----------------------
   0 C :   -0.433666
   1 C :   -0.315163
   2 C :   -0.281815
   3 C :    0.048880
   4 H :    0.167412
   5 C :   -0.405437
   6 O :   -0.656503
   7 H :    0.151169
   8 H :    0.152567
   9 H :    0.152694
  10 H :    0.154409
  11 H :    0.160159
  12 H :    0.167388
  13 H :    0.167617
  14 H :    0.158418
  15 H :    0.163977
  16 H :    0.161411
  17 H :    0.286483

  Mayer bond orders larger than 0.100000
B(  0-C ,  1-C ) :   0.8971 B(  0-C ,  7-H ) :   0.9789 B(  0-C ,  8-H ) :   0.9818
B(  0-C ,  9-H ) :   0.9691 B(  1-C ,  2-C ) :   0.8834 B(  1-C , 10-H ) :   0.9706
B(  1-C , 11-H ) :   0.9764 B(  2-C ,  3-C ) :   0.9540 B(  2-C , 12-H ) :   0.9714
B(  2-C , 13-H ) :   0.9663 B(  3-C ,  4-H ) :   0.9530 B(  3-C ,  5-C ) :   0.9229
B(  3-C ,  6-O ) :   0.8432 B(  5-C , 14-H ) :   0.9680 B(  5-C , 15-H ) :   0.9716
B(  5-C , 16-H ) :   0.9796 B(  6-O , 17-H ) :   0.8780

Dispersion correction           -0.004230475
FINAL SINGLE POINT ENERGY      -272.908447218959

DIPOLE MOMENT
-------------

Method             : SCF
Type of density    : Electron Density
Multiplicity       :   1
Irrep              :   0
Energy             :  -272.9137389368537470 Eh
Relativity type    :
Basis              : AO
                                X                 Y                 Z
Electronic contribution:     -2.442619389       2.665974166       0.353382660
Nuclear contribution   :      2.078808076      -3.186575963      -0.904991839
                        -----------------------------------------
Total Dipole Moment    :     -0.363811313      -0.520601796      -0.551609179
                        -----------------------------------------
Magnitude (a.u.)       :      0.841223864
Magnitude (Debye)      :      2.138221134

Rotational constants in cm-1:             0.198491             0.065835             0.059687
Rotational constants in MHz :          5950.596739          1973.682137          1789.372653

                             ****ORCA TERMINATED NORMALLY****
TOTAL RUN TIME: 0 days 0 hours 0 minutes 26 seconds 841 msec
