                         Program Version 6.0.0  -   RELEASE  -
|  1> ! r2scan-3c def2/J RI DEFGRID2 scfconv6 printgap
|  2> %output
|  3>     printlevel normal
|  4> end
|  5> * xyz 0 1
|  6> C 2.310128221 -0.8623794174 -0.5149635232
|  7> C 1.2481159523 -0.0913882038 0.2639051184
|  8> C 1.5852398018 1.4008778904 0.3167153432
|  9> O 0.0104168524 -0.3432456365 -0.3858672478
| 10> C -1.1785603135 -0.0108772664 0.3303055055
| 11> C -1.9023944822 1.1449544178 -0.3616314686
| 12> C -2.0684094178 -1.2535799902 0.3873028832
| 13> H 3.2779726428 -0.7511664012 -0.0365036357
| 14> H 2.0464422441 -1.9153952486 -0.5550952259
| 15> H 2.3623043181 -0.4810112492 -1.5307723264
| 16> H 1.1954822472 -0.4835321013 1.294632936
| 17> H 1.5941446821 1.8091145405 -0.6908664437
| 18> H 2.5645350338 1.5382096177 0.7655264579
| 19> H 0.8527316193 1.9436830624 0.909469284
| 20> H -0.9119665928 0.2849305796 1.3553177175
| 21> H -1.2698504563 2.0277992908 -0.3957778018
| 22> H -2.1481161347 0.8576858384 -1.3804132918
| 23> H -2.8165896959 1.3838312596 0.173704247
| 24> H -1.5464081558 -2.0645547688 0.8889422448
| 25> H -2.3106617209 -1.5718074054 -0.6228463802
| 26> H -2.9853031392 -1.0331581919 0.9253868215
| 27> *
| 28>
| 29>                          ****END OF INPUT****

CARTESIAN COORDINATES (ANGSTROEM)
---------------------------------
  C      2.310128   -0.862379   -0.514964
  C      1.248116   -0.091388    0.263905
  C      1.585240    1.400878    0.316715
  O      0.010417   -0.343246   -0.385867
  C     -1.178560   -0.010877    0.330306
  C     -1.902394    1.144954   -0.361631
  C     -2.068409   -1.253580    0.387303
  H      3.277973   -0.751166   -0.036504
  H      2.046442   -1.915395   -0.555095
  H      2.362304   -0.481011   -1.530772
  H      1.195482   -0.483532    1.294633
  H      1.594145    1.809115   -0.690866
  H      2.564535    1.538210    0.765526
  H      0.852732    1.943683    0.909469
  H     -0.911967    0.284931    1.355318
  H     -1.269850    2.027799   -0.395778
  H     -2.148116    0.857686   -1.380413
  H     -2.816590    1.383831    0.173704
  H     -1.546408   -2.064555    0.888942
  H     -2.310662   -1.571807   -0.622846
  H     -2.985303   -1.033158    0.925387

 Total Charge           Charge          ....    0
 Multiplicity           Mult            ....    1
 Number of Electrons    NEL             ....   58
 Basis Dimension        Dim             ....  208

ORBITAL ENERGIES
----------------

  NO   OCC          E(Eh)            E(eV)
   0   2.0000     -18.938890      -515.3534
   1   2.0000     -10.080534      -274.3053
   2   2.0000     -10.079569      -274.2790
   3   2.0000     -10.016162      -272.5536
   4   2.0000     -10.013810      -272.4896
   5   2.0000     -10.013801      -272.4894
   6   2.0000     -10.013629      -272.4847
   7   2.0000      -0.986511       -26.8443
   8   2.0000      -0.761319       -20.7166
   9   2.0000      -0.713896       -19.4261
  10   2.0000      -0.655488       -17.8367
  11   2.0000      -0.649244       -17.6668
  12   2.0000      -0.565272       -15.3818
  13   2.0000      -0.533584       -14.5196
  14   2.0000      -0.465530       -12.6677
  15   2.0000      -0.431725       -11.7478
  16   2.0000      -0.413111       -11.2413
  17   2.0000      -0.396134       -10.7794
  18   2.0000      -0.378754       -10.3064
  19   2.0000      -0.370325       -10.0771
  20   2.0000      -0.354988        -9.6597
  21   2.0000      -0.353184        -9.6106
  22   2.0000      -0.340243        -9.2585
  23   2.0000      -0.336856        -9.1663
  24   2.0000      -0.326264        -8.8781
  25   2.0000      -0.307173        -8.3586
  26   2.0000      -0.297709        -8.1011
  27   2.0000      -0.268252        -7.2995
  28   2.0000      -0.211398        -5.7524
  29   0.0000       0.079665         2.1678
  30   0.0000       0.102323         2.7843
  31   0.0000       0.115716         3.1488
  32   0.0000       0.123321         3.3557
  33   0.0000       0.129785         3.5316

MULLIKEN ATOMIC CHARGES
-----------------------
   0 C :   -0.464529
   1 C :   -0.010316
   2 C :   -0.459191
   3 O :   -0.195329
   4 C :    0.014387
   5 C :   -0.457032
   6 C :   -0.470453
   7 H :    0.137695
   8 H :    0.154082
   9 H :    0.152248
  10 H :    0.133053
  11 H :    0.162125
  12 H :    0.142206
  13 H :    0.145045
  14 H :    0.130073
  15 H :    0.147208
  16 H :    0.156121
  17 H :    0.140366
  18 H :    0.147459
  19 H :    0.155572
  20 H :    0.139210
Sum of atomic charges:    0.0000000

LOEWDIN ATOMIC CHARGES
----------------------
   0 C :   -0.382015
   1 C :    0.053874
   2 C :   -0.401462
   3 O :   -0.769579
   4 C :    0.053908
   5 C :   -0.392569
   6 C :   -0.388285
   7 H :    0.155242
   8 H :    0.161834
   9 H :    0.161157
  10 H :    0.162305
  11 H :    0.161041
  12 H :    0.156646
  13 H :    0.154371
  14 H :    0.167733
  15 H :    0.156867
  16 H :    0.160969
  17 H :    0.154398
  18 H :    0.158000
  19 H :    0.161299
  20 H :    0.154266

  Mayer bond orders larger than 0.100000
B(  0-C ,  1-C ) :   0.9544 B(  0-C ,  7-H ) :   0.9716 B(  0-C ,  8-H ) :   0.9708
B(  0-C ,  9-H ) :   0.9812 B(  1-C ,  2-C ) :   0.9032 B(  1-C ,  3-O ) :   0.8398
B(  1-C , 10-H ) :   0.9527 B(  2-C , 11-H ) :   0.9802 B(  2-C , 12-H ) :   0.9687
B(  2-C , 13-H ) :   0.9640 B(  3-O ,  4-C ) :   0.7437 B(  4-C ,  5-C ) :   0.9577
B(  4-C ,  6-C ) :   0.9634 B(  4-C , 14-H ) :   0.9409 B(  5-C , 15-H ) :   0.9621
B(  5-C , 16-H ) :   0.9812 B(  5-C , 17-H ) :   0.9751 B(  6-C , 18-H ) :   0.9693
B(  6-C , 19-H ) :   0.9818 B(  6-C , 20-H ) :   0.9747

Dispersion correction           -0.005364462
FINAL SINGLE POINT ENERGY      -312.194944590906

DIPOLE MOMENT
-------------

Method             : SCF
Type of density    : Electron Density
Multiplicity       :   1
Irrep              :   0
Energy             :  -312.2016628096420163 Eh
Relativity type    :
Basis              : AO
                                X                 Y                 Z
Electronic contribution:      0.120902420      -1.269142997      -0.604137187
Nuclear contribution   :     -0.089236545       1.444020424       1.026914366
                        -----------------------------------------
Total Dipole Moment    :      0.031665875       0.174877428       0.422777179
                        -----------------------------------------
Magnitude (a.u.)       :      0.458612457
Magnitude (Debye)      :      1.165700226

Rotational constants in cm-1:             0.138538             0.053800             0.043532
Rotational constants in MHz :          4153.256180          1612.891434          1305.042835

                             ****ORCA TERMINATED NORMALLY****
TOTAL RUN TIME: 0 days 0 hours 0 minutes 23 seconds 528 msec
