                         Program Version 6.0.0  -   RELEASE  -
|  1> ! r2scan-3c def2/J RI DEFGRID2 scfconv6 printgap
|  2> %output
|  3>     printlevel normal
|  4> end
|  5> %cpcm
|  6>     smd true
|  7>     smdsolvent "water"
|  8> end
|  9> * xyz 0 1
| 10> C 2.310128221 -0.8623794174 -0.5149635232
| 11> C 1.2481159523 -0.0913882038 0.2639051184
| 12> C 1.5852398018 1.4008778904 0.3167153432
| 13> O 0.0104168524 -0.3432456365 -0.3858672478
| 14> C -1.1785603135 -0.0108772664 0.3303055055
| 15> C -1.9023944822 1.1449544178 -0.3616314686
| 16> C -2.0684094178 -1.2535799902 0.3873028832
| 17> H 3.2779726428 -0.7511664012 -0.0365036357
| 18> H 2.0464422441 -1.9153952486 -0.5550952259
| 19> H 2.3623043181 -0.4810112492 -1.5307723264
| 20> H 1.1954822472 -0.4835321013 1.294632936
| 21> H 1.5941446821 1.8091145405 -0.6908664437
| 22> H 2.5645350338 1.5382096177 0.7655264579
| 23> H 0.8527316193 1.9436830624 0.909469284
| 24> H -0.9119665928 0.2849305796 1.3553177175
| 25> H -1.2698504563 2.0277992908 -0.3957778018
| 26> H -2.1481161347 0.8576858384 -1.3804132918
| 27> H -2.8165896959 1.3838312596 0.173704247
| 28> H -1.5464081558 -2.0645547688 0.8889422448
| 29> H -2.3106617209 -1.5718074054 -0.6228463802
| 30> H -2.9853031392 -1.0331581919 0.9253868215
| 31> *
| 32>
| 33>                          ****END OF INPUT****

CARTESIAN COORDINATES (ANGSTROEM)
---------------------------------
  C      2.310128   -0.862379   -0.514964
  C      1.248116   -0.091388    0.263905
  C      1.585240    1.400878    0.316715
  O      0.010417   -0.343246   -0.385867
  C     -1.178560   -0.010877    0.330306
  C     -1.902394    1.144954   -0.361631
  C     -2.068409   -1.253580    0.387303
  H      3.277973   -0.751166   -0.036504
  H      2.046442   -1.915395   -0.555095
  H      2.362304   -0.481011   -1.530772
  H      1.195482   -0.483532    1.294633
  H      1.594145    1.809115   -0.690866
  H      2.564535    1.538210    0.765526
  H      0.852732    1.943683    0.909469
  H     -0.911967    0.284931    1.355318
  H     -1.269850    2.027799   -0.395778
  H     -2.148116    0.857686   -1.380413
  H     -2.816590    1.383831    0.173704
  H     -1.546408   -2.064555    0.888942
  H     -2.310662   -1.571807   -0.622846
  H     -2.985303   -1.033158    0.925387

 Total Charge           Charge          ....    0
 Multiplicity           Mult            ....    1
 Number of Electrons    NEL             ....   58
 Basis Dimension        Dim             ....  208

ORBITAL ENERGIES
----------------

  NO   OCC          E(Eh)            E(eV)
   0   2.0000     -18.946712      -515.5663
   1   2.0000     -10.077196      -274.2144
   2   2.0000     -10.076034      -274.1828
   3   2.0000     -10.010065      -272.3877
   4   2.0000     -10.009160      -272.3631
   5   2.0000     -10.008619      -272.3484
   6   2.0000     -10.008530      -272.3459
   7   2.0000      -0.992599       -27.0100
   8   2.0000      -0.758515       -20.6402
   9   2.0000      -0.710016       -19.3205
  10   2.0000      -0.651275       -17.7221
  11   2.0000      -0.644969       -17.5505
  12   2.0000      -0.563733       -15.3400
  13   2.0000      -0.530532       -14.4365
  14   2.0000      -0.462851       -12.5948
  15   2.0000      -0.428232       -11.6528
  16   2.0000      -0.411721       -11.2035
  17   2.0000      -0.391814       -10.6618
  18   2.0000      -0.373982       -10.1766
  19   2.0000      -0.366734        -9.9793
  20   2.0000      -0.350270        -9.5313
  21   2.0000      -0.348676        -9.4879
  22   2.0000      -0.337650        -9.1879
  23   2.0000      -0.333348        -9.0709
  24   2.0000      -0.322763        -8.7828
  25   2.0000      -0.302818        -8.2401
  26   2.0000      -0.292870        -7.9694
  27   2.0000      -0.272195        -7.4068
  28   2.0000      -0.217094        -5.9074
  29   0.0000       0.086028         2.3409
  30   0.0000       0.107518         2.9257
  31   0.0000       0.122262         3.3269
  32   0.0000       0.129064         3.5120
  33   0.0000       0.134216         3.6522

MULLIKEN ATOMIC CHARGES
-----------------------
   0 C :   -0.512052
   1 C :    0.013404
   2 C :   -0.502303
   3 O :   -0.269312
   4 C :    0.048308
   5 C :   -0.512518
   6 C :   -0.524606
   7 H :    0.161980
   8 H :    0.160885
   9 H :    0.162389
  10 H :    0.152126
  11 H :    0.167287
  12 H :    0.161884
  13 H :    0.163769
  14 H :    0.154961
  15 H :    0.161643
  16 H :    0.164301
  17 H :    0.161977
  18 H :    0.159603
  19 H :    0.164606
  20 H :    0.161667
Sum of atomic charges:    0.0000000

LOEWDIN ATOMIC CHARGES
----------------------
   0 C :   -0.391145
   1 C :    0.055638
   2 C :   -0.405675
   3 O :   -0.809054
   4 C :    0.056762
   5 C :   -0.400561
   6 C :   -0.396850
   7 H :    0.164486
   8 H :    0.161549
   9 H :    0.161941
  10 H :    0.171343
  11 H :    0.161309
  12 H :    0.163492
  13 H :    0.160310
  14 H :    0.178523
  15 H :    0.159940
  16 H :    0.160939
  17 H :    0.162707
  18 H :    0.159986
  19 H :    0.161460
  20 H :    0.162901

  Mayer bond orders larger than 0.100000
B(  0-C ,  1-C ) :   0.9399 B(  0-C ,  7-H ) :   0.9661 B(  0-C ,  8-H ) :   0.9703
B(  0-C ,  9-H ) :   0.9777 B(  1-C ,  2-C ) :   0.9029 B(  1-C ,  3-O ) :   0.8331
B(  1-C , 10-H ) :   0.9492 B(  2-C , 11-H ) :   0.9761 B(  2-C , 12-H ) :   0.9646
B(  2-C , 13-H ) :   0.9606 B(  3-O ,  4-C ) :   0.7426 B(  4-C ,  5-C ) :   0.9428
B(  4-C ,  6-C ) :   0.9462 B(  4-C , 14-H ) :   0.9382 B(  5-C , 15-H ) :   0.9615
B(  5-C , 16-H ) :   0.9790 B(  5-C , 17-H ) :   0.9695 B(  6-C , 18-H ) :   0.9684
B(  6-C , 19-H ) :   0.9798 B(  6-C , 20-H ) :   0.9689

Dispersion correction           -0.005364462
FINAL SINGLE POINT ENERGY      -312.196863131011

DIPOLE MOMENT
-------------

Method             : SCF
Type of density    : Electron Density
Multiplicity       :   1
Irrep              :   0
Energy             :  -312.2035813497467416 Eh
Relativity type    :
Basis              : AO
                                X                 Y                 Z
Electronic contribution:      0.127494470      -1.132057334      -0.284626036
Nuclear contribution   :     -0.089236545       1.444020424       1.026914366
                        -----------------------------------------
Total Dipole Moment    :      0.038257925       0.311963090       0.742288330
                        -----------------------------------------
Magnitude (a.u.)       :      0.806087218
Magnitude (Debye)      :      2.048910879

Rotational constants in cm-1:             0.138538             0.053800             0.043532
Rotational constants in MHz :          4153.256180          1612.891434          1305.042835

                             ****ORCA TERMINATED NORMALLY****
TOTAL RUN TIME: 0 days 0 hours 0 minutes 27 seconds 817 msec
