                         Program Version 6.0.0  -   RELEASE  -
|  1> ! pbe def2-sv(p) def2/J RI DEFGRID1 loosescf d4 GCP(DFT/SV(P)) printgap
|  2> %output
|  3>     printlevel normal
|  4> end
|  5> * xyz 0 1
|  6> C 2.3243759935 -0.5006012444 0.5722082296
|  7> C 1.5234551003 -0.124622741 -0.6695872669
|  8> C 0.568910195 1.0482794535 -0.4429115514
|  9> C -0.5518889001 0.7715002318 0.5489178201
| 10> S -1.7533459573 -0.4845221263 -0.0355541281
| 11> H 2.8694264312 0.3625700599 0.9478590956
| 12> H 3.042065113 -1.2810262824 0.3317013642
| 13> H 1.679452586 -0.8709174444 1.364997439
| 14> H 0.9593392849 -0.990718687 -1.0221749606
| 15> H 2.2167947812 0.1557469554 -1.4651410592
| 16> H 0.123091313 1.3317153843 -1.399125429
| 17> H 1.135547518 1.904817488 -0.0691937536
| 18> H -0.1770093368 0.4419562342 1.5151273687
| 19> H -1.1565947718 1.6669044622 0.6921212652
| 20> H -0.9683825874 -1.5418062886 0.1320797456
| 21> *
| 22>
| 23>                          ****END OF INPUT****

CARTESIAN COORDINATES (ANGSTROEM)
---------------------------------
  C      2.324376   -0.500601    0.572208
  C      1.523455   -0.124623   -0.669587
  C      0.568910    1.048279   -0.442912
  C     -0.551889    0.771500    0.548918
  S     -1.753346   -0.484522   -0.035554
  H      2.869426    0.362570    0.947859
  H      3.042065   -1.281026    0.331701
  H      1.679453   -0.870917    1.364997
  H      0.959339   -0.990719   -1.022175
  H      2.216795    0.155747   -1.465141
  H      0.123091    1.331715   -1.399125
  H      1.135548    1.904817   -0.069194
  H     -0.177009    0.441956    1.515127
  H     -1.156595    1.666904    0.692121
  H     -0.968383   -1.541806    0.132080

 Total Charge           Charge          ....    0
 Multiplicity           Mult            ....    1
 Number of Electrons    NEL             ....   50
 Basis Dimension        Dim             ....   94

ORBITAL ENERGIES
----------------

  NO   OCC          E(Eh)            E(eV)
   0   2.0000     -88.013219     -2394.9615
   1   2.0000      -9.916394      -269.8388
   2   2.0000      -9.889142      -269.0972
   3   2.0000      -9.886651      -269.0294
   4   2.0000      -9.878012      -268.7944
   5   2.0000      -7.659686      -208.4306
   6   2.0000      -5.687997      -154.7783
   7   2.0000      -5.684231      -154.6758
   8   2.0000      -5.675912      -154.4494
   9   2.0000      -0.738710       -20.1013
  10   2.0000      -0.685231       -18.6461
  11   2.0000      -0.623533       -16.9672
  12   2.0000      -0.566171       -15.4063
  13   2.0000      -0.501633       -13.6501
  14   2.0000      -0.431722       -11.7478
  15   2.0000      -0.418540       -11.3891
  16   2.0000      -0.381021       -10.3681
  17   2.0000      -0.364628        -9.9220
  18   2.0000      -0.355190        -9.6652
  19   2.0000      -0.337315        -9.1788
  20   2.0000      -0.300572        -8.1790
  21   2.0000      -0.293403        -7.9839
  22   2.0000      -0.287883        -7.8337
  23   2.0000      -0.279159        -7.5963
  24   2.0000      -0.194555        -5.2941
  25   0.0000       0.004447         0.1210
  26   0.0000       0.035069         0.9543
  27   0.0000       0.046318         1.2604
  28   0.0000       0.065831         1.7914
  29   0.0000       0.079162         2.1541

MULLIKEN ATOMIC CHARGES
-----------------------
   0 C :   -0.293778
   1 C :   -0.192103
   2 C :   -0.110252
   3 C :   -0.309577
   4 S :   -0.181051
   5 H :    0.100146
   6 H :    0.106802
   7 H :    0.103964
   8 H :    0.080769
   9 H :    0.090994
  10 H :    0.094378
  11 H :    0.085389
  12 H :    0.137038
  13 H :    0.136818
  14 H :    0.150463
Sum of atomic charges:   -0.0000000

LOEWDIN ATOMIC CHARGES
----------------------
   0 C :   -0.344139
   1 C :   -0.240852
   2 C :   -0.245535
   3 C :   -0.334250
   4 S :    0.016528
   5 H :    0.118041
   6 H :    0.121866
   7 H :    0.114334
   8 H :    0.108641
   9 H :    0.119501
  10 H :    0.119950
  11 H :    0.118150
  12 H :    0.121522
  13 H :    0.128956
  14 H :    0.077288

  Mayer bond orders larger than 0.100000
B(  0-C ,  1-C ) :   1.1451 B(  0-C ,  5-H ) :   0.9545 B(  0-C ,  6-H ) :   0.9516
B(  0-C ,  7-H ) :   0.9506 B(  1-C ,  2-C ) :   1.1266 B(  1-C ,  8-H ) :   0.9184
B(  1-C ,  9-H ) :   0.9268 B(  2-C ,  3-C ) :   1.0720 B(  2-C , 10-H ) :   0.9202
B(  2-C , 11-H ) :   0.9081 B(  3-C ,  4-S ) :   1.0777 B(  3-C , 12-H ) :   0.9212
B(  3-C , 13-H ) :   0.9283 B(  4-S , 14-H ) :   0.9021

Dispersion correction           -0.011585999
FINAL SINGLE POINT ENERGY      -555.913044456891

DIPOLE MOMENT
-------------

Method             : SCF
Type of density    : Electron Density
Multiplicity       :   1
Irrep              :   0
Energy             :  -555.9647315011280853 Eh
Relativity type    :
Basis              : AO
                                X                 Y                 Z
Electronic contribution:     -8.585579271      -1.007958330      -0.783546998
Nuclear contribution   :      9.172296421       1.120082955       0.965685968
                        -----------------------------------------
Total Dipole Moment    :      0.586717150       0.112124625       0.182138970
                        -----------------------------------------
Magnitude (a.u.)       :      0.624486629
Magnitude (Debye)      :      1.587318865

Rotational constants in cm-1:             0.236840             0.066082             0.061328
Rotational constants in MHz :          7100.283799          1981.091135          1838.555721

                             ****ORCA TERMINATED NORMALLY****
TOTAL RUN TIME: 0 days 0 hours 0 minutes 5 seconds 619 msec
