                         Program Version 6.0.0  -   RELEASE  -
|  1> ! pbe def2-sv(p) def2/J RI DEFGRID1 loosescf d4 GCP(DFT/SV(P)) printgap
|  2> %output
|  3>     printlevel normal
|  4> end
|  5> * xyz 0 1
|  6> C -2.2270042218 0.6865421657 -0.849894353
|  7> C -1.7838968821 0.5347730528 0.6002371131
|  8> C -0.8893932804 -0.696516016 0.796016932
|  9> C 0.4049947771 -0.5499470389 0.0389334681
| 10> O 0.7514901319 -1.251778732 -0.8890143126
| 11> O 1.134045868 0.451220462 0.5162214208
| 12> C 2.3916704171 0.747637988 -0.0962566898
| 13> H -2.7964496903 -0.1836694599 -1.1677084482
| 14> H -2.8499484321 1.5693048698 -0.9664321589
| 15> H -1.3654818276 0.7823543634 -1.5082375117
| 16> H -2.661460195 0.429756235 1.2388477862
| 17> H -1.2353603409 1.4232710448 0.9161559321
| 18> H -1.392221003 -1.5951576811 0.4392836192
| 19> H -0.6499890836 -0.8049876572 1.8541178037
| 20> H 3.0995704621 0.9274091101 0.7090405371
| 21> H 2.2789549809 1.6414306859 -0.7091451184
| 22> H 2.7100431556 -0.091464885 -0.7159873801
| 23> *
| 24>
| 25>                          ****END OF INPUT****

CARTESIAN COORDINATES (ANGSTROEM)
---------------------------------
  C     -2.227004    0.686542   -0.849894
  C     -1.783897    0.534773    0.600237
  C     -0.889393   -0.696516    0.796017
  C      0.404995   -0.549947    0.038933
  O      0.751490   -1.251779   -0.889014
  O      1.134046    0.451220    0.516221
  C      2.391670    0.747638   -0.096257
  H     -2.796450   -0.183669   -1.167708
  H     -2.849948    1.569305   -0.966432
  H     -1.365482    0.782354   -1.508238
  H     -2.661460    0.429756    1.238848
  H     -1.235360    1.423271    0.916156
  H     -1.392221   -1.595158    0.439284
  H     -0.649989   -0.804988    1.854118
  H      3.099570    0.927409    0.709041
  H      2.278955    1.641431   -0.709145
  H      2.710043   -0.091465   -0.715987

 Total Charge           Charge          ....    0
 Multiplicity           Mult            ....    1
 Number of Electrons    NEL             ....   56
 Basis Dimension        Dim             ....  118

ORBITAL ENERGIES
----------------

  NO   OCC          E(Eh)            E(eV)
   0   2.0000     -18.799700      -511.5658
   1   2.0000     -18.730658      -509.6871
   2   2.0000     -10.005057      -272.2514
   3   2.0000      -9.940810      -270.5032
   4   2.0000      -9.896609      -269.3004
   5   2.0000      -9.894332      -269.2385
   6   2.0000      -9.877592      -268.7830
   7   2.0000      -1.005004       -27.3475
   8   2.0000      -0.907830       -24.7033
   9   2.0000      -0.728184       -19.8149
  10   2.0000      -0.670045       -18.2329
  11   2.0000      -0.620622       -16.8880
  12   2.0000      -0.540049       -14.6955
  13   2.0000      -0.506307       -13.7773
  14   2.0000      -0.450810       -12.2672
  15   2.0000      -0.436923       -11.8893
  16   2.0000      -0.413054       -11.2398
  17   2.0000      -0.399870       -10.8810
  18   2.0000      -0.398288       -10.8380
  19   2.0000      -0.365110        -9.9352
  20   2.0000      -0.349304        -9.5051
  21   2.0000      -0.345977        -9.4145
  22   2.0000      -0.314187        -8.5495
  23   2.0000      -0.300719        -8.1830
  24   2.0000      -0.299148        -8.1402
  25   2.0000      -0.294966        -8.0264
  26   2.0000      -0.255469        -6.9517
  27   2.0000      -0.215372        -5.8606
  28   0.0000      -0.019368        -0.5270
  29   0.0000       0.039615         1.0780
  30   0.0000       0.058701         1.5973
  31   0.0000       0.080002         2.1770
  32   0.0000       0.083602         2.2749

MULLIKEN ATOMIC CHARGES
-----------------------
   0 C :   -0.286527
   1 C :   -0.217106
   2 C :   -0.104825
   3 C :    0.077719
   4 O :   -0.199536
   5 O :   -0.246439
   6 C :   -0.127401
   7 H :    0.103539
   8 H :    0.106093
   9 H :    0.118187
  10 H :    0.094853
  11 H :    0.102737
  12 H :    0.097835
  13 H :    0.106223
  14 H :    0.122077
  15 H :    0.119981
  16 H :    0.132591
Sum of atomic charges:   -0.0000000

LOEWDIN ATOMIC CHARGES
----------------------
   0 C :   -0.342434
   1 C :   -0.229112
   2 C :   -0.241800
   3 C :    0.032868
   4 O :   -0.168361
   5 O :   -0.075670
   6 C :   -0.208339
   7 H :    0.120675
   8 H :    0.120677
   9 H :    0.120791
  10 H :    0.118837
  11 H :    0.119603
  12 H :    0.132004
  13 H :    0.136895
  14 H :    0.120528
  15 H :    0.118943
  16 H :    0.123897

  Mayer bond orders larger than 0.100000
B(  0-C ,  1-C ) :   1.1523 B(  0-C ,  7-H ) :   0.9535 B(  0-C ,  8-H ) :   0.9515
B(  0-C ,  9-H ) :   0.9481 B(  1-C ,  2-C ) :   1.1097 B(  1-C , 10-H ) :   0.9275
B(  1-C , 11-H ) :   0.9248 B(  2-C ,  3-C ) :   1.0245 B(  2-C , 12-H ) :   0.9118
B(  2-C , 13-H ) :   0.8956 B(  3-C ,  4-O ) :   2.0758 B(  3-C ,  5-O ) :   1.1906
B(  5-O ,  6-C ) :   0.9388 B(  6-C , 14-H ) :   0.9613 B(  6-C , 15-H ) :   0.9597
B(  6-C , 16-H ) :   0.9308

Dispersion correction           -0.012443394
FINAL SINGLE POINT ENERGY      -346.238613144257

DIPOLE MOMENT
-------------

Method             : SCF
Type of density    : Electron Density
Multiplicity       :   1
Irrep              :   0
Energy             :  -346.3033632532464594 Eh
Relativity type    :
Basis              : AO
                                X                 Y                 Z
Electronic contribution:      4.585400878      -3.211595168       0.380007912
Nuclear contribution   :     -4.533734510       3.832971366       0.078847038
                        -----------------------------------------
Total Dipole Moment    :      0.051666368       0.621376198       0.458854950
                        -----------------------------------------
Magnitude (a.u.)       :      0.774161261
Magnitude (Debye)      :      1.967761545

Rotational constants in cm-1:             0.146408             0.055023             0.051471
Rotational constants in MHz :          4389.205744          1649.536941          1543.055713

                             ****ORCA TERMINATED NORMALLY****
TOTAL RUN TIME: 0 days 0 hours 0 minutes 10 seconds 479 msec
