                         Program Version 6.0.0  -   RELEASE  -
|  1> ! r2scan-3c def2/J RI DEFGRID2 scfconv6 printgap
|  2> %output
|  3>     printlevel normal
|  4> end
|  5> * xyz 0 1
|  6> C 1.9404376186 -1.0464113647 0.2578554809
|  7> C 1.2498705564 0.1578328763 0.8930001438
|  8> C 0.1793400168 0.8411965732 0.0210001644
|  9> H -0.042991721 1.8110545785 0.5038232636
| 10> C -1.1820361306 0.1301144301 -0.1247702639
| 11> C -1.1060776621 -1.2227557682 -0.8276885733
| 12> C -1.8991187987 0.0031053625 1.2164268298
| 13> O 0.6585253825 1.0915408171 -1.2910136083
| 14> H 1.3338510266 -1.9425436076 0.3319393929
| 15> H 2.8859050894 -1.2365035438 0.7605350141
| 16> H 2.139439243 -0.855649851 -0.7938026707
| 17> H 0.7989099419 -0.1215319496 1.844358023
| 18> H 2.0105826633 0.9143698327 1.1069290022
| 19> H -1.7674917857 0.7986536306 -0.7680652495
| 20> H -0.455054105 -1.1561012862 -1.6945490132
| 21> H -0.7344256441 -1.9915802891 -0.1570884675
| 22> H -2.0984639014 -1.5168733304 -1.1616703874
| 23> H -1.3883428069 -0.7056406554 1.8633348643
| 24> H -2.9127473842 -0.3549720023 1.056360951
| 25> H -1.9485759396 0.9642448331 1.7230063642
| 26> H 1.4690126445 1.6144474262 -1.2320734023
| 27> *
| 28>
| 29>                          ****END OF INPUT****

CARTESIAN COORDINATES (ANGSTROEM)
---------------------------------
  C      1.940438   -1.046411    0.257855
  C      1.249871    0.157833    0.893000
  C      0.179340    0.841197    0.021000
  H     -0.042992    1.811055    0.503823
  C     -1.182036    0.130114   -0.124770
  C     -1.106078   -1.222756   -0.827689
  C     -1.899119    0.003105    1.216427
  O      0.658525    1.091541   -1.291014
  H      1.333851   -1.942544    0.331939
  H      2.885905   -1.236504    0.760535
  H      2.139439   -0.855650   -0.793803
  H      0.798910   -0.121532    1.844358
  H      2.010583    0.914370    1.106929
  H     -1.767492    0.798654   -0.768065
  H     -0.455054   -1.156101   -1.694549
  H     -0.734426   -1.991580   -0.157088
  H     -2.098464   -1.516873   -1.161670
  H     -1.388343   -0.705641    1.863335
  H     -2.912747   -0.354972    1.056361
  H     -1.948576    0.964245    1.723006
  H      1.469013    1.614447   -1.232073

 Total Charge           Charge          ....    0
 Multiplicity           Mult            ....    1
 Number of Electrons    NEL             ....   58
 Basis Dimension        Dim             ....  208

ORBITAL ENERGIES
----------------

  NO   OCC          E(Eh)            E(eV)
   0   2.0000     -18.945654      -515.5375
   1   2.0000     -10.077057      -274.2106
   2   2.0000     -10.030520      -272.9443
   3   2.0000     -10.026910      -272.8461
   4   2.0000     -10.016964      -272.5754
   5   2.0000     -10.012670      -272.4586
   6   2.0000     -10.007704      -272.3235
   7   2.0000      -0.984004       -26.7761
   8   2.0000      -0.770465       -20.9654
   9   2.0000      -0.725655       -19.7461
  10   2.0000      -0.649590       -17.6762
  11   2.0000      -0.640006       -17.4155
  12   2.0000      -0.575521       -15.6607
  13   2.0000      -0.508178       -13.8282
  14   2.0000      -0.465524       -12.6676
  15   2.0000      -0.447588       -12.1795
  16   2.0000      -0.425443       -11.5769
  17   2.0000      -0.399109       -10.8603
  18   2.0000      -0.387758       -10.5514
  19   2.0000      -0.361048        -9.8246
  20   2.0000      -0.350242        -9.5306
  21   2.0000      -0.341349        -9.2886
  22   2.0000      -0.333807        -9.0833
  23   2.0000      -0.329317        -8.9612
  24   2.0000      -0.302720        -8.2374
  25   2.0000      -0.300572        -8.1790
  26   2.0000      -0.292143        -7.9496
  27   2.0000      -0.266797        -7.2599
  28   2.0000      -0.233113        -6.3433
  29   0.0000       0.057874         1.5748
  30   0.0000       0.091352         2.4858
  31   0.0000       0.111865         3.0440
  32   0.0000       0.122659         3.3377
  33   0.0000       0.128703         3.5022

MULLIKEN ATOMIC CHARGES
-----------------------
   0 C :   -0.471355
   1 C :   -0.314439
   2 C :    0.050442
   3 H :    0.127712
   4 C :    0.020812
   5 C :   -0.565353
   6 C :   -0.517522
   7 O :   -0.439662
   8 H :    0.141579
   9 H :    0.144729
  10 H :    0.171322
  11 H :    0.148733
  12 H :    0.143538
  13 H :    0.152023
  14 H :    0.178712
  15 H :    0.142964
  16 H :    0.147970
  17 H :    0.153285
  18 H :    0.149136
  19 H :    0.147577
  20 H :    0.287797
Sum of atomic charges:   -0.0000000

LOEWDIN ATOMIC CHARGES
----------------------
   0 C :   -0.419971
   1 C :   -0.294459
   2 C :    0.058056
   3 H :    0.165987
   4 C :   -0.210024
   5 C :   -0.407680
   6 C :   -0.413297
   7 O :   -0.628288
   8 H :    0.150704
   9 H :    0.148696
  10 H :    0.163166
  11 H :    0.162119
  12 H :    0.154187
  13 H :    0.168806
  14 H :    0.168786
  15 H :    0.149364
  16 H :    0.152745
  17 H :    0.151373
  18 H :    0.156353
  19 H :    0.154285
  20 H :    0.269091

  Mayer bond orders larger than 0.100000
B(  0-C ,  1-C ) :   0.8752 B(  0-C ,  8-H ) :   0.9689 B(  0-C ,  9-H ) :   0.9707
B(  0-C , 10-H ) :   0.9878 B(  1-C ,  2-C ) :   0.9096 B(  1-C , 11-H ) :   0.9703
B(  1-C , 12-H ) :   0.9735 B(  2-C ,  3-H ) :   0.9624 B(  2-C ,  4-C ) :   0.9410
B(  2-C ,  7-O ) :   0.8960 B(  4-C ,  5-C ) :   0.8803 B(  4-C ,  6-C ) :   0.8945
B(  4-C , 13-H ) :   0.9518 B(  5-C , 14-H ) :   0.9692 B(  5-C , 15-H ) :   0.9855
B(  5-C , 16-H ) :   0.9665 B(  6-C , 17-H ) :   0.9838 B(  6-C , 18-H ) :   0.9673
B(  6-C , 19-H ) :   0.9753 B(  7-O , 20-H ) :   0.9006

Dispersion correction           -0.005873822
FINAL SINGLE POINT ENERGY      -312.198256850916

DIPOLE MOMENT
-------------

Method             : SCF
Type of density    : Electron Density
Multiplicity       :   1
Irrep              :   0
Energy             :  -312.2037715863163498 Eh
Relativity type    :
Basis              : AO
                                X                 Y                 Z
Electronic contribution:      0.896232851       3.736184880      -2.727845733
Nuclear contribution   :     -0.656691489      -3.528770062       3.154682993
                        -----------------------------------------
Total Dipole Moment    :      0.239541362       0.207414818       0.426837260
                        -----------------------------------------
Magnitude (a.u.)       :      0.531592906
Magnitude (Debye)      :      1.351201784

Rotational constants in cm-1:             0.102797             0.063653             0.059575
Rotational constants in MHz :          3081.766774          1908.255645          1786.020599

                             ****ORCA TERMINATED NORMALLY****
TOTAL RUN TIME: 0 days 0 hours 0 minutes 28 seconds 291 msec
