                         Program Version 6.0.0  -   RELEASE  -
|  1> ! r2scan-3c def2/J RI DEFGRID2 scfconv6 printgap
|  2> %output
|  3>     printlevel normal
|  4> end
|  5> %cpcm
|  6>     smd true
|  7>     smdsolvent "water"
|  8> end
|  9> * xyz 0 1
| 10> C 1.9404376186 -1.0464113647 0.2578554809
| 11> C 1.2498705564 0.1578328763 0.8930001438
| 12> C 0.1793400168 0.8411965732 0.0210001644
| 13> H -0.042991721 1.8110545785 0.5038232636
| 14> C -1.1820361306 0.1301144301 -0.1247702639
| 15> C -1.1060776621 -1.2227557682 -0.8276885733
| 16> C -1.8991187987 0.0031053625 1.2164268298
| 17> O 0.6585253825 1.0915408171 -1.2910136083
| 18> H 1.3338510266 -1.9425436076 0.3319393929
| 19> H 2.8859050894 -1.2365035438 0.7605350141
| 20> H 2.139439243 -0.855649851 -0.7938026707
| 21> H 0.7989099419 -0.1215319496 1.844358023
| 22> H 2.0105826633 0.9143698327 1.1069290022
| 23> H -1.7674917857 0.7986536306 -0.7680652495
| 24> H -0.455054105 -1.1561012862 -1.6945490132
| 25> H -0.7344256441 -1.9915802891 -0.1570884675
| 26> H -2.0984639014 -1.5168733304 -1.1616703874
| 27> H -1.3883428069 -0.7056406554 1.8633348643
| 28> H -2.9127473842 -0.3549720023 1.056360951
| 29> H -1.9485759396 0.9642448331 1.7230063642
| 30> H 1.4690126445 1.6144474262 -1.2320734023
| 31> *
| 32>
| 33>                          ****END OF INPUT****

CARTESIAN COORDINATES (ANGSTROEM)
---------------------------------
  C      1.940438   -1.046411    0.257855
  C      1.249871    0.157833    0.893000
  C      0.179340    0.841197    0.021000
  H     -0.042992    1.811055    0.503823
  C     -1.182036    0.130114   -0.124770
  C     -1.106078   -1.222756   -0.827689
  C     -1.899119    0.003105    1.216427
  O      0.658525    1.091541   -1.291014
  H      1.333851   -1.942544    0.331939
  H      2.885905   -1.236504    0.760535
  H      2.139439   -0.855650   -0.793803
  H      0.798910   -0.121532    1.844358
  H      2.010583    0.914370    1.106929
  H     -1.767492    0.798654   -0.768065
  H     -0.455054   -1.156101   -1.694549
  H     -0.734426   -1.991580   -0.157088
  H     -2.098464   -1.516873   -1.161670
  H     -1.388343   -0.705641    1.863335
  H     -2.912747   -0.354972    1.056361
  H     -1.948576    0.964245    1.723006
  H      1.469013    1.614447   -1.232073

 Total Charge           Charge          ....    0
 Multiplicity           Mult            ....    1
 Number of Electrons    NEL             ....   58
 Basis Dimension        Dim             ....  208

ORBITAL ENERGIES
----------------

  NO   OCC          E(Eh)            E(eV)
   0   2.0000     -18.946903      -515.5714
   1   2.0000     -10.071258      -274.0529
   2   2.0000     -10.026109      -272.8243
   3   2.0000     -10.016757      -272.5698
   4   2.0000     -10.008490      -272.3449
   5   2.0000     -10.006093      -272.2796
   6   2.0000     -10.005070      -272.2518
   7   2.0000      -0.984191       -26.7812
   8   2.0000      -0.765019       -20.8172
   9   2.0000      -0.718290       -19.5457
  10   2.0000      -0.645469       -17.5641
  11   2.0000      -0.633912       -17.2496
  12   2.0000      -0.569334       -15.4924
  13   2.0000      -0.503686       -13.7060
  14   2.0000      -0.460737       -12.5373
  15   2.0000      -0.441041       -12.0013
  16   2.0000      -0.420219       -11.4347
  17   2.0000      -0.395239       -10.7550
  18   2.0000      -0.379996       -10.3402
  19   2.0000      -0.355741        -9.6802
  20   2.0000      -0.345447        -9.4001
  21   2.0000      -0.340339        -9.2611
  22   2.0000      -0.327841        -8.9210
  23   2.0000      -0.322256        -8.7690
  24   2.0000      -0.298131        -8.1125
  25   2.0000      -0.296091        -8.0571
  26   2.0000      -0.288421        -7.8483
  27   2.0000      -0.261521        -7.1163
  28   2.0000      -0.234398        -6.3783
  29   0.0000       0.073697         2.0054
  30   0.0000       0.101673         2.7667
  31   0.0000       0.120782         3.2867
  32   0.0000       0.129681         3.5288
  33   0.0000       0.135375         3.6837

MULLIKEN ATOMIC CHARGES
-----------------------
   0 C :   -0.527237
   1 C :   -0.304335
   2 C :    0.054682
   3 H :    0.141184
   4 C :    0.026609
   5 C :   -0.592744
   6 C :   -0.560515
   7 O :   -0.521633
   8 H :    0.157093
   9 H :    0.157145
  10 H :    0.169095
  11 H :    0.160270
  12 H :    0.160576
  13 H :    0.155004
  14 H :    0.165802
  15 H :    0.165259
  16 H :    0.162085
  17 H :    0.170058
  18 H :    0.160150
  19 H :    0.160128
  20 H :    0.341325
Sum of atomic charges:    0.0000000

LOEWDIN ATOMIC CHARGES
----------------------
   0 C :   -0.427682
   1 C :   -0.291907
   2 C :    0.059736
   3 H :    0.173186
   4 C :   -0.211286
   5 C :   -0.416747
   6 C :   -0.419047
   7 O :   -0.662032
   8 H :    0.153246
   9 H :    0.152442
  10 H :    0.159565
  11 H :    0.166494
  12 H :    0.161496
  13 H :    0.167202
  14 H :    0.162357
  15 H :    0.156234
  16 H :    0.156098
  17 H :    0.156671
  18 H :    0.158658
  19 H :    0.158162
  20 H :    0.287154

  Mayer bond orders larger than 0.100000
B(  0-C ,  1-C ) :   0.8557 B(  0-C ,  8-H ) :   0.9696 B(  0-C ,  9-H ) :   0.9671
B(  0-C , 10-H ) :   0.9901 B(  1-C ,  2-C ) :   0.9216 B(  1-C , 11-H ) :   0.9686
B(  1-C , 12-H ) :   0.9692 B(  2-C ,  3-H ) :   0.9593 B(  2-C ,  4-C ) :   0.9290
B(  2-C ,  7-O ) :   0.8847 B(  4-C ,  5-C ) :   0.8639 B(  4-C ,  6-C ) :   0.8951
B(  4-C , 13-H ) :   0.9576 B(  5-C , 14-H ) :   0.9708 B(  5-C , 15-H ) :   0.9813
B(  5-C , 16-H ) :   0.9655 B(  6-C , 17-H ) :   0.9809 B(  6-C , 18-H ) :   0.9650
B(  6-C , 19-H ) :   0.9718 B(  7-O , 20-H ) :   0.8754

Dispersion correction           -0.005873822
FINAL SINGLE POINT ENERGY      -312.203187008385

DIPOLE MOMENT
-------------

Method             : SCF
Type of density    : Electron Density
Multiplicity       :   1
Irrep              :   0
Energy             :  -312.2087017437853547 Eh
Relativity type    :
Basis              : AO
                                X                 Y                 Z
Electronic contribution:      1.003979560       3.822187307      -2.431244803
Nuclear contribution   :     -0.656691489      -3.528770062       3.154682993
                        -----------------------------------------
Total Dipole Moment    :      0.347288071       0.293417245       0.723438190
                        -----------------------------------------
Magnitude (a.u.)       :      0.854438704
Magnitude (Debye)      :      2.171810588

Rotational constants in cm-1:             0.102797             0.063653             0.059575
Rotational constants in MHz :          3081.766774          1908.255645          1786.020599

                             ****ORCA TERMINATED NORMALLY****
TOTAL RUN TIME: 0 days 0 hours 0 minutes 30 seconds 812 msec
