                         Program Version 6.0.0  -   RELEASE  -
|  1> ! pbe def2-sv(p) def2/J RI DEFGRID1 loosescf d4 GCP(DFT/SV(P)) printgap
|  2> %output
|  3>     printlevel normal
|  4> end
|  5> * xyz 0 1
|  6> C -1.0275553423 -0.3635545033 -0.3836415592
|  7> C 0.14502165 0.3843126381 0.2649635305
|  8> C 1.4712133578 -0.0942391139 -0.3471859162
|  9> O 1.6655543219 -1.4422173957 0.0147154963
| 10> O -0.0442765058 1.7659967647 0.0600878007
| 11> O -2.2430156736 -0.2215922685 0.3077351719
| 12> H -0.7516147592 -1.4211088476 -0.4756718737
| 13> H -1.2016453591 0.0576675942 -1.375952117
| 14> H 0.1607351573 0.1493792778 1.3402514983
| 15> H 2.2882868204 0.5302793266 0.0384064112
| 16> H 1.4199080172 0.0232120985 -1.4367740346
| 17> H 2.4855907063 -1.7666904085 -0.3829424618
| 18> H 0.602602542 2.2696894863 0.5736623553
| 19> H -2.1495686172 -0.5888733612 1.1981373694
| 20> *
| 21>
| 22>                          ****END OF INPUT****

CARTESIAN COORDINATES (ANGSTROEM)
---------------------------------
  C     -1.027555   -0.363555   -0.383642
  C      0.145022    0.384313    0.264964
  C      1.471213   -0.094239   -0.347186
  O      1.665554   -1.442217    0.014715
  O     -0.044277    1.765997    0.060088
  O     -2.243016   -0.221592    0.307735
  H     -0.751615   -1.421109   -0.475672
  H     -1.201645    0.057668   -1.375952
  H      0.160735    0.149379    1.340251
  H      2.288287    0.530279    0.038406
  H      1.419908    0.023212   -1.436774
  H      2.485591   -1.766690   -0.382942
  H      0.602603    2.269689    0.573662
  H     -2.149569   -0.588873    1.198137

 Total Charge           Charge          ....    0
 Multiplicity           Mult            ....    1
 Number of Electrons    NEL             ....   50
 Basis Dimension        Dim             ....  100

ORBITAL ENERGIES
----------------

  NO   OCC          E(Eh)            E(eV)
   0   2.0000     -18.756197      -510.3821
   1   2.0000     -18.747287      -510.1396
   2   2.0000     -18.731876      -509.7203
   3   2.0000      -9.937037      -270.4005
   4   2.0000      -9.935106      -270.3480
   5   2.0000      -9.918813      -269.9046
   6   2.0000      -0.935203       -25.4482
   7   2.0000      -0.923192       -25.1213
   8   2.0000      -0.905444       -24.6384
   9   2.0000      -0.680300       -18.5119
  10   2.0000      -0.600223       -16.3329
  11   2.0000      -0.534259       -14.5379
  12   2.0000      -0.490200       -13.3390
  13   2.0000      -0.452386       -12.3101
  14   2.0000      -0.450987       -12.2720
  15   2.0000      -0.395249       -10.7553
  16   2.0000      -0.388533       -10.5725
  17   2.0000      -0.363375        -9.8879
  18   2.0000      -0.345059        -9.3895
  19   2.0000      -0.299277        -8.1437
  20   2.0000      -0.292524        -7.9600
  21   2.0000      -0.260669        -7.0932
  22   2.0000      -0.228081        -6.2064
  23   2.0000      -0.219284        -5.9670
  24   2.0000      -0.201011        -5.4698
  25   0.0000       0.018718         0.5093
  26   0.0000       0.023132         0.6295
  27   0.0000       0.042707         1.1621
  28   0.0000       0.079585         2.1656
  29   0.0000       0.093196         2.5360

MULLIKEN ATOMIC CHARGES
-----------------------
   0 C :    0.041739
   1 C :   -0.011428
   2 C :   -0.000428
   3 O :   -0.432883
   4 O :   -0.413979
   5 O :   -0.432049
   6 H :    0.087048
   7 H :    0.084300
   8 H :    0.050557
   9 H :    0.059948
  10 H :    0.075504
  11 H :    0.304041
  12 H :    0.296305
  13 H :    0.291326
Sum of atomic charges:    0.0000000

LOEWDIN ATOMIC CHARGES
----------------------
   0 C :   -0.130658
   1 C :   -0.088787
   2 C :   -0.138448
   3 O :   -0.343558
   4 O :   -0.319246
   5 O :   -0.334747
   6 H :    0.101510
   7 H :    0.117808
   8 H :    0.093834
   9 H :    0.089979
  10 H :    0.099967
  11 H :    0.289021
  12 H :    0.283404
  13 H :    0.279921

  Mayer bond orders larger than 0.100000
B(  0-C ,  1-C ) :   1.0395 B(  0-C ,  5-O ) :   1.0807 B(  0-C ,  6-H ) :   0.9194
B(  0-C ,  7-H ) :   0.9089 B(  1-C ,  2-C ) :   1.0289 B(  1-C ,  4-O ) :   1.0702
B(  1-C ,  8-H ) :   0.8970 B(  2-C ,  3-O ) :   1.0680 B(  2-C ,  9-H ) :   0.9170
B(  2-C , 10-H ) :   0.9107 B(  3-O , 11-H ) :   0.8488 B(  4-O , 12-H ) :   0.8500
B(  5-O , 13-H ) :   0.8556

Dispersion correction           -0.008967500
FINAL SINGLE POINT ENERGY      -344.002639493478

DIPOLE MOMENT
-------------

Method             : SCF
Type of density    : Electron Density
Multiplicity       :   1
Irrep              :   0
Energy             :  -344.0752244633973760 Eh
Relativity type    :
Basis              : AO
                                X                 Y                 Z
Electronic contribution:     -1.299476577       0.506924605       0.796803192
Nuclear contribution   :      2.668589478      -0.698777055      -0.482997218
                        -----------------------------------------
Total Dipole Moment    :      1.369112901      -0.191852450       0.313805974
                        -----------------------------------------
Magnitude (a.u.)       :      1.417657112
Magnitude (Debye)      :      3.603398013

Rotational constants in cm-1:             0.164388             0.081760             0.059300
Rotational constants in MHz :          4928.240439          2451.101399          1777.769661

                             ****ORCA TERMINATED NORMALLY****
TOTAL RUN TIME: 0 days 0 hours 0 minutes 6 seconds 953 msec
