                         Program Version 6.0.0  -   RELEASE  -
|  1> ! pbe def2-sv(p) def2/J RI DEFGRID1 loosescf d4 GCP(DFT/SV(P)) printgap
|  2> %output
|  3>     printlevel normal
|  4> end
|  5> * xyz 0 1
|  6> C -2.4709400326 0.0010630266 1.2926371535
|  7> O -1.0612836838 -0.0004080408 0.9638783315
|  8> C -0.7440893132 -0.000562621 -0.3146695965
|  9> C 0.7722110019 4.42993e-05 -0.535555949
| 10> Cl 1.4468991835 1.4555818543 0.2046623044
| 11> Cl 1.4483523522 -1.4542931261 0.2056795403
| 12> F -1.2859623365 -1.0727282265 -0.995847277
| 13> F -1.2871978002 1.0701352153 -0.9970080398
| 14> H -2.4925992656 -0.0072968094 2.377027553
| 15> H -2.9474613226 -0.8902206655 0.8852709866
| 16> H -2.9420468723 0.9013801367 0.8991118678
| 17> H 1.0014306407 -0.0003307321 -1.6036447453
| 18> *
| 19>
| 20>                          ****END OF INPUT****

CARTESIAN COORDINATES (ANGSTROEM)
---------------------------------
  C     -2.470940    0.001063    1.292637
  O     -1.061284   -0.000408    0.963878
  C     -0.744089   -0.000563   -0.314670
  C      0.772211    0.000044   -0.535556
  Cl     1.446899    1.455582    0.204662
  Cl     1.448352   -1.454293    0.205680
  F     -1.285962   -1.072728   -0.995847
  F     -1.287198    1.070135   -0.997008
  H     -2.492599   -0.007297    2.377028
  H     -2.947461   -0.890221    0.885271
  H     -2.942047    0.901380    0.899112
  H      1.001431   -0.000331   -1.603645

 Total Charge           Charge          ....    0
 Multiplicity           Mult            ....    1
 Number of Electrons    NEL             ....   82
 Basis Dimension        Dim             ....  128

ORBITAL ENERGIES
----------------

  NO   OCC          E(Eh)            E(eV)
   0   2.0000    -100.646335     -2738.7260
   1   2.0000    -100.646294     -2738.7249
   2   2.0000     -24.277456      -660.6232
   3   2.0000     -24.277312      -660.6192
   4   2.0000     -18.809047      -511.8202
   5   2.0000     -10.105170      -274.9757
   6   2.0000     -10.012794      -272.4620
   7   2.0000      -9.953249      -270.8417
   8   2.0000      -9.182617      -249.8717
   9   2.0000      -9.182583      -249.8708
  10   2.0000      -7.014635      -190.8779
  11   2.0000      -7.014616      -190.8774
  12   2.0000      -7.002156      -190.5384
  13   2.0000      -7.002137      -190.5378
  14   2.0000      -7.001684      -190.5255
  15   2.0000      -7.001672      -190.5252
  16   2.0000      -1.150808       -31.3151
  17   2.0000      -1.074514       -29.2390
  18   2.0000      -0.993250       -27.0277
  19   2.0000      -0.839203       -22.8359
  20   2.0000      -0.754739       -20.5375
  21   2.0000      -0.696968       -18.9655
  22   2.0000      -0.628867       -17.1123
  23   2.0000      -0.558516       -15.1980
  24   2.0000      -0.517051       -14.0697
  25   2.0000      -0.508675       -13.8417
  26   2.0000      -0.492801       -13.4098
  27   2.0000      -0.433369       -11.7926
  28   2.0000      -0.425928       -11.5901
  29   2.0000      -0.409424       -11.1410
  30   2.0000      -0.403602       -10.9826
  31   2.0000      -0.387890       -10.5550
  32   2.0000      -0.354532        -9.6473
  33   2.0000      -0.348119        -9.4728
  34   2.0000      -0.337028        -9.1710
  35   2.0000      -0.318413        -8.6645
  36   2.0000      -0.289903        -7.8887
  37   2.0000      -0.289195        -7.8694
  38   2.0000      -0.267195        -7.2708
  39   2.0000      -0.264349        -7.1933
  40   2.0000      -0.262458        -7.1418
  41   0.0000      -0.020737        -0.5643
  42   0.0000      -0.008314        -0.2262
  43   0.0000       0.041073         1.1177
  44   0.0000       0.051752         1.4082
  45   0.0000       0.078280         2.1301

MULLIKEN ATOMIC CHARGES
-----------------------
   0 C :   -0.105717
   1 O :   -0.246641
   2 C :    0.381341
   3 C :   -0.123106
   4 Cl:   -0.056078
   5 Cl:   -0.056052
   6 F :   -0.179916
   7 F :   -0.180009
   8 H :    0.136286
   9 H :    0.125537
  10 H :    0.125606
  11 H :    0.178749
Sum of atomic charges:    0.0000000

LOEWDIN ATOMIC CHARGES
----------------------
   0 C :   -0.195174
   1 O :   -0.086597
   2 C :    0.054581
   3 C :   -0.306268
   4 Cl:    0.100219
   5 Cl:    0.100239
   6 F :   -0.090463
   7 F :   -0.090363
   8 H :    0.129567
   9 H :    0.120865
  10 H :    0.120878
  11 H :    0.142517

  Mayer bond orders larger than 0.100000
B(  0-C ,  1-O ) :   0.9231 B(  0-C ,  8-H ) :   0.9622 B(  0-C ,  9-H ) :   0.9488
B(  0-C , 10-H ) :   0.9492 B(  1-O ,  2-C ) :   1.2771 B(  2-C ,  3-C ) :   0.8820
B(  2-C ,  6-F ) :   1.0972 B(  2-C ,  7-F ) :   1.0968 B(  3-C ,  4-Cl) :   1.0733
B(  3-C ,  5-Cl) :   1.0734 B(  3-C , 11-H ) :   0.8907

Dispersion correction           -0.012116380
FINAL SINGLE POINT ENERGY     -1310.586069184986

DIPOLE MOMENT
-------------

Method             : SCF
Type of density    : Electron Density
Multiplicity       :   1
Irrep              :   0
Energy             : -1310.6421075368693892 Eh
Relativity type    :
Basis              : AO
                                X                 Y                 Z
Electronic contribution:      7.865244585      -0.003063193      -3.536582775
Nuclear contribution   :     -8.441978321       0.003980318       3.709577692
                        -----------------------------------------
Total Dipole Moment    :     -0.576733736       0.000917125       0.172994917
                        -----------------------------------------
Magnitude (a.u.)       :      0.602121154
Magnitude (Debye)      :      1.530470346

Rotational constants in cm-1:             0.059045             0.039060             0.031407
Rotational constants in MHz :          1770.137023          1171.003307           941.570288

                             ****ORCA TERMINATED NORMALLY****
TOTAL RUN TIME: 0 days 0 hours 0 minutes 6 seconds 92 msec
