                         Program Version 6.0.0  -   RELEASE  -
|  1> ! r2scan-3c def2/J RI DEFGRID2 scfconv6 printgap
|  2> %output
|  3>     printlevel normal
|  4> end
|  5> * xyz 0 1
|  6> C -2.2146390226 0.2820209591 -1.1284383607
|  7> C -2.1865765715 -0.5985787789 0.1148957606
|  8> C -1.2264870119 -0.1450925583 1.2196266409
|  9> C 0.2782896236 -0.0640648932 0.9124816693
| 10> C 0.8627025848 -1.1715167194 0.0100869419
| 11> C 1.8517382931 -0.4763315054 -0.9406931553
| 12> C 2.0905445428 0.9026849274 -0.3271563221
| 13> C 0.7301119604 1.2526781424 0.2648087646
| 14> H -2.3880054925 1.3210778212 -0.8569508971
| 15> H -1.2814440819 0.2123379915 -1.6797992576
| 16> H -3.0192228384 -0.0360676215 -1.788643855
| 17> H -3.1883241427 -0.6097027228 0.5531532671
| 18> H -1.9596557274 -1.6263054689 -0.1749865526
| 19> H -1.5408691425 0.8419456891 1.5686673843
| 20> H -1.3615800807 -0.8390053352 2.0538784371
| 21> H 0.7879891484 -0.1223509804 1.8814924509
| 22> H 1.3688682856 -1.9225683013 0.6166381364
| 23> H 0.088012013 -1.6810991543 -0.5569464765
| 24> H 2.7755815916 -1.0413458305 -1.0571680926
| 25> H 1.4040315907 -0.3608191614 -1.9290544711
| 26> H 2.8352979615 0.8356594214 0.4679213778
| 27> H 2.433666422 1.6313538398 -1.0604010203
| 28> H 0.7846187187 2.0615160986 0.9932209464
| 29> H 0.0482613811 1.5522655901 -0.5279208727
| 30> *
| 31>
| 32>                          ****END OF INPUT****

CARTESIAN COORDINATES (ANGSTROEM)
---------------------------------
  C     -2.214639    0.282021   -1.128438
  C     -2.186577   -0.598579    0.114896
  C     -1.226487   -0.145093    1.219627
  C      0.278290   -0.064065    0.912482
  C      0.862703   -1.171517    0.010087
  C      1.851738   -0.476332   -0.940693
  C      2.090545    0.902685   -0.327156
  C      0.730112    1.252678    0.264809
  H     -2.388005    1.321078   -0.856951
  H     -1.281444    0.212338   -1.679799
  H     -3.019223   -0.036068   -1.788644
  H     -3.188324   -0.609703    0.553153
  H     -1.959656   -1.626305   -0.174987
  H     -1.540869    0.841946    1.568667
  H     -1.361580   -0.839005    2.053878
  H      0.787989   -0.122351    1.881492
  H      1.368868   -1.922568    0.616638
  H      0.088012   -1.681099   -0.556946
  H      2.775582   -1.041346   -1.057168
  H      1.404032   -0.360819   -1.929054
  H      2.835298    0.835659    0.467921
  H      2.433666    1.631354   -1.060401
  H      0.784619    2.061516    0.993221
  H      0.048261    1.552266   -0.527921

 Total Charge           Charge          ....    0
 Multiplicity           Mult            ....    1
 Number of Electrons    NEL             ....   64
 Basis Dimension        Dim             ....  232

ORBITAL ENERGIES
----------------

  NO   OCC          E(Eh)            E(eV)
   0   2.0000     -10.024810      -272.7889
   1   2.0000     -10.022152      -272.7166
   2   2.0000     -10.019139      -272.6346
   3   2.0000     -10.017926      -272.6016
   4   2.0000     -10.017141      -272.5803
   5   2.0000     -10.015472      -272.5349
   6   2.0000     -10.014042      -272.4959
   7   2.0000     -10.013954      -272.4935
   8   2.0000      -0.803473       -21.8636
   9   2.0000      -0.747298       -20.3350
  10   2.0000      -0.686123       -18.6703
  11   2.0000      -0.670645       -18.2492
  12   2.0000      -0.625677       -17.0255
  13   2.0000      -0.555335       -15.1114
  14   2.0000      -0.532350       -14.4860
  15   2.0000      -0.498361       -13.5611
  16   2.0000      -0.453380       -12.3371
  17   2.0000      -0.437478       -11.9044
  18   2.0000      -0.410033       -11.1576
  19   2.0000      -0.403989       -10.9931
  20   2.0000      -0.383516       -10.4360
  21   2.0000      -0.368987       -10.0406
  22   2.0000      -0.359740        -9.7890
  23   2.0000      -0.329285        -8.9603
  24   2.0000      -0.317497        -8.6395
  25   2.0000      -0.308378        -8.3914
  26   2.0000      -0.300295        -8.1714
  27   2.0000      -0.299566        -8.1516
  28   2.0000      -0.284728        -7.7479
  29   2.0000      -0.275721        -7.5028
  30   2.0000      -0.271647        -7.3919
  31   2.0000      -0.263760        -7.1773
  32   0.0000       0.076778         2.0892
  33   0.0000       0.091204         2.4818
  34   0.0000       0.095308         2.5935
  35   0.0000       0.120457         3.2778
  36   0.0000       0.129068         3.5121

MULLIKEN ATOMIC CHARGES
-----------------------
   0 C :   -0.497583
   1 C :   -0.241604
   2 C :   -0.320939
   3 C :   -0.019933
   4 C :   -0.392618
   5 C :   -0.289974
   6 C :   -0.270295
   7 C :   -0.368173
   8 H :    0.148819
   9 H :    0.150550
  10 H :    0.145479
  11 H :    0.141917
  12 H :    0.139553
  13 H :    0.148028
  14 H :    0.143899
  15 H :    0.158748
  16 H :    0.154986
  17 H :    0.155940
  18 H :    0.148055
  19 H :    0.150795
  20 H :    0.146852
  21 H :    0.150354
  22 H :    0.152148
  23 H :    0.164996
Sum of atomic charges:   -0.0000000

LOEWDIN ATOMIC CHARGES
----------------------
   0 C :   -0.430607
   1 C :   -0.318150
   2 C :   -0.298360
   3 C :   -0.224091
   4 C :   -0.299642
   5 C :   -0.304392
   6 C :   -0.302742
   7 C :   -0.301040
   8 H :    0.150121
   9 H :    0.148910
  10 H :    0.149887
  11 H :    0.152935
  12 H :    0.148607
  13 H :    0.158939
  14 H :    0.157104
  15 H :    0.161321
  16 H :    0.157222
  17 H :    0.158416
  18 H :    0.154926
  19 H :    0.153168
  20 H :    0.154828
  21 H :    0.154926
  22 H :    0.156556
  23 H :    0.161159

  Mayer bond orders larger than 0.100000
B(  0-C ,  1-C ) :   0.8733 B(  0-C ,  8-H ) :   0.9801 B(  0-C ,  9-H ) :   0.9809
B(  0-C , 10-H ) :   0.9683 B(  1-C ,  2-C ) :   0.9202 B(  1-C , 11-H ) :   0.9624
B(  1-C , 12-H ) :   0.9883 B(  2-C ,  3-C ) :   0.8438 B(  2-C , 13-H ) :   0.9991
B(  2-C , 14-H ) :   0.9708 B(  3-C ,  4-C ) :   0.9252 B(  3-C ,  7-C ) :   0.9260
B(  3-C , 15-H ) :   0.9707 B(  4-C ,  5-C ) :   0.9197 B(  4-C , 16-H ) :   0.9725
B(  4-C , 17-H ) :   0.9857 B(  5-C ,  6-C ) :   0.9158 B(  5-C , 18-H ) :   0.9550
B(  5-C , 19-H ) :   0.9930 B(  6-C ,  7-C ) :   0.8783 B(  6-C , 20-H ) :   0.9881
B(  6-C , 21-H ) :   0.9585 B(  7-C , 22-H ) :   0.9538 B(  7-C , 23-H ) :   0.9930

Dispersion correction           -0.007384230
FINAL SINGLE POINT ENERGY      -314.376542367829

DIPOLE MOMENT
-------------

Method             : SCF
Type of density    : Electron Density
Multiplicity       :   1
Irrep              :   0
Energy             :  -314.3796528963252968 Eh
Relativity type    :
Basis              : AO
                                X                 Y                 Z
Electronic contribution:      2.048447681      -0.219649238       1.451939396
Nuclear contribution   :     -2.075943151       0.203479941      -1.404335781
                        -----------------------------------------
Total Dipole Moment    :     -0.027495470      -0.016169297       0.047603616
                        -----------------------------------------
Magnitude (a.u.)       :      0.057302280
Magnitude (Debye)      :      0.145650820

Rotational constants in cm-1:             0.108310             0.043803             0.043143
Rotational constants in MHz :          3247.060886          1313.189856          1293.391606

                             ****ORCA TERMINATED NORMALLY****
TOTAL RUN TIME: 0 days 0 hours 0 minutes 25 seconds 580 msec
