                         Program Version 6.0.0  -   RELEASE  -
|  1> ! r2scan-3c def2/J RI DEFGRID2 scfconv6 printgap
|  2> %output
|  3>     printlevel normal
|  4> end
|  5> %cpcm
|  6>     smd true
|  7>     smdsolvent "water"
|  8> end
|  9> * xyz 0 1
| 10> C -2.2146390226 0.2820209591 -1.1284383607
| 11> C -2.1865765715 -0.5985787789 0.1148957606
| 12> C -1.2264870119 -0.1450925583 1.2196266409
| 13> C 0.2782896236 -0.0640648932 0.9124816693
| 14> C 0.8627025848 -1.1715167194 0.0100869419
| 15> C 1.8517382931 -0.4763315054 -0.9406931553
| 16> C 2.0905445428 0.9026849274 -0.3271563221
| 17> C 0.7301119604 1.2526781424 0.2648087646
| 18> H -2.3880054925 1.3210778212 -0.8569508971
| 19> H -1.2814440819 0.2123379915 -1.6797992576
| 20> H -3.0192228384 -0.0360676215 -1.788643855
| 21> H -3.1883241427 -0.6097027228 0.5531532671
| 22> H -1.9596557274 -1.6263054689 -0.1749865526
| 23> H -1.5408691425 0.8419456891 1.5686673843
| 24> H -1.3615800807 -0.8390053352 2.0538784371
| 25> H 0.7879891484 -0.1223509804 1.8814924509
| 26> H 1.3688682856 -1.9225683013 0.6166381364
| 27> H 0.088012013 -1.6810991543 -0.5569464765
| 28> H 2.7755815916 -1.0413458305 -1.0571680926
| 29> H 1.4040315907 -0.3608191614 -1.9290544711
| 30> H 2.8352979615 0.8356594214 0.4679213778
| 31> H 2.433666422 1.6313538398 -1.0604010203
| 32> H 0.7846187187 2.0615160986 0.9932209464
| 33> H 0.0482613811 1.5522655901 -0.5279208727
| 34> *
| 35>
| 36>                          ****END OF INPUT****

CARTESIAN COORDINATES (ANGSTROEM)
---------------------------------
  C     -2.214639    0.282021   -1.128438
  C     -2.186577   -0.598579    0.114896
  C     -1.226487   -0.145093    1.219627
  C      0.278290   -0.064065    0.912482
  C      0.862703   -1.171517    0.010087
  C      1.851738   -0.476332   -0.940693
  C      2.090545    0.902685   -0.327156
  C      0.730112    1.252678    0.264809
  H     -2.388005    1.321078   -0.856951
  H     -1.281444    0.212338   -1.679799
  H     -3.019223   -0.036068   -1.788644
  H     -3.188324   -0.609703    0.553153
  H     -1.959656   -1.626305   -0.174987
  H     -1.540869    0.841946    1.568667
  H     -1.361580   -0.839005    2.053878
  H      0.787989   -0.122351    1.881492
  H      1.368868   -1.922568    0.616638
  H      0.088012   -1.681099   -0.556946
  H      2.775582   -1.041346   -1.057168
  H      1.404032   -0.360819   -1.929054
  H      2.835298    0.835659    0.467921
  H      2.433666    1.631354   -1.060401
  H      0.784619    2.061516    0.993221
  H      0.048261    1.552266   -0.527921

 Total Charge           Charge          ....    0
 Multiplicity           Mult            ....    1
 Number of Electrons    NEL             ....   64
 Basis Dimension        Dim             ....  232

ORBITAL ENERGIES
----------------

  NO   OCC          E(Eh)            E(eV)
   0   2.0000     -10.017706      -272.5956
   1   2.0000     -10.014469      -272.5076
   2   2.0000     -10.012053      -272.4418
   3   2.0000     -10.011255      -272.4201
   4   2.0000     -10.010840      -272.4088
   5   2.0000     -10.008300      -272.3397
   6   2.0000     -10.007261      -272.3114
   7   2.0000     -10.005780      -272.2711
   8   2.0000      -0.796704       -21.6794
   9   2.0000      -0.740144       -20.1403
  10   2.0000      -0.679206       -18.4821
  11   2.0000      -0.664225       -18.0745
  12   2.0000      -0.618842       -16.8395
  13   2.0000      -0.548343       -14.9212
  14   2.0000      -0.526025       -14.3139
  15   2.0000      -0.491585       -13.3767
  16   2.0000      -0.446311       -12.1447
  17   2.0000      -0.430694       -11.7198
  18   2.0000      -0.403057       -10.9677
  19   2.0000      -0.396805       -10.7976
  20   2.0000      -0.376368       -10.2415
  21   2.0000      -0.361672        -9.8416
  22   2.0000      -0.352419        -9.5898
  23   2.0000      -0.321905        -8.7595
  24   2.0000      -0.310240        -8.4421
  25   2.0000      -0.301054        -8.1921
  26   2.0000      -0.294014        -8.0005
  27   2.0000      -0.293209        -7.9786
  28   2.0000      -0.277600        -7.5539
  29   2.0000      -0.268648        -7.3103
  30   2.0000      -0.264846        -7.2068
  31   2.0000      -0.256320        -6.9748
  32   0.0000       0.085327         2.3219
  33   0.0000       0.098243         2.6733
  34   0.0000       0.102229         2.7818
  35   0.0000       0.126956         3.4547
  36   0.0000       0.134818         3.6686

MULLIKEN ATOMIC CHARGES
-----------------------
   0 C :   -0.529632
   1 C :   -0.249560
   2 C :   -0.344308
   3 C :   -0.013931
   4 C :   -0.413245
   5 C :   -0.303646
   6 C :   -0.295057
   7 C :   -0.380480
   8 H :    0.157326
   9 H :    0.162329
  10 H :    0.153671
  11 H :    0.148912
  12 H :    0.148354
  13 H :    0.154778
  14 H :    0.150970
  15 H :    0.165888
  16 H :    0.162596
  17 H :    0.166297
  18 H :    0.155143
  19 H :    0.160003
  20 H :    0.155863
  21 H :    0.157224
  22 H :    0.159652
  23 H :    0.170851
Sum of atomic charges:    0.0000000

LOEWDIN ATOMIC CHARGES
----------------------
   0 C :   -0.437782
   1 C :   -0.320620
   2 C :   -0.302107
   3 C :   -0.223644
   4 C :   -0.303358
   5 C :   -0.308597
   6 C :   -0.307563
   7 C :   -0.304482
   8 H :    0.152271
   9 H :    0.152313
  10 H :    0.151288
  11 H :    0.154211
  12 H :    0.151077
  13 H :    0.160365
  14 H :    0.158249
  15 H :    0.163297
  16 H :    0.158532
  17 H :    0.161079
  18 H :    0.156089
  19 H :    0.155774
  20 H :    0.156769
  21 H :    0.156206
  22 H :    0.157829
  23 H :    0.162806

  Mayer bond orders larger than 0.100000
B(  0-C ,  1-C ) :   0.8666 B(  0-C ,  8-H ) :   0.9770 B(  0-C ,  9-H ) :   0.9790
B(  0-C , 10-H ) :   0.9665 B(  1-C ,  2-C ) :   0.9166 B(  1-C , 11-H ) :   0.9630
B(  1-C , 12-H ) :   0.9873 B(  2-C ,  3-C ) :   0.8387 B(  2-C , 13-H ) :   0.9983
B(  2-C , 14-H ) :   0.9718 B(  3-C ,  4-C ) :   0.9239 B(  3-C ,  7-C ) :   0.9230
B(  3-C , 15-H ) :   0.9702 B(  4-C ,  5-C ) :   0.9139 B(  4-C , 16-H ) :   0.9723
B(  4-C , 17-H ) :   0.9854 B(  5-C ,  6-C ) :   0.9123 B(  5-C , 18-H ) :   0.9546
B(  5-C , 19-H ) :   0.9906 B(  6-C ,  7-C ) :   0.8783 B(  6-C , 20-H ) :   0.9868
B(  6-C , 21-H ) :   0.9570 B(  7-C , 22-H ) :   0.9531 B(  7-C , 23-H ) :   0.9916

Dispersion correction           -0.007384230
FINAL SINGLE POINT ENERGY      -314.374012599154

DIPOLE MOMENT
-------------

Method             : SCF
Type of density    : Electron Density
Multiplicity       :   1
Irrep              :   0
Energy             :  -314.3771231276509184 Eh
Relativity type    :
Basis              : AO
                                X                 Y                 Z
Electronic contribution:      2.039538827      -0.228284249       1.453781769
Nuclear contribution   :     -2.075943151       0.203479941      -1.404335781
                        -----------------------------------------
Total Dipole Moment    :     -0.036404324      -0.024804308       0.049445989
                        -----------------------------------------
Magnitude (a.u.)       :      0.066222612
Magnitude (Debye)      :      0.168324502

Rotational constants in cm-1:             0.108310             0.043803             0.043143
Rotational constants in MHz :          3247.060886          1313.189856          1293.391606

                             ****ORCA TERMINATED NORMALLY****
TOTAL RUN TIME: 0 days 0 hours 0 minutes 31 seconds 79 msec
