                         Program Version 6.0.0  -   RELEASE  -
|  1> ! r2scan-3c def2/J RI DEFGRID2 scfconv6 printgap
|  2> %output
|  3>     printlevel normal
|  4> end
|  5> * xyz 0 1
|  6> C -1.4432292907 0.3911326284 -0.2042119347
|  7> C 0.0142741708 0.3711435632 0.2773312605
|  8> C 0.8069107453 -0.7258231002 -0.437803711
|  9> O 2.0747218809 -0.8241689192 0.1790736982
| 10> O 0.5537891266 1.6505722843 0.032385016
| 11> O -2.1376916806 -0.7925157991 0.0955035724
| 12> H -1.4562764246 0.4887621176 -1.2920581454
| 13> H -1.9355329129 1.2706494163 0.2258410561
| 14> H 0.0437730641 0.1590419757 1.3588543963
| 15> H 0.9080649048 -0.4560061219 -1.4967061175
| 16> H 0.249961803 -1.6661703773 -0.3571229774
| 17> H 2.5822277645 -1.5316810007 -0.2396185402
| 18> H 1.5032564979 1.616772701 0.2222511519
| 19> H -2.2740747814 -0.8536573548 1.051657092
| 20> *
| 21>
| 22>                          ****END OF INPUT****

CARTESIAN COORDINATES (ANGSTROEM)
---------------------------------
  C     -1.443229    0.391133   -0.204212
  C      0.014274    0.371144    0.277331
  C      0.806911   -0.725823   -0.437804
  O      2.074722   -0.824169    0.179074
  O      0.553789    1.650572    0.032385
  O     -2.137692   -0.792516    0.095504
  H     -1.456276    0.488762   -1.292058
  H     -1.935533    1.270649    0.225841
  H      0.043773    0.159042    1.358854
  H      0.908065   -0.456006   -1.496706
  H      0.249962   -1.666170   -0.357123
  H      2.582228   -1.531681   -0.239619
  H      1.503256    1.616773    0.222251
  H     -2.274075   -0.853657    1.051657

 Total Charge           Charge          ....    0
 Multiplicity           Mult            ....    1
 Number of Electrons    NEL             ....   50
 Basis Dimension        Dim             ....  169

ORBITAL ENERGIES
----------------

  NO   OCC          E(Eh)            E(eV)
   0   2.0000     -18.959825      -515.9231
   1   2.0000     -18.958143      -515.8773
   2   2.0000     -18.950288      -515.6636
   3   2.0000     -10.083690      -274.3911
   4   2.0000     -10.079113      -274.2666
   5   2.0000     -10.077287      -274.2169
   6   2.0000      -1.004982       -27.3469
   7   2.0000      -0.994473       -27.0610
   8   2.0000      -0.981293       -26.7024
   9   2.0000      -0.726119       -19.7587
  10   2.0000      -0.645993       -17.5784
  11   2.0000      -0.569066       -15.4851
  12   2.0000      -0.501589       -13.6489
  13   2.0000      -0.483543       -13.1579
  14   2.0000      -0.467379       -12.7180
  15   2.0000      -0.432286       -11.7631
  16   2.0000      -0.411277       -11.1914
  17   2.0000      -0.391221       -10.6457
  18   2.0000      -0.365121        -9.9355
  19   2.0000      -0.332577        -9.0499
  20   2.0000      -0.310336        -8.4447
  21   2.0000      -0.299423        -8.1477
  22   2.0000      -0.250527        -6.8172
  23   2.0000      -0.243091        -6.6148
  24   2.0000      -0.238256        -6.4833
  25   0.0000       0.036556         0.9947
  26   0.0000       0.064650         1.7592
  27   0.0000       0.083554         2.2736
  28   0.0000       0.117820         3.2061
  29   0.0000       0.133920         3.6441

MULLIKEN ATOMIC CHARGES
-----------------------
   0 C :   -0.205256
   1 C :    0.067048
   2 C :   -0.168371
   3 O :   -0.444716
   4 O :   -0.437214
   5 O :   -0.423851
   6 H :    0.144687
   7 H :    0.145195
   8 H :    0.131228
   9 H :    0.132939
  10 H :    0.146779
  11 H :    0.297393
  12 H :    0.312618
  13 H :    0.301523
Sum of atomic charges:    0.0000000

LOEWDIN ATOMIC CHARGES
----------------------
   0 C :    0.038967
   1 C :    0.081595
   2 C :    0.023019
   3 O :   -0.623970
   4 O :   -0.590187
   5 O :   -0.610263
   6 H :    0.184396
   7 H :    0.170339
   8 H :    0.169521
   9 H :    0.165396
  10 H :    0.174191
  11 H :    0.269652
  12 H :    0.279374
  13 H :    0.267972

  Mayer bond orders larger than 0.100000
B(  0-C ,  1-C ) :   0.9169 B(  0-C ,  5-O ) :   0.9774 B(  0-C ,  6-H ) :   0.9705
B(  0-C ,  7-H ) :   0.9711 B(  1-C ,  2-C ) :   0.9425 B(  1-C ,  4-O ) :   0.8892
B(  1-C ,  8-H ) :   0.9543 B(  2-C ,  3-O ) :   0.9359 B(  2-C ,  9-H ) :   0.9630
B(  2-C , 10-H ) :   0.9535 B(  3-O , 11-H ) :   0.8984 B(  4-O , 12-H ) :   0.8791
B(  5-O , 13-H ) :   0.8937

Dispersion correction           -0.002977019
FINAL SINGLE POINT ENERGY      -344.723743644893

DIPOLE MOMENT
-------------

Method             : SCF
Type of density    : Electron Density
Multiplicity       :   1
Irrep              :   0
Energy             :  -344.7310795853086347 Eh
Relativity type    :
Basis              : AO
                                X                 Y                 Z
Electronic contribution:      0.686014510       0.422503556       0.651385524
Nuclear contribution   :     -0.347903198      -0.911672044      -0.489766708
                        -----------------------------------------
Total Dipole Moment    :      0.338111312      -0.489168488       0.161618816
                        -----------------------------------------
Magnitude (a.u.)       :      0.616218882
Magnitude (Debye)      :      1.566303922

Rotational constants in cm-1:             0.174711             0.079384             0.058988
Rotational constants in MHz :          5237.717140          2379.867140          1768.403256

                             ****ORCA TERMINATED NORMALLY****
TOTAL RUN TIME: 0 days 0 hours 0 minutes 20 seconds 645 msec
