                         Program Version 6.0.0  -   RELEASE  -
|  1> ! r2scan-3c def2/J RI DEFGRID2 scfconv6 printgap
|  2> %output
|  3>     printlevel normal
|  4> end
|  5> %cpcm
|  6>     smd true
|  7>     smdsolvent "water"
|  8> end
|  9> * xyz 0 1
| 10> C -1.4432292907 0.3911326284 -0.2042119347
| 11> C 0.0142741708 0.3711435632 0.2773312605
| 12> C 0.8069107453 -0.7258231002 -0.437803711
| 13> O 2.0747218809 -0.8241689192 0.1790736982
| 14> O 0.5537891266 1.6505722843 0.032385016
| 15> O -2.1376916806 -0.7925157991 0.0955035724
| 16> H -1.4562764246 0.4887621176 -1.2920581454
| 17> H -1.9355329129 1.2706494163 0.2258410561
| 18> H 0.0437730641 0.1590419757 1.3588543963
| 19> H 0.9080649048 -0.4560061219 -1.4967061175
| 20> H 0.249961803 -1.6661703773 -0.3571229774
| 21> H 2.5822277645 -1.5316810007 -0.2396185402
| 22> H 1.5032564979 1.616772701 0.2222511519
| 23> H -2.2740747814 -0.8536573548 1.051657092
| 24> *
| 25>
| 26>                          ****END OF INPUT****

CARTESIAN COORDINATES (ANGSTROEM)
---------------------------------
  C     -1.443229    0.391133   -0.204212
  C      0.014274    0.371144    0.277331
  C      0.806911   -0.725823   -0.437804
  O      2.074722   -0.824169    0.179074
  O      0.553789    1.650572    0.032385
  O     -2.137692   -0.792516    0.095504
  H     -1.456276    0.488762   -1.292058
  H     -1.935533    1.270649    0.225841
  H      0.043773    0.159042    1.358854
  H      0.908065   -0.456006   -1.496706
  H      0.249962   -1.666170   -0.357123
  H      2.582228   -1.531681   -0.239619
  H      1.503256    1.616773    0.222251
  H     -2.274075   -0.853657    1.051657

 Total Charge           Charge          ....    0
 Multiplicity           Mult            ....    1
 Number of Electrons    NEL             ....   50
 Basis Dimension        Dim             ....  169

ORBITAL ENERGIES
----------------

  NO   OCC          E(Eh)            E(eV)
   0   2.0000     -18.957189      -515.8513
   1   2.0000     -18.956281      -515.8266
   2   2.0000     -18.954751      -515.7850
   3   2.0000     -10.079547      -274.2784
   4   2.0000     -10.074392      -274.1381
   5   2.0000     -10.070112      -274.0217
   6   2.0000      -1.004547       -27.3351
   7   2.0000      -0.991795       -26.9881
   8   2.0000      -0.981489       -26.7077
   9   2.0000      -0.722202       -19.6521
  10   2.0000      -0.640570       -17.4308
  11   2.0000      -0.565456       -15.3869
  12   2.0000      -0.496308       -13.5052
  13   2.0000      -0.478227       -13.0132
  14   2.0000      -0.464734       -12.6460
  15   2.0000      -0.429670       -11.6919
  16   2.0000      -0.408166       -11.1068
  17   2.0000      -0.390514       -10.6264
  18   2.0000      -0.363355        -9.8874
  19   2.0000      -0.335189        -9.1210
  20   2.0000      -0.312881        -8.5139
  21   2.0000      -0.299949        -8.1620
  22   2.0000      -0.249480        -6.7887
  23   2.0000      -0.245332        -6.6758
  24   2.0000      -0.240188        -6.5358
  25   0.0000       0.050312         1.3691
  26   0.0000       0.087307         2.3757
  27   0.0000       0.094158         2.5622
  28   0.0000       0.129362         3.5201
  29   0.0000       0.141894         3.8611

MULLIKEN ATOMIC CHARGES
-----------------------
   0 C :   -0.208046
   1 C :    0.079147
   2 C :   -0.183675
   3 O :   -0.508708
   4 O :   -0.507774
   5 O :   -0.497365
   6 H :    0.162208
   7 H :    0.153545
   8 H :    0.149757
   9 H :    0.152088
  10 H :    0.151828
  11 H :    0.348815
  12 H :    0.351705
  13 H :    0.356475
Sum of atomic charges:    0.0000000

LOEWDIN ATOMIC CHARGES
----------------------
   0 C :    0.035892
   1 C :    0.080959
   2 C :    0.026697
   3 O :   -0.645435
   4 O :   -0.622519
   5 O :   -0.635548
   6 H :    0.187893
   7 H :    0.175456
   8 H :    0.178591
   9 H :    0.172484
  10 H :    0.177794
  11 H :    0.287959
  12 H :    0.292092
  13 H :    0.287684

  Mayer bond orders larger than 0.100000
B(  0-C ,  1-C ) :   0.9217 B(  0-C ,  5-O ) :   0.9744 B(  0-C ,  6-H ) :   0.9706
B(  0-C ,  7-H ) :   0.9605 B(  1-C ,  2-C ) :   0.9412 B(  1-C ,  4-O ) :   0.8708
B(  1-C ,  8-H ) :   0.9419 B(  2-C ,  3-O ) :   0.9259 B(  2-C ,  9-H ) :   0.9626
B(  2-C , 10-H ) :   0.9556 B(  3-O , 11-H ) :   0.8719 B(  4-O , 12-H ) :   0.8599
B(  5-O , 13-H ) :   0.8645

Dispersion correction           -0.002977019
FINAL SINGLE POINT ENERGY      -344.744031989660

DIPOLE MOMENT
-------------

Method             : SCF
Type of density    : Electron Density
Multiplicity       :   1
Irrep              :   0
Energy             :  -344.7513679300760145 Eh
Relativity type    :
Basis              : AO
                                X                 Y                 Z
Electronic contribution:      0.785767085       0.243022168       0.730022694
Nuclear contribution   :     -0.347903198      -0.911672044      -0.489766708
                        -----------------------------------------
Total Dipole Moment    :      0.437863887      -0.668649876       0.240255987
                        -----------------------------------------
Magnitude (a.u.)       :      0.834589946
Magnitude (Debye)      :      2.121359057

Rotational constants in cm-1:             0.174711             0.079384             0.058988
Rotational constants in MHz :          5237.717140          2379.867140          1768.403256

                             ****ORCA TERMINATED NORMALLY****
TOTAL RUN TIME: 0 days 0 hours 0 minutes 23 seconds 471 msec
