                         Program Version 6.0.0  -   RELEASE  -
|  1> ! r2scan-3c def2/J RI DEFGRID2 scfconv6 printgap
|  2> %output
|  3>     printlevel normal
|  4> end
|  5> * xyz 0 1
|  6> C -1.820535055 1.1666733701 0.6586411276
|  7> C -1.443091702 0.0339435687 -0.2878583298
|  8> C -0.0410711711 -0.5224999727 -0.0034904009
|  9> C 1.0765780966 0.4617240077 -0.38915224
| 10> C 2.0348755385 0.7536410771 0.7587580475
| 11> O 0.1930116588 -1.7179429472 -0.7367945456
| 12> H -1.1311284759 2.0012950472 0.5641453208
| 13> H -2.8226728776 1.5227294697 0.435055733
| 14> H -1.7988409476 0.8204494404 1.6895658942
| 15> H -2.1696286389 -0.77545692 -0.1781251768
| 16> H -1.4816287206 0.3752523803 -1.3243404356
| 17> H 0.0304534309 -0.7485649994 1.0727298325
| 18> H 1.6244415019 0.0101410966 -1.2182983138
| 19> H 0.6423845951 1.3948652373 -0.7483383743
| 20> H 2.8177253015 1.4327497872 0.4305803416
| 21> H 1.5052596377 1.2128629826 1.5904358415
| 22> H 2.5001896702 -0.1649814597 1.1081986013
| 23> H -0.4775560941 -2.3750780722 -0.5072464114
| 24> *
| 25>
| 26>                          ****END OF INPUT****

CARTESIAN COORDINATES (ANGSTROEM)
---------------------------------
  C     -1.820535    1.166673    0.658641
  C     -1.443092    0.033944   -0.287858
  C     -0.041071   -0.522500   -0.003490
  C      1.076578    0.461724   -0.389152
  C      2.034876    0.753641    0.758758
  O      0.193012   -1.717943   -0.736795
  H     -1.131128    2.001295    0.564145
  H     -2.822673    1.522729    0.435056
  H     -1.798841    0.820449    1.689566
  H     -2.169629   -0.775457   -0.178125
  H     -1.481629    0.375252   -1.324340
  H      0.030453   -0.748565    1.072730
  H      1.624442    0.010141   -1.218298
  H      0.642385    1.394865   -0.748338
  H      2.817725    1.432750    0.430580
  H      1.505260    1.212863    1.590436
  H      2.500190   -0.164981    1.108199
  H     -0.477556   -2.375078   -0.507246

 Total Charge           Charge          ....    0
 Multiplicity           Mult            ....    1
 Number of Electrons    NEL             ....   50
 Basis Dimension        Dim             ....  179

ORBITAL ENERGIES
----------------

  NO   OCC          E(Eh)            E(eV)
   0   2.0000     -18.942641      -515.4555
   1   2.0000     -10.076964      -274.2081
   2   2.0000     -10.026552      -272.8364
   3   2.0000     -10.021889      -272.7095
   4   2.0000     -10.021257      -272.6923
   5   2.0000     -10.015862      -272.5454
   6   2.0000      -0.979952       -26.6658
   7   2.0000      -0.761552       -20.7229
   8   2.0000      -0.719678       -19.5834
   9   2.0000      -0.637958       -17.3597
  10   2.0000      -0.581641       -15.8273
  11   2.0000      -0.538739       -14.6598
  12   2.0000      -0.480519       -13.0756
  13   2.0000      -0.433865       -11.8061
  14   2.0000      -0.410902       -11.1812
  15   2.0000      -0.389062       -10.5869
  16   2.0000      -0.380999       -10.3675
  17   2.0000      -0.365216        -9.9380
  18   2.0000      -0.345398        -9.3988
  19   2.0000      -0.322619        -8.7789
  20   2.0000      -0.315230        -8.5778
  21   2.0000      -0.310757        -8.4561
  22   2.0000      -0.302783        -8.2392
  23   2.0000      -0.277601        -7.5539
  24   2.0000      -0.229914        -6.2563
  25   0.0000       0.062919         1.7121
  26   0.0000       0.088083         2.3969
  27   0.0000       0.108914         2.9637
  28   0.0000       0.118020         3.2115
  29   0.0000       0.128281         3.4907

MULLIKEN ATOMIC CHARGES
-----------------------
   0 C :   -0.492975
   1 C :   -0.247738
   2 C :    0.050822
   3 C :   -0.270549
   4 C :   -0.496997
   5 O :   -0.428477
   6 H :    0.146842
   7 H :    0.149733
   8 H :    0.147891
   9 H :    0.123541
  10 H :    0.153937
  11 H :    0.132344
  12 H :    0.166475
  13 H :    0.143384
  14 H :    0.144051
  15 H :    0.145672
  16 H :    0.151939
  17 H :    0.280106
Sum of atomic charges:    0.0000000

LOEWDIN ATOMIC CHARGES
----------------------
   0 C :   -0.421898
   1 C :   -0.294459
   2 C :    0.056968
   3 C :   -0.279115
   4 C :   -0.420067
   5 O :   -0.622778
   6 H :    0.151517
   7 H :    0.152826
   8 H :    0.150979
   9 H :    0.152358
  10 H :    0.161041
  11 H :    0.160969
  12 H :    0.179648
  13 H :    0.155135
  14 H :    0.149951
  15 H :    0.147938
  16 H :    0.153064
  17 H :    0.265922

  Mayer bond orders larger than 0.100000
B(  0-C ,  1-C ) :   0.8883 B(  0-C ,  6-H ) :   0.9739 B(  0-C ,  7-H ) :   0.9672
B(  0-C ,  8-H ) :   0.9838 B(  1-C ,  2-C ) :   0.8889 B(  1-C ,  9-H ) :   0.9730
B(  1-C , 10-H ) :   0.9721 B(  2-C ,  3-C ) :   0.8582 B(  2-C ,  5-O ) :   0.9042
B(  2-C , 11-H ) :   0.9982 B(  3-C ,  4-C ) :   0.8871 B(  3-C , 12-H ) :   0.9643
B(  3-C , 13-H ) :   0.9800 B(  4-C , 14-H ) :   0.9728 B(  4-C , 15-H ) :   0.9826
B(  4-C , 16-H ) :   0.9802 B(  5-O , 17-H ) :   0.9028

Dispersion correction           -0.004301876
FINAL SINGLE POINT ENERGY      -272.898343835994

DIPOLE MOMENT
-------------

Method             : SCF
Type of density    : Electron Density
Multiplicity       :   1
Irrep              :   0
Energy             :  -272.9036824597888540 Eh
Relativity type    :
Basis              : AO
                                X                 Y                 Z
Electronic contribution:      0.265431272      -4.282586227      -2.387012657
Nuclear contribution   :     -0.711079658       4.389750651       2.723214864
                        -----------------------------------------
Total Dipole Moment    :     -0.445648386       0.107164424       0.336202207
                        -----------------------------------------
Magnitude (a.u.)       :      0.568435240
Magnitude (Debye)      :      1.444847556

Rotational constants in cm-1:             0.128117             0.090595             0.059440
Rotational constants in MHz :          3840.854392          2715.983065          1781.968964

                             ****ORCA TERMINATED NORMALLY****
TOTAL RUN TIME: 0 days 0 hours 0 minutes 21 seconds 905 msec
