                         Program Version 6.0.0  -   RELEASE  -
|  1> ! r2scan-3c def2/J RI DEFGRID2 scfconv6 printgap
|  2> %output
|  3>     printlevel normal
|  4> end
|  5> %cpcm
|  6>     smd true
|  7>     smdsolvent "water"
|  8> end
|  9> * xyz 0 1
| 10> C -1.820535055 1.1666733701 0.6586411276
| 11> C -1.443091702 0.0339435687 -0.2878583298
| 12> C -0.0410711711 -0.5224999727 -0.0034904009
| 13> C 1.0765780966 0.4617240077 -0.38915224
| 14> C 2.0348755385 0.7536410771 0.7587580475
| 15> O 0.1930116588 -1.7179429472 -0.7367945456
| 16> H -1.1311284759 2.0012950472 0.5641453208
| 17> H -2.8226728776 1.5227294697 0.435055733
| 18> H -1.7988409476 0.8204494404 1.6895658942
| 19> H -2.1696286389 -0.77545692 -0.1781251768
| 20> H -1.4816287206 0.3752523803 -1.3243404356
| 21> H 0.0304534309 -0.7485649994 1.0727298325
| 22> H 1.6244415019 0.0101410966 -1.2182983138
| 23> H 0.6423845951 1.3948652373 -0.7483383743
| 24> H 2.8177253015 1.4327497872 0.4305803416
| 25> H 1.5052596377 1.2128629826 1.5904358415
| 26> H 2.5001896702 -0.1649814597 1.1081986013
| 27> H -0.4775560941 -2.3750780722 -0.5072464114
| 28> *
| 29>
| 30>                          ****END OF INPUT****

CARTESIAN COORDINATES (ANGSTROEM)
---------------------------------
  C     -1.820535    1.166673    0.658641
  C     -1.443092    0.033944   -0.287858
  C     -0.041071   -0.522500   -0.003490
  C      1.076578    0.461724   -0.389152
  C      2.034876    0.753641    0.758758
  O      0.193012   -1.717943   -0.736795
  H     -1.131128    2.001295    0.564145
  H     -2.822673    1.522729    0.435056
  H     -1.798841    0.820449    1.689566
  H     -2.169629   -0.775457   -0.178125
  H     -1.481629    0.375252   -1.324340
  H      0.030453   -0.748565    1.072730
  H      1.624442    0.010141   -1.218298
  H      0.642385    1.394865   -0.748338
  H      2.817725    1.432750    0.430580
  H      1.505260    1.212863    1.590436
  H      2.500190   -0.164981    1.108199
  H     -0.477556   -2.375078   -0.507246

 Total Charge           Charge          ....    0
 Multiplicity           Mult            ....    1
 Number of Electrons    NEL             ....   50
 Basis Dimension        Dim             ....  179

ORBITAL ENERGIES
----------------

  NO   OCC          E(Eh)            E(eV)
   0   2.0000     -18.947114      -515.5772
   1   2.0000     -10.072151      -274.0772
   2   2.0000     -10.016974      -272.5757
   3   2.0000     -10.016688      -272.5679
   4   2.0000     -10.010574      -272.4016
   5   2.0000     -10.009807      -272.3807
   6   2.0000      -0.983201       -26.7543
   7   2.0000      -0.755081       -20.5468
   8   2.0000      -0.712276       -19.3820
   9   2.0000      -0.631984       -17.1972
  10   2.0000      -0.574378       -15.6296
  11   2.0000      -0.533786       -14.5250
  12   2.0000      -0.477623       -12.9968
  13   2.0000      -0.425741       -11.5850
  14   2.0000      -0.405767       -11.0415
  15   2.0000      -0.382878       -10.4187
  16   2.0000      -0.376220       -10.2375
  17   2.0000      -0.360326        -9.8050
  18   2.0000      -0.337246        -9.1769
  19   2.0000      -0.317642        -8.6435
  20   2.0000      -0.309653        -8.4261
  21   2.0000      -0.305294        -8.3075
  22   2.0000      -0.298548        -8.1239
  23   2.0000      -0.273939        -7.4543
  24   2.0000      -0.233939        -6.3658
  25   0.0000       0.077396         2.1061
  26   0.0000       0.097637         2.6568
  27   0.0000       0.116041         3.1576
  28   0.0000       0.128298         3.4912
  29   0.0000       0.136984         3.7275

MULLIKEN ATOMIC CHARGES
-----------------------
   0 C :   -0.531843
   1 C :   -0.262630
   2 C :    0.060992
   3 C :   -0.280698
   4 C :   -0.524919
   5 O :   -0.519166
   6 H :    0.158386
   7 H :    0.160498
   8 H :    0.160536
   9 H :    0.148929
  10 H :    0.154358
  11 H :    0.145856
  12 H :    0.159408
  13 H :    0.162171
  14 H :    0.155464
  15 H :    0.159499
  16 H :    0.155915
  17 H :    0.337246
Sum of atomic charges:    0.0000000

LOEWDIN ATOMIC CHARGES
----------------------
   0 C :   -0.427298
   1 C :   -0.294548
   2 C :    0.057674
   3 C :   -0.283985
   4 C :   -0.426245
   5 O :   -0.659885
   6 H :    0.154531
   7 H :    0.155672
   8 H :    0.154653
   9 H :    0.160385
  10 H :    0.160562
  11 H :    0.168301
  12 H :    0.174868
  13 H :    0.161970
  14 H :    0.152816
  15 H :    0.152724
  16 H :    0.153378
  17 H :    0.284428

  Mayer bond orders larger than 0.100000
B(  0-C ,  1-C ) :   0.8852 B(  0-C ,  6-H ) :   0.9710 B(  0-C ,  7-H ) :   0.9647
B(  0-C ,  8-H ) :   0.9813 B(  1-C ,  2-C ) :   0.8979 B(  1-C ,  9-H ) :   0.9726
B(  1-C , 10-H ) :   0.9675 B(  2-C ,  3-C ) :   0.8519 B(  2-C ,  5-O ) :   0.8828
B(  2-C , 11-H ) :   0.9927 B(  3-C ,  4-C ) :   0.8880 B(  3-C , 12-H ) :   0.9660
B(  3-C , 13-H ) :   0.9735 B(  4-C , 14-H ) :   0.9708 B(  4-C , 15-H ) :   0.9793
B(  4-C , 16-H ) :   0.9769 B(  5-O , 17-H ) :   0.8770

Dispersion correction           -0.004301876
FINAL SINGLE POINT ENERGY      -272.904387412280

DIPOLE MOMENT
-------------

Method             : SCF
Type of density    : Electron Density
Multiplicity       :   1
Irrep              :   0
Energy             :  -272.9097260360743462 Eh
Relativity type    :
Basis              : AO
                                X                 Y                 Z
Electronic contribution:      0.054672789      -4.227279567      -2.196138763
Nuclear contribution   :     -0.711079658       4.389750651       2.723214864
                        -----------------------------------------
Total Dipole Moment    :     -0.656406870       0.162471083       0.527076101
                        -----------------------------------------
Magnitude (a.u.)       :      0.857365761
Magnitude (Debye)      :      2.179250576

Rotational constants in cm-1:             0.128117             0.090595             0.059440
Rotational constants in MHz :          3840.854392          2715.983065          1781.968964

                             ****ORCA TERMINATED NORMALLY****
TOTAL RUN TIME: 0 days 0 hours 0 minutes 25 seconds 529 msec
