                         Program Version 6.0.0  -   RELEASE  -
|  1> ! r2scan-3c def2/J RI DEFGRID2 scfconv6 printgap
|  2> %output
|  3>     printlevel normal
|  4> end
|  5> * xyz 0 1
|  6> C -2.5276478871 0.5953968663 0.1273378475
|  7> C -1.1628132714 0.7467140789 -0.5352837033
|  8> C -0.0458936574 0.0165611713 0.2166677063
|  9> H -0.0330697466 0.3751189548 1.2531258547
| 10> C -0.245952871 -1.4974837145 0.2245996232
| 11> C 1.3113757991 0.3536067542 -0.4183167103
| 12> O 2.409049137 -0.172924845 0.295560025
| 13> H -3.2665630459 1.1941886251 -0.399247204
| 14> H -2.8558448995 -0.4398879697 0.1110567543
| 15> H -2.4883141369 0.9302599954 1.161386079
| 16> H -0.9121639389 1.8090559858 -0.588962961
| 17> H -1.2100867346 0.3678586708 -1.5584279041
| 18> H 0.653242679 -1.9838726425 0.596443851
| 19> H -0.435192104 -1.8570620601 -0.7844871561
| 20> H -1.079637203 -1.7801785915 0.8604694073
| 21> H 1.4168498817 1.4427763672 -0.5206241376
| 22> H 1.3752786483 -0.0906594513 -1.414822341
| 23> H 2.423378508 0.2177271914 1.1803043846
| 24> *
| 25>
| 26>                          ****END OF INPUT****

CARTESIAN COORDINATES (ANGSTROEM)
---------------------------------
  C     -2.527648    0.595397    0.127338
  C     -1.162813    0.746714   -0.535284
  C     -0.045894    0.016561    0.216668
  H     -0.033070    0.375119    1.253126
  C     -0.245953   -1.497484    0.224600
  C      1.311376    0.353607   -0.418317
  O      2.409049   -0.172925    0.295560
  H     -3.266563    1.194189   -0.399247
  H     -2.855845   -0.439888    0.111057
  H     -2.488314    0.930260    1.161386
  H     -0.912164    1.809056   -0.588963
  H     -1.210087    0.367859   -1.558428
  H      0.653243   -1.983873    0.596444
  H     -0.435192   -1.857062   -0.784487
  H     -1.079637   -1.780179    0.860469
  H      1.416850    1.442776   -0.520624
  H      1.375279   -0.090659   -1.414822
  H      2.423379    0.217727    1.180304

 Total Charge           Charge          ....    0
 Multiplicity           Mult            ....    1
 Number of Electrons    NEL             ....   50
 Basis Dimension        Dim             ....  179

ORBITAL ENERGIES
----------------

  NO   OCC          E(Eh)            E(eV)
   0   2.0000     -18.946642      -515.5643
   1   2.0000     -10.070869      -274.0423
   2   2.0000     -10.033450      -273.0241
   3   2.0000     -10.028020      -272.8763
   4   2.0000     -10.018808      -272.6256
   5   2.0000     -10.012074      -272.4424
   6   2.0000      -0.983873       -26.7726
   7   2.0000      -0.776530       -21.1305
   8   2.0000      -0.697491       -18.9797
   9   2.0000      -0.643740       -17.5170
  10   2.0000      -0.592825       -16.1316
  11   2.0000      -0.535396       -14.5689
  12   2.0000      -0.463837       -12.6217
  13   2.0000      -0.441326       -12.0091
  14   2.0000      -0.426953       -11.6180
  15   2.0000      -0.402875       -10.9628
  16   2.0000      -0.372156       -10.1269
  17   2.0000      -0.354882        -9.6568
  18   2.0000      -0.349078        -9.4989
  19   2.0000      -0.333202        -9.0669
  20   2.0000      -0.325173        -8.8484
  21   2.0000      -0.297584        -8.0977
  22   2.0000      -0.295751        -8.0478
  23   2.0000      -0.279286        -7.5998
  24   2.0000      -0.233368        -6.3503
  25   0.0000       0.062396         1.6979
  26   0.0000       0.092914         2.5283
  27   0.0000       0.109877         2.9899
  28   0.0000       0.120758         3.2860
  29   0.0000       0.129588         3.5263

MULLIKEN ATOMIC CHARGES
-----------------------
   0 C :   -0.497964
   1 C :   -0.243184
   2 C :   -0.011921
   3 H :    0.131628
   4 C :   -0.540522
   5 C :   -0.189087
   6 O :   -0.417355
   7 H :    0.147140
   8 H :    0.154277
   9 H :    0.144699
  10 H :    0.138437
  11 H :    0.141993
  12 H :    0.173204
  13 H :    0.150619
  14 H :    0.152911
  15 H :    0.129280
  16 H :    0.142456
  17 H :    0.293388
Sum of atomic charges:    0.0000000

LOEWDIN ATOMIC CHARGES
----------------------
   0 C :   -0.420638
   1 C :   -0.309517
   2 C :   -0.233792
   3 H :    0.155264
   4 C :   -0.414347
   5 C :    0.005136
   6 O :   -0.621838
   7 H :    0.150982
   8 H :    0.151666
   9 H :    0.150600
  10 H :    0.154080
  11 H :    0.156076
  12 H :    0.167421
  13 H :    0.154894
  14 H :    0.152498
  15 H :    0.157780
  16 H :    0.179187
  17 H :    0.264550

  Mayer bond orders larger than 0.100000
B(  0-C ,  1-C ) :   0.8889 B(  0-C ,  7-H ) :   0.9715 B(  0-C ,  8-H ) :   0.9836
B(  0-C ,  9-H ) :   0.9857 B(  1-C ,  2-C ) :   0.9084 B(  1-C , 10-H ) :   0.9684
B(  1-C , 11-H ) :   0.9725 B(  2-C ,  3-H ) :   0.9633 B(  2-C ,  4-C ) :   0.8796
B(  2-C ,  5-C ) :   0.9036 B(  4-C , 12-H ) :   0.9645 B(  4-C , 13-H ) :   0.9844
B(  4-C , 14-H ) :   0.9751 B(  5-C ,  6-O ) :   0.9656 B(  5-C , 15-H ) :   0.9863
B(  5-C , 16-H ) :   0.9780 B(  6-O , 17-H ) :   0.8956

Dispersion correction           -0.004346412
FINAL SINGLE POINT ENERGY      -272.898664278712

DIPOLE MOMENT
-------------

Method             : SCF
Type of density    : Electron Density
Multiplicity       :   1
Irrep              :   0
Energy             :  -272.9041936588568547 Eh
Relativity type    :
Basis              : AO
                                X                 Y                 Z
Electronic contribution:      5.549920449       0.223982380       0.345160378
Nuclear contribution   :     -5.979868350       0.171298962      -0.092981418
                        -----------------------------------------
Total Dipole Moment    :     -0.429947901       0.395281343       0.252178960
                        -----------------------------------------
Magnitude (a.u.)       :      0.636157815
Magnitude (Debye)      :      1.616984661

Rotational constants in cm-1:             0.228543             0.063162             0.054565
Rotational constants in MHz :          6851.553534          1893.535108          1635.816968

                             ****ORCA TERMINATED NORMALLY****
TOTAL RUN TIME: 0 days 0 hours 0 minutes 23 seconds 9 msec
