                         Program Version 6.0.0  -   RELEASE  -
|  1> ! r2scan-3c def2/J RI DEFGRID2 scfconv6 printgap
|  2> %output
|  3>     printlevel normal
|  4> end
|  5> %cpcm
|  6>     smd true
|  7>     smdsolvent "water"
|  8> end
|  9> * xyz 0 1
| 10> C -2.5276478871 0.5953968663 0.1273378475
| 11> C -1.1628132714 0.7467140789 -0.5352837033
| 12> C -0.0458936574 0.0165611713 0.2166677063
| 13> H -0.0330697466 0.3751189548 1.2531258547
| 14> C -0.245952871 -1.4974837145 0.2245996232
| 15> C 1.3113757991 0.3536067542 -0.4183167103
| 16> O 2.409049137 -0.172924845 0.295560025
| 17> H -3.2665630459 1.1941886251 -0.399247204
| 18> H -2.8558448995 -0.4398879697 0.1110567543
| 19> H -2.4883141369 0.9302599954 1.161386079
| 20> H -0.9121639389 1.8090559858 -0.588962961
| 21> H -1.2100867346 0.3678586708 -1.5584279041
| 22> H 0.653242679 -1.9838726425 0.596443851
| 23> H -0.435192104 -1.8570620601 -0.7844871561
| 24> H -1.079637203 -1.7801785915 0.8604694073
| 25> H 1.4168498817 1.4427763672 -0.5206241376
| 26> H 1.3752786483 -0.0906594513 -1.414822341
| 27> H 2.423378508 0.2177271914 1.1803043846
| 28> *
| 29>
| 30>                          ****END OF INPUT****

CARTESIAN COORDINATES (ANGSTROEM)
---------------------------------
  C     -2.527648    0.595397    0.127338
  C     -1.162813    0.746714   -0.535284
  C     -0.045894    0.016561    0.216668
  H     -0.033070    0.375119    1.253126
  C     -0.245953   -1.497484    0.224600
  C      1.311376    0.353607   -0.418317
  O      2.409049   -0.172925    0.295560
  H     -3.266563    1.194189   -0.399247
  H     -2.855845   -0.439888    0.111057
  H     -2.488314    0.930260    1.161386
  H     -0.912164    1.809056   -0.588963
  H     -1.210087    0.367859   -1.558428
  H      0.653243   -1.983873    0.596444
  H     -0.435192   -1.857062   -0.784487
  H     -1.079637   -1.780179    0.860469
  H      1.416850    1.442776   -0.520624
  H      1.375279   -0.090659   -1.414822
  H      2.423379    0.217727    1.180304

 Total Charge           Charge          ....    0
 Multiplicity           Mult            ....    1
 Number of Electrons    NEL             ....   50
 Basis Dimension        Dim             ....  179

ORBITAL ENERGIES
----------------

  NO   OCC          E(Eh)            E(eV)
   0   2.0000     -18.949057      -515.6301
   1   2.0000     -10.064201      -273.8608
   2   2.0000     -10.023458      -272.7522
   3   2.0000     -10.016709      -272.5685
   4   2.0000     -10.007977      -272.3309
   5   2.0000     -10.005677      -272.2683
   6   2.0000      -0.985067       -26.8050
   7   2.0000      -0.767017       -20.8716
   8   2.0000      -0.688609       -18.7380
   9   2.0000      -0.637696       -17.3526
  10   2.0000      -0.584765       -15.9123
  11   2.0000      -0.526038       -14.3142
  12   2.0000      -0.459224       -12.4961
  13   2.0000      -0.432834       -11.7780
  14   2.0000      -0.419920       -11.4266
  15   2.0000      -0.396264       -10.7829
  16   2.0000      -0.366871        -9.9831
  17   2.0000      -0.347535        -9.4569
  18   2.0000      -0.341434        -9.2909
  19   2.0000      -0.328674        -8.9437
  20   2.0000      -0.317640        -8.6434
  21   2.0000      -0.288294        -7.8449
  22   2.0000      -0.285369        -7.7653
  23   2.0000      -0.275570        -7.4987
  24   2.0000      -0.235400        -6.4055
  25   0.0000       0.077968         2.1216
  26   0.0000       0.103586         2.8187
  27   0.0000       0.120248         3.2721
  28   0.0000       0.131806         3.5866
  29   0.0000       0.136984         3.7275

MULLIKEN ATOMIC CHARGES
-----------------------
   0 C :   -0.535810
   1 C :   -0.259998
   2 C :    0.003833
   3 H :    0.154028
   4 C :   -0.579955
   5 C :   -0.193589
   6 O :   -0.505375
   7 H :    0.156498
   8 H :    0.162503
   9 H :    0.156899
  10 H :    0.150191
  11 H :    0.151636
  12 H :    0.161468
  13 H :    0.165326
  14 H :    0.166405
  15 H :    0.141468
  16 H :    0.154813
  17 H :    0.349660
Sum of atomic charges:    0.0000000

LOEWDIN ATOMIC CHARGES
----------------------
   0 C :   -0.428578
   1 C :   -0.310079
   2 C :   -0.228852
   3 H :    0.163181
   4 C :   -0.422543
   5 C :    0.004051
   6 O :   -0.659063
   7 H :    0.152884
   8 H :    0.153276
   9 H :    0.153662
  10 H :    0.157642
  11 H :    0.158371
  12 H :    0.161145
  13 H :    0.158211
  14 H :    0.156643
  15 H :    0.165234
  16 H :    0.181359
  17 H :    0.283456

  Mayer bond orders larger than 0.100000
B(  0-C ,  1-C ) :   0.8816 B(  0-C ,  7-H ) :   0.9695 B(  0-C ,  8-H ) :   0.9806
B(  0-C ,  9-H ) :   0.9830 B(  1-C ,  2-C ) :   0.9050 B(  1-C , 10-H ) :   0.9679
B(  1-C , 11-H ) :   0.9721 B(  2-C ,  3-H ) :   0.9607 B(  2-C ,  4-C ) :   0.8675
B(  2-C ,  5-C ) :   0.9076 B(  4-C , 12-H ) :   0.9685 B(  4-C , 13-H ) :   0.9822
B(  4-C , 14-H ) :   0.9713 B(  5-C ,  6-O ) :   0.9519 B(  5-C , 15-H ) :   0.9755
B(  5-C , 16-H ) :   0.9787 B(  6-O , 17-H ) :   0.8674

Dispersion correction           -0.004346412
FINAL SINGLE POINT ENERGY      -272.904444956346

DIPOLE MOMENT
-------------

Method             : SCF
Type of density    : Electron Density
Multiplicity       :   1
Irrep              :   0
Energy             :  -272.9099743364909045 Eh
Relativity type    :
Basis              : AO
                                X                 Y                 Z
Electronic contribution:      5.383972446       0.420965227       0.449885854
Nuclear contribution   :     -5.979868350       0.171298962      -0.092981418
                        -----------------------------------------
Total Dipole Moment    :     -0.595895904       0.592264189       0.356904437
                        -----------------------------------------
Magnitude (a.u.)       :      0.912825052
Magnitude (Debye)      :      2.320216891

Rotational constants in cm-1:             0.228543             0.063162             0.054565
Rotational constants in MHz :          6851.553534          1893.535108          1635.816968

                             ****ORCA TERMINATED NORMALLY****
TOTAL RUN TIME: 0 days 0 hours 0 minutes 27 seconds 519 msec
