                         Program Version 6.0.0  -   RELEASE  -
|  1> ! r2scan-3c def2/J RI DEFGRID2 scfconv6 printgap
|  2> %output
|  3>     printlevel normal
|  4> end
|  5> * xyz 0 1
|  6> C 1.7851377564 -1.3825210697 0.1242948283
|  7> C 0.8167447842 -0.2091580191 0.2614162315
|  8> C 1.5811317888 1.1079525243 0.1453117479
|  9> C -0.2882834731 -0.3171203857 -0.7964531124
| 10> C -1.4913636509 0.5774193789 -0.5086841533
| 11> O -2.1174996241 0.1390477119 0.6831883917
| 12> H 2.24789197 -1.3759874072 -0.8603818869
| 13> H 1.2647564383 -2.3283305919 0.2547181635
| 14> H 2.5699899731 -1.3170161023 0.8738960097
| 15> H 0.3401290207 -0.2600474672 1.2460084934
| 16> H 2.3578625283 1.1588459102 0.9045374542
| 17> H 0.9214948072 1.9607485507 0.2807000164
| 18> H 2.050833922 1.1857675591 -0.833167938
| 19> H -0.6474561895 -1.3475526208 -0.8272267037
| 20> H 0.1116702868 -0.0614714715 -1.7788616402
| 21> H -1.1734635882 1.6225812274 -0.4069551925
| 22> H -2.1965934008 0.5108643933 -1.3489048287
| 23> H -2.8745192988 0.7069096549 0.875719808
| 24> *
| 25>
| 26>                          ****END OF INPUT****

CARTESIAN COORDINATES (ANGSTROEM)
---------------------------------
  C      1.785138   -1.382521    0.124295
  C      0.816745   -0.209158    0.261416
  C      1.581132    1.107953    0.145312
  C     -0.288283   -0.317120   -0.796453
  C     -1.491364    0.577419   -0.508684
  O     -2.117500    0.139048    0.683188
  H      2.247892   -1.375987   -0.860382
  H      1.264756   -2.328331    0.254718
  H      2.569990   -1.317016    0.873896
  H      0.340129   -0.260047    1.246008
  H      2.357863    1.158846    0.904537
  H      0.921495    1.960749    0.280700
  H      2.050834    1.185768   -0.833168
  H     -0.647456   -1.347553   -0.827227
  H      0.111670   -0.061471   -1.778862
  H     -1.173464    1.622581   -0.406955
  H     -2.196593    0.510864   -1.348905
  H     -2.874519    0.706910    0.875720

 Total Charge           Charge          ....    0
 Multiplicity           Mult            ....    1
 Number of Electrons    NEL             ....   50
 Basis Dimension        Dim             ....  179

ORBITAL ENERGIES
----------------

  NO   OCC          E(Eh)            E(eV)
   0   2.0000     -18.946792      -515.5684
   1   2.0000     -10.073527      -274.1146
   2   2.0000     -10.026336      -272.8305
   3   2.0000     -10.021565      -272.7006
   4   2.0000     -10.011632      -272.4304
   5   2.0000     -10.010054      -272.3874
   6   2.0000      -0.982860       -26.7450
   7   2.0000      -0.772627       -21.0243
   8   2.0000      -0.691879       -18.8270
   9   2.0000      -0.645814       -17.5735
  10   2.0000      -0.584271       -15.8988
  11   2.0000      -0.521473       -14.1900
  12   2.0000      -0.482914       -13.1408
  13   2.0000      -0.432029       -11.7561
  14   2.0000      -0.420647       -11.4464
  15   2.0000      -0.397022       -10.8035
  16   2.0000      -0.371673       -10.1137
  17   2.0000      -0.352295        -9.5864
  18   2.0000      -0.349470        -9.5096
  19   2.0000      -0.335572        -9.1314
  20   2.0000      -0.312677        -8.5084
  21   2.0000      -0.290185        -7.8963
  22   2.0000      -0.289012        -7.8644
  23   2.0000      -0.277140        -7.5414
  24   2.0000      -0.233873        -6.3640
  25   0.0000       0.060376         1.6429
  26   0.0000       0.095676         2.6035
  27   0.0000       0.110846         3.0163
  28   0.0000       0.125724         3.4211
  29   0.0000       0.132756         3.6125

MULLIKEN ATOMIC CHARGES
-----------------------
   0 C :   -0.474273
   1 C :   -0.037656
   2 C :   -0.509384
   3 C :   -0.250186
   4 C :   -0.157776
   5 O :   -0.432555
   6 H :    0.140632
   7 H :    0.147927
   8 H :    0.145641
   9 H :    0.171289
  10 H :    0.145286
  11 H :    0.141396
  12 H :    0.149260
  13 H :    0.149895
  14 H :    0.136505
  15 H :    0.118273
  16 H :    0.124662
  17 H :    0.291064
Sum of atomic charges:   -0.0000000

LOEWDIN ATOMIC CHARGES
----------------------
   0 C :   -0.415901
   1 C :   -0.246387
   2 C :   -0.417162
   3 C :   -0.279583
   4 C :    0.006354
   5 O :   -0.634676
   6 H :    0.152211
   7 H :    0.153303
   8 H :    0.152108
   9 H :    0.168430
  10 H :    0.153730
  11 H :    0.150627
  12 H :    0.151916
  13 H :    0.167302
  14 H :    0.162551
  15 H :    0.153954
  16 H :    0.155228
  17 H :    0.265996

  Mayer bond orders larger than 0.100000
B(  0-C ,  1-C ) :   0.8994 B(  0-C ,  6-H ) :   0.9807 B(  0-C ,  7-H ) :   0.9820
B(  0-C ,  8-H ) :   0.9788 B(  1-C ,  2-C ) :   0.9018 B(  1-C ,  3-C ) :   0.8895
B(  1-C ,  9-H ) :   0.9616 B(  2-C , 10-H ) :   0.9721 B(  2-C , 11-H ) :   0.9730
B(  2-C , 12-H ) :   0.9911 B(  3-C ,  4-C ) :   0.9779 B(  3-C , 13-H ) :   0.9714
B(  3-C , 14-H ) :   0.9615 B(  4-C ,  5-O ) :   0.9480 B(  4-C , 15-H ) :   0.9748
B(  4-C , 16-H ) :   0.9650 B(  5-O , 17-H ) :   0.9028

Dispersion correction           -0.004322288
FINAL SINGLE POINT ENERGY      -272.898388147449

DIPOLE MOMENT
-------------

Method             : SCF
Type of density    : Electron Density
Multiplicity       :   1
Irrep              :   0
Energy             :  -272.9038931365865892 Eh
Relativity type    :
Basis              : AO
                                X                 Y                 Z
Electronic contribution:     -4.856423181      -0.002384877       1.263395583
Nuclear contribution   :      4.633684494       0.429220346      -1.509609554
                        -----------------------------------------
Total Dipole Moment    :     -0.222738687       0.426835469      -0.246213971
                        -----------------------------------------
Magnitude (a.u.)       :      0.540760908
Magnitude (Debye)      :      1.374504994

Rotational constants in cm-1:             0.188574             0.066865             0.060248
Rotational constants in MHz :          5653.299172          2004.571009          1806.181320

                             ****ORCA TERMINATED NORMALLY****
TOTAL RUN TIME: 0 days 0 hours 0 minutes 23 seconds 631 msec
