                         Program Version 6.0.0  -   RELEASE  -
|  1> ! r2scan-3c def2/J RI DEFGRID2 scfconv6 printgap
|  2> %output
|  3>     printlevel normal
|  4> end
|  5> %cpcm
|  6>     smd true
|  7>     smdsolvent "water"
|  8> end
|  9> * xyz 0 1
| 10> C 1.7851377564 -1.3825210697 0.1242948283
| 11> C 0.8167447842 -0.2091580191 0.2614162315
| 12> C 1.5811317888 1.1079525243 0.1453117479
| 13> C -0.2882834731 -0.3171203857 -0.7964531124
| 14> C -1.4913636509 0.5774193789 -0.5086841533
| 15> O -2.1174996241 0.1390477119 0.6831883917
| 16> H 2.24789197 -1.3759874072 -0.8603818869
| 17> H 1.2647564383 -2.3283305919 0.2547181635
| 18> H 2.5699899731 -1.3170161023 0.8738960097
| 19> H 0.3401290207 -0.2600474672 1.2460084934
| 20> H 2.3578625283 1.1588459102 0.9045374542
| 21> H 0.9214948072 1.9607485507 0.2807000164
| 22> H 2.050833922 1.1857675591 -0.833167938
| 23> H -0.6474561895 -1.3475526208 -0.8272267037
| 24> H 0.1116702868 -0.0614714715 -1.7788616402
| 25> H -1.1734635882 1.6225812274 -0.4069551925
| 26> H -2.1965934008 0.5108643933 -1.3489048287
| 27> H -2.8745192988 0.7069096549 0.875719808
| 28> *
| 29>
| 30>                          ****END OF INPUT****

CARTESIAN COORDINATES (ANGSTROEM)
---------------------------------
  C      1.785138   -1.382521    0.124295
  C      0.816745   -0.209158    0.261416
  C      1.581132    1.107953    0.145312
  C     -0.288283   -0.317120   -0.796453
  C     -1.491364    0.577419   -0.508684
  O     -2.117500    0.139048    0.683188
  H      2.247892   -1.375987   -0.860382
  H      1.264756   -2.328331    0.254718
  H      2.569990   -1.317016    0.873896
  H      0.340129   -0.260047    1.246008
  H      2.357863    1.158846    0.904537
  H      0.921495    1.960749    0.280700
  H      2.050834    1.185768   -0.833168
  H     -0.647456   -1.347553   -0.827227
  H      0.111670   -0.061471   -1.778862
  H     -1.173464    1.622581   -0.406955
  H     -2.196593    0.510864   -1.348905
  H     -2.874519    0.706910    0.875720

 Total Charge           Charge          ....    0
 Multiplicity           Mult            ....    1
 Number of Electrons    NEL             ....   50
 Basis Dimension        Dim             ....  179

ORBITAL ENERGIES
----------------

  NO   OCC          E(Eh)            E(eV)
   0   2.0000     -18.948726      -515.6210
   1   2.0000     -10.066580      -273.9256
   2   2.0000     -10.023808      -272.7617
   3   2.0000     -10.015753      -272.5425
   4   2.0000     -10.005694      -272.2688
   5   2.0000     -10.005595      -272.2661
   6   2.0000      -0.983695       -26.7677
   7   2.0000      -0.768499       -20.9119
   8   2.0000      -0.686953       -18.6929
   9   2.0000      -0.641277       -17.4500
  10   2.0000      -0.579419       -15.7668
  11   2.0000      -0.518050       -14.0969
  12   2.0000      -0.478935       -13.0325
  13   2.0000      -0.427237       -11.6257
  14   2.0000      -0.416805       -11.3418
  15   2.0000      -0.393237       -10.7005
  16   2.0000      -0.367523       -10.0008
  17   2.0000      -0.348958        -9.4956
  18   2.0000      -0.344828        -9.3832
  19   2.0000      -0.332629        -9.0513
  20   2.0000      -0.310481        -8.4486
  21   2.0000      -0.286377        -7.7927
  22   2.0000      -0.286264        -7.7896
  23   2.0000      -0.274117        -7.4591
  24   2.0000      -0.236182        -6.4268
  25   0.0000       0.075973         2.0673
  26   0.0000       0.103681         2.8213
  27   0.0000       0.119082         3.2404
  28   0.0000       0.132430         3.6036
  29   0.0000       0.137309         3.7364

MULLIKEN ATOMIC CHARGES
-----------------------
   0 C :   -0.516729
   1 C :   -0.015177
   2 C :   -0.549926
   3 C :   -0.273520
   4 C :   -0.168736
   5 O :   -0.515556
   6 H :    0.155196
   7 H :    0.157249
   8 H :    0.157807
   9 H :    0.155241
  10 H :    0.156575
  11 H :    0.156315
  12 H :    0.163348
  13 H :    0.156672
  14 H :    0.156414
  15 H :    0.138782
  16 H :    0.141668
  17 H :    0.344378
Sum of atomic charges:   -0.0000000

LOEWDIN ATOMIC CHARGES
----------------------
   0 C :   -0.424349
   1 C :   -0.246296
   2 C :   -0.424611
   3 C :   -0.284457
   4 C :    0.008235
   5 O :   -0.669699
   6 H :    0.156243
   7 H :    0.155029
   8 H :    0.154721
   9 H :    0.162074
  10 H :    0.155776
  11 H :    0.154867
  12 H :    0.156262
  13 H :    0.166466
  14 H :    0.169596
  15 H :    0.162996
  16 H :    0.162709
  17 H :    0.284436

  Mayer bond orders larger than 0.100000
B(  0-C ,  1-C ) :   0.8914 B(  0-C ,  6-H ) :   0.9795 B(  0-C ,  7-H ) :   0.9785
B(  0-C ,  8-H ) :   0.9760 B(  1-C ,  2-C ) :   0.9001 B(  1-C ,  3-C ) :   0.8803
B(  1-C ,  9-H ) :   0.9666 B(  2-C , 10-H ) :   0.9705 B(  2-C , 11-H ) :   0.9679
B(  2-C , 12-H ) :   0.9884 B(  3-C ,  4-C ) :   0.9612 B(  3-C , 13-H ) :   0.9736
B(  3-C , 14-H ) :   0.9575 B(  4-C ,  5-O ) :   0.9302 B(  4-C , 15-H ) :   0.9736
B(  4-C , 16-H ) :   0.9671 B(  5-O , 17-H ) :   0.8764

Dispersion correction           -0.004322288
FINAL SINGLE POINT ENERGY      -272.903992795119

DIPOLE MOMENT
-------------

Method             : SCF
Type of density    : Electron Density
Multiplicity       :   1
Irrep              :   0
Energy             :  -272.9094977842570415 Eh
Relativity type    :
Basis              : AO
                                X                 Y                 Z
Electronic contribution:     -4.901618293       0.210410818       1.083701031
Nuclear contribution   :      4.633684494       0.429220346      -1.509609554
                        -----------------------------------------
Total Dipole Moment    :     -0.267933799       0.639631164      -0.425908522
                        -----------------------------------------
Magnitude (a.u.)       :      0.813827141
Magnitude (Debye)      :      2.068584200

Rotational constants in cm-1:             0.188574             0.066865             0.060248
Rotational constants in MHz :          5653.299172          2004.571009          1806.181320

                             ****ORCA TERMINATED NORMALLY****
TOTAL RUN TIME: 0 days 0 hours 0 minutes 27 seconds 530 msec
