                         Program Version 6.0.0  -   RELEASE  -
|  1> ! r2scan-3c def2/J RI DEFGRID2 scfconv6 printgap
|  2> %output
|  3>     printlevel normal
|  4> end
|  5> * xyz 0 1
|  6> C -2.1264445692 -0.8075128698 0.3755257645
|  7> C -1.2398571167 -0.1927604632 -0.6901917209
|  8> S 0.0002400774 0.9635041127 -0.0010472069
|  9> C 1.2398360281 -0.1914312969 0.6909028553
| 10> C 2.126001481 -0.808105556 -0.3740337209
| 11> H -2.8782555543 -1.4387068707 -0.0925274531
| 12> H -1.5455265667 -1.4174580751 1.0637630958
| 13> H -2.6261405913 -0.0263744985 0.9433734666
| 14> H -1.8232790064 0.4202416996 -1.3756820951
| 15> H -0.7028809292 -0.9493067574 -1.2599761263
| 16> H 1.8228597113 0.4232725492 1.3752151212
| 17> H 0.7025759995 -0.9467908819 1.2620944844
| 18> H 2.6260076266 -0.0283563518 -0.9434436449
| 19> H 2.8774339739 -1.4385420878 0.0955177383
| 20> H 1.5450991349 -1.4191758544 -1.0612739778
| 21> *
| 22>
| 23>                          ****END OF INPUT****

CARTESIAN COORDINATES (ANGSTROEM)
---------------------------------
  C     -2.126445   -0.807513    0.375526
  C     -1.239857   -0.192760   -0.690192
  S      0.000240    0.963504   -0.001047
  C      1.239836   -0.191431    0.690903
  C      2.126001   -0.808106   -0.374034
  H     -2.878256   -1.438707   -0.092527
  H     -1.545527   -1.417458    1.063763
  H     -2.626141   -0.026374    0.943373
  H     -1.823279    0.420242   -1.375682
  H     -0.702881   -0.949307   -1.259976
  H      1.822860    0.423273    1.375215
  H      0.702576   -0.946791    1.262094
  H      2.626008   -0.028356   -0.943444
  H      2.877434   -1.438542    0.095518
  H      1.545099   -1.419176   -1.061274

 Total Charge           Charge          ....    0
 Multiplicity           Mult            ....    1
 Number of Electrons    NEL             ....   50
 Basis Dimension        Dim             ....  153

ORBITAL ENERGIES
----------------

  NO   OCC          E(Eh)            E(eV)
   0   2.0000     -88.539822     -2409.2910
   1   2.0000     -10.060021      -273.7471
   2   2.0000     -10.060001      -273.7465
   3   2.0000     -10.025336      -272.8032
   4   2.0000     -10.025329      -272.8031
   5   2.0000      -7.833883      -213.1708
   6   2.0000      -5.781527      -157.3233
   7   2.0000      -5.777578      -157.2159
   8   2.0000      -5.770408      -157.0208
   9   2.0000      -0.778847       -21.1935
  10   2.0000      -0.732623       -19.9357
  11   2.0000      -0.653665       -17.7871
  12   2.0000      -0.596703       -16.2371
  13   2.0000      -0.532405       -14.4875
  14   2.0000      -0.444556       -12.0970
  15   2.0000      -0.428905       -11.6711
  16   2.0000      -0.400319       -10.8932
  17   2.0000      -0.383100       -10.4247
  18   2.0000      -0.367068        -9.9884
  19   2.0000      -0.351480        -9.5643
  20   2.0000      -0.336303        -9.1513
  21   2.0000      -0.328477        -8.9383
  22   2.0000      -0.304882        -8.2963
  23   2.0000      -0.269074        -7.3219
  24   2.0000      -0.189194        -5.1482
  25   0.0000       0.026806         0.7294
  26   0.0000       0.052360         1.4248
  27   0.0000       0.079081         2.1519
  28   0.0000       0.115954         3.1553
  29   0.0000       0.116657         3.1744

MULLIKEN ATOMIC CHARGES
-----------------------
   0 C :   -0.426843
   1 C :   -0.233518
   2 S :   -0.147616
   3 C :   -0.233368
   4 C :   -0.426885
   5 H :    0.141284
   6 H :    0.136730
   7 H :    0.157011
   8 H :    0.155198
   9 H :    0.143853
  10 H :    0.155219
  11 H :    0.143886
  12 H :    0.157022
  13 H :    0.141254
  14 H :    0.136772
Sum of atomic charges:    0.0000000

LOEWDIN ATOMIC CHARGES
----------------------
   0 C :   -0.429957
   1 C :   -0.363677
   2 S :    0.023155
   3 C :   -0.363640
   4 C :   -0.429927
   5 H :    0.150564
   6 H :    0.148380
   7 H :    0.157621
   8 H :    0.167879
   9 H :    0.157550
  10 H :    0.167905
  11 H :    0.157590
  12 H :    0.157618
  13 H :    0.150540
  14 H :    0.148399

  Mayer bond orders larger than 0.100000
B(  0-C ,  1-C ) :   0.8966 B(  0-C ,  5-H ) :   0.9626 B(  0-C ,  6-H ) :   0.9783
B(  0-C ,  7-H ) :   0.9749 B(  1-C ,  2-S ) :   0.9537 B(  1-C ,  8-H ) :   0.9442
B(  1-C ,  9-H ) :   0.9553 B(  2-S ,  3-C ) :   0.9535 B(  3-C ,  4-C ) :   0.8967
B(  3-C , 10-H ) :   0.9442 B(  3-C , 11-H ) :   0.9553 B(  4-C , 12-H ) :   0.9749
B(  4-C , 13-H ) :   0.9626 B(  4-C , 14-H ) :   0.9782

Dispersion correction           -0.003673109
FINAL SINGLE POINT ENERGY      -556.554565161536

DIPOLE MOMENT
-------------

Method             : SCF
Type of density    : Electron Density
Multiplicity       :   1
Irrep              :   0
Energy             :  -556.5616834989566541 Eh
Relativity type    :
Basis              : AO
                                X                 Y                 Z
Electronic contribution:      0.002025883       5.732210764      -0.005865977
Nuclear contribution   :     -0.001982794      -6.426803951       0.006653789
                        -----------------------------------------
Total Dipole Moment    :      0.000043089      -0.694593187       0.000787812
                        -----------------------------------------
Magnitude (a.u.)       :      0.694593635
Magnitude (Debye)      :      1.765516712

Rotational constants in cm-1:             0.203939             0.078564             0.068705
Rotational constants in MHz :          6113.940777          2355.281350          2059.729581

                             ****ORCA TERMINATED NORMALLY****
TOTAL RUN TIME: 0 days 0 hours 0 minutes 14 seconds 492 msec
