                         Program Version 6.0.0  -   RELEASE  -
|  1> ! r2scan-3c def2/J RI DEFGRID2 scfconv6 printgap
|  2> %output
|  3>     printlevel normal
|  4> end
|  5> %cpcm
|  6>     smd true
|  7>     smdsolvent "water"
|  8> end
|  9> * xyz 0 1
| 10> C -2.1264445692 -0.8075128698 0.3755257645
| 11> C -1.2398571167 -0.1927604632 -0.6901917209
| 12> S 0.0002400774 0.9635041127 -0.0010472069
| 13> C 1.2398360281 -0.1914312969 0.6909028553
| 14> C 2.126001481 -0.808105556 -0.3740337209
| 15> H -2.8782555543 -1.4387068707 -0.0925274531
| 16> H -1.5455265667 -1.4174580751 1.0637630958
| 17> H -2.6261405913 -0.0263744985 0.9433734666
| 18> H -1.8232790064 0.4202416996 -1.3756820951
| 19> H -0.7028809292 -0.9493067574 -1.2599761263
| 20> H 1.8228597113 0.4232725492 1.3752151212
| 21> H 0.7025759995 -0.9467908819 1.2620944844
| 22> H 2.6260076266 -0.0283563518 -0.9434436449
| 23> H 2.8774339739 -1.4385420878 0.0955177383
| 24> H 1.5450991349 -1.4191758544 -1.0612739778
| 25> *
| 26>
| 27>                          ****END OF INPUT****

CARTESIAN COORDINATES (ANGSTROEM)
---------------------------------
  C     -2.126445   -0.807513    0.375526
  C     -1.239857   -0.192760   -0.690192
  S      0.000240    0.963504   -0.001047
  C      1.239836   -0.191431    0.690903
  C      2.126001   -0.808106   -0.374034
  H     -2.878256   -1.438707   -0.092527
  H     -1.545527   -1.417458    1.063763
  H     -2.626141   -0.026374    0.943373
  H     -1.823279    0.420242   -1.375682
  H     -0.702881   -0.949307   -1.259976
  H      1.822860    0.423273    1.375215
  H      0.702576   -0.946791    1.262094
  H      2.626008   -0.028356   -0.943444
  H      2.877434   -1.438542    0.095518
  H      1.545099   -1.419176   -1.061274

 Total Charge           Charge          ....    0
 Multiplicity           Mult            ....    1
 Number of Electrons    NEL             ....   50
 Basis Dimension        Dim             ....  153

ORBITAL ENERGIES
----------------

  NO   OCC          E(Eh)            E(eV)
   0   2.0000     -88.538750     -2409.2619
   1   2.0000     -10.049941      -273.4728
   2   2.0000     -10.049925      -273.4724
   3   2.0000     -10.014012      -272.4951
   4   2.0000     -10.014005      -272.4949
   5   2.0000      -7.832870      -213.1432
   6   2.0000      -5.780265      -157.2890
   7   2.0000      -5.776459      -157.1855
   8   2.0000      -5.769820      -157.0048
   9   2.0000      -0.771195       -20.9853
  10   2.0000      -0.722187       -19.6517
  11   2.0000      -0.645953       -17.5773
  12   2.0000      -0.586579       -15.9616
  13   2.0000      -0.523865       -14.2551
  14   2.0000      -0.433105       -11.7854
  15   2.0000      -0.418982       -11.4011
  16   2.0000      -0.388904       -10.5826
  17   2.0000      -0.373371       -10.1599
  18   2.0000      -0.358102        -9.7445
  19   2.0000      -0.340926        -9.2771
  20   2.0000      -0.325196        -8.8490
  21   2.0000      -0.317525        -8.6403
  22   2.0000      -0.295247        -8.0341
  23   2.0000      -0.265721        -7.2306
  24   2.0000      -0.189755        -5.1635
  25   0.0000       0.029183         0.7941
  26   0.0000       0.056599         1.5401
  27   0.0000       0.092007         2.5036
  28   0.0000       0.120293         3.2733
  29   0.0000       0.127144         3.4598

MULLIKEN ATOMIC CHARGES
-----------------------
   0 C :   -0.478652
   1 C :   -0.222362
   2 S :   -0.223561
   3 C :   -0.222205
   4 C :   -0.478702
   5 H :    0.157313
   6 H :    0.159364
   7 H :    0.159199
   8 H :    0.169497
   9 H :    0.167323
  10 H :    0.169513
  11 H :    0.167374
  12 H :    0.159226
  13 H :    0.157271
  14 H :    0.159401
Sum of atomic charges:    0.0000000

LOEWDIN ATOMIC CHARGES
----------------------
   0 C :   -0.436331
   1 C :   -0.359840
   2 S :   -0.019482
   3 C :   -0.359792
   4 C :   -0.436303
   5 H :    0.156619
   6 H :    0.154423
   7 H :    0.155992
   8 H :    0.172303
   9 H :    0.166507
  10 H :    0.172329
  11 H :    0.166553
  12 H :    0.155993
  13 H :    0.156590
  14 H :    0.154439

  Mayer bond orders larger than 0.100000
B(  0-C ,  1-C ) :   0.8881 B(  0-C ,  5-H ) :   0.9588 B(  0-C ,  6-H ) :   0.9757
B(  0-C ,  7-H ) :   0.9761 B(  1-C ,  2-S ) :   0.9403 B(  1-C ,  8-H ) :   0.9388
B(  1-C ,  9-H ) :   0.9494 B(  2-S ,  3-C ) :   0.9402 B(  3-C ,  4-C ) :   0.8882
B(  3-C , 10-H ) :   0.9388 B(  3-C , 11-H ) :   0.9493 B(  4-C , 12-H ) :   0.9761
B(  4-C , 13-H ) :   0.9588 B(  4-C , 14-H ) :   0.9757

Dispersion correction           -0.003673109
FINAL SINGLE POINT ENERGY      -556.556535302904

DIPOLE MOMENT
-------------

Method             : SCF
Type of density    : Electron Density
Multiplicity       :   1
Irrep              :   0
Energy             :  -556.5636536403241053 Eh
Relativity type    :
Basis              : AO
                                X                 Y                 Z
Electronic contribution:      0.002023301       5.424460919      -0.005499961
Nuclear contribution   :     -0.001982794      -6.426803951       0.006653789
                        -----------------------------------------
Total Dipole Moment    :      0.000040507      -1.002343032       0.001153829
                        -----------------------------------------
Magnitude (a.u.)       :      1.002343697
Magnitude (Debye)      :      2.547755203

Rotational constants in cm-1:             0.203939             0.078564             0.068705
Rotational constants in MHz :          6113.940777          2355.281350          2059.729581

                             ****ORCA TERMINATED NORMALLY****
TOTAL RUN TIME: 0 days 0 hours 0 minutes 16 seconds 996 msec
