                         Program Version 6.0.0  -   RELEASE  -
|  1> ! pbe def2-sv(p) def2/J RI DEFGRID1 loosescf d4 GCP(DFT/SV(P)) printgap
|  2> %output
|  3>     printlevel normal
|  4> end
|  5> * xyz 0 1
|  6> C 4.6682877797 -1.3292145071 -0.7288411168
|  7> C 4.603983943 -0.0787694748 0.1405342329
|  8> C 3.2502445135 0.5788785762 0.3158136802
|  9> O 3.1641334896 1.7290942952 0.7237528177
| 10> N 2.1797010067 -0.200532125 0.0134809681
| 11> C 0.824253919 0.10290541 0.0837720846
| 12> C 0.3357648299 1.3396317584 0.5029802027
| 13> C -1.0251716466 1.570344377 0.5476658862
| 14> C -1.919626801 0.5785503196 0.1776862193
| 15> C -1.4384758685 -0.6560042158 -0.2414144074
| 16> C -0.078478012 -0.8949840729 -0.2893474405
| 17> Cl -2.5419951537 -1.9084738726 -0.7082962965
| 18> Cl -3.6279354016 0.8792825199 0.2385263183
| 19> H 4.1747525049 -2.1754824497 -0.2569675974
| 20> H 5.710239734 -1.6026445708 -0.8738205906
| 21> H 4.2324011867 -1.1480171128 -1.7081253405
| 22> H 5.2650560329 0.6934645841 -0.2578000713
| 23> H 4.9660016961 -0.3047413059 1.1471773753
| 24> H 2.383592133 -1.1370869919 -0.311864662
| 25> H 1.0258552983 2.1143485809 0.7920152712
| 26> H -1.4015120413 2.5262654027 0.8717861848
| 27> H 0.2703343988 -1.860381056 -0.618264351
| 28> *
| 29>
| 30>                          ****END OF INPUT****

CARTESIAN COORDINATES (ANGSTROEM)
---------------------------------
  C      4.668288   -1.329215   -0.728841
  C      4.603984   -0.078769    0.140534
  C      3.250245    0.578879    0.315814
  O      3.164133    1.729094    0.723753
  N      2.179701   -0.200532    0.013481
  C      0.824254    0.102905    0.083772
  C      0.335765    1.339632    0.502980
  C     -1.025172    1.570344    0.547666
  C     -1.919627    0.578550    0.177686
  C     -1.438476   -0.656004   -0.241414
  C     -0.078478   -0.894984   -0.289347
  Cl    -2.541995   -1.908474   -0.708296
  Cl    -3.627935    0.879283    0.238526
  H      4.174753   -2.175482   -0.256968
  H      5.710240   -1.602645   -0.873821
  H      4.232401   -1.148017   -1.708125
  H      5.265056    0.693465   -0.257800
  H      4.966002   -0.304741    1.147177
  H      2.383592   -1.137087   -0.311865
  H      1.025855    2.114349    0.792015
  H     -1.401512    2.526265    0.871786
  H      0.270334   -1.860381   -0.618264

 Total Charge           Charge          ....    0
 Multiplicity           Mult            ....    1
 Number of Electrons    NEL             ....  112
 Basis Dimension        Dim             ....  208

ORBITAL ENERGIES
----------------

  NO   OCC          E(Eh)            E(eV)
   0   2.0000    -100.647292     -2738.7520
   1   2.0000    -100.642431     -2738.6198
   2   2.0000     -18.730326      -509.6781
   3   2.0000     -14.049572      -382.3083
   4   2.0000      -9.999351      -272.0962
   5   2.0000      -9.964624      -271.1512
   6   2.0000      -9.958528      -270.9853
   7   2.0000      -9.956807      -270.9385
   8   2.0000      -9.917719      -269.8749
   9   2.0000      -9.911425      -269.7036
  10   2.0000      -9.910740      -269.6849
  11   2.0000      -9.907421      -269.5946
  12   2.0000      -9.900012      -269.3930
  13   2.0000      -9.183017      -249.8826
  14   2.0000      -9.178031      -249.7469
  15   2.0000      -7.014597      -190.8769
  16   2.0000      -7.009617      -190.7414
  17   2.0000      -7.003000      -190.5613
  18   2.0000      -7.002220      -190.5401
  19   2.0000      -6.998024      -190.4259
  20   2.0000      -6.997258      -190.4051
  21   2.0000      -0.950636       -25.8681
  22   2.0000      -0.873341       -23.7648
  23   2.0000      -0.835300       -22.7297
  24   2.0000      -0.781676       -21.2705
  25   2.0000      -0.764403       -20.8005
  26   2.0000      -0.722485       -19.6598
  27   2.0000      -0.683321       -18.5941
  28   2.0000      -0.662495       -18.0274
  29   2.0000      -0.606436       -16.5020
  30   2.0000      -0.581128       -15.8133
  31   2.0000      -0.571779       -15.5589
  32   2.0000      -0.521203       -14.1827
  33   2.0000      -0.506214       -13.7748
  34   2.0000      -0.453085       -12.3291
  35   2.0000      -0.441965       -12.0265
  36   2.0000      -0.436436       -11.8760
  37   2.0000      -0.427951       -11.6451
  38   2.0000      -0.407790       -11.0965
  39   2.0000      -0.398995       -10.8572
  40   2.0000      -0.395543       -10.7633
  41   2.0000      -0.385993       -10.5034
  42   2.0000      -0.371794       -10.1170
  43   2.0000      -0.358105        -9.7445
  44   2.0000      -0.349505        -9.5105
  45   2.0000      -0.342323        -9.3151
  46   2.0000      -0.337475        -9.1832
  47   2.0000      -0.334382        -9.0990
  48   2.0000      -0.306017        -8.3271
  49   2.0000      -0.302752        -8.2383
  50   2.0000      -0.283626        -7.7178
  51   2.0000      -0.262965        -7.1556
  52   2.0000      -0.260454        -7.0873
  53   2.0000      -0.232278        -6.3206
  54   2.0000      -0.211041        -5.7427
  55   2.0000      -0.202735        -5.5167
  56   0.0000      -0.058917        -1.6032
  57   0.0000      -0.052909        -1.4397
  58   0.0000      -0.019250        -0.5238
  59   0.0000      -0.001830        -0.0498
  60   0.0000       0.011877         0.3232

MULLIKEN ATOMIC CHARGES
-----------------------
   0 C :   -0.319566
   1 C :   -0.185036
   2 C :    0.070777
   3 O :   -0.214738
   4 N :   -0.197818
   5 C :    0.211554
   6 C :   -0.126194
   7 C :   -0.101570
   8 C :    0.090373
   9 C :    0.076433
  10 C :   -0.196619
  11 Cl:   -0.057973
  12 Cl:   -0.062695
  13 H :    0.116239
  14 H :    0.121180
  15 H :    0.121857
  16 H :    0.119515
  17 H :    0.127592
  18 H :    0.234826
  19 H :    0.082486
  20 H :    0.058018
  21 H :    0.031358
Sum of atomic charges:   -0.0000000

LOEWDIN ATOMIC CHARGES
----------------------
   0 C :   -0.354711
   1 C :   -0.256130
   2 C :    0.028991
   3 O :   -0.183303
   4 N :   -0.102652
   5 C :    0.008390
   6 C :   -0.138987
   7 C :   -0.122653
   8 C :   -0.165208
   9 C :   -0.148963
  10 C :   -0.161077
  11 Cl:    0.140521
  12 Cl:    0.134600
  13 H :    0.119305
  14 H :    0.135023
  15 H :    0.124298
  16 H :    0.143567
  17 H :    0.145654
  18 H :    0.239632
  19 H :    0.147310
  20 H :    0.136822
  21 H :    0.129570

  Mayer bond orders larger than 0.100000
B(  0-C ,  1-C ) :   1.1455 B(  0-C , 13-H ) :   0.9328 B(  0-C , 14-H ) :   0.9377
B(  0-C , 15-H ) :   0.9519 B(  1-C ,  2-C ) :   1.0191 B(  1-C , 16-H ) :   0.9061
B(  1-C , 17-H ) :   0.8978 B(  2-C ,  3-O ) :   2.0284 B(  2-C ,  4-N ) :   1.1843
B(  4-N ,  5-C ) :   1.0956 B(  4-N , 18-H ) :   0.8152 B(  5-C ,  6-C ) :   1.3651
B(  5-C , 10-C ) :   1.2660 B(  6-C ,  7-C ) :   1.3141 B(  6-C , 19-H ) :   0.9421
B(  7-C ,  8-C ) :   1.3668 B(  7-C , 20-H ) :   0.9671 B(  8-C ,  9-C ) :   1.4107
B(  8-C , 12-Cl) :   1.0278 B(  9-C , 10-C ) :   1.3999 B(  9-C , 11-Cl) :   1.0322
B( 10-C , 21-H ) :   0.9577

Dispersion correction           -0.027865905
FINAL SINGLE POINT ENERGY     -1397.093694506769

DIPOLE MOMENT
-------------

Method             : SCF
Type of density    : Electron Density
Multiplicity       :   1
Irrep              :   0
Energy             : -1397.1544986455794515 Eh
Relativity type    :
Basis              : AO
                                X                 Y                 Z
Electronic contribution:    -32.211894245       0.305205737       0.176767085
Nuclear contribution   :     33.320632192      -1.309456750      -0.499377144
                        -----------------------------------------
Total Dipole Moment    :      1.108737947      -1.004251014      -0.322610059
                        -----------------------------------------
Magnitude (a.u.)       :      1.530325842
Magnitude (Debye)      :      3.889779166

Rotational constants in cm-1:             0.044953             0.009396             0.007806
Rotational constants in MHz :          1347.664275           281.688718           234.012747

                             ****ORCA TERMINATED NORMALLY****
TOTAL RUN TIME: 0 days 0 hours 0 minutes 16 seconds 965 msec
