                         Program Version 6.0.0  -   RELEASE  -
|  1> ! pbe def2-sv(p) def2/J RI DEFGRID1 loosescf d4 GCP(DFT/SV(P)) printgap
|  2> %output
|  3>     printlevel normal
|  4> end
|  5> * xyz 0 1
|  6> C 3.5699482542 0.3078438427 -0.7748413408
|  7> C 2.5756694183 -0.1553280485 0.2461811361
|  8> C 2.9479701673 -0.6095705729 1.4323475098
|  9> C 1.127771054 -0.0321563494 -0.1726151991
| 10> H 1.0905095099 0.0173649285 -1.2656709053
| 11> C 0.2516031993 -1.2069760202 0.2698260683
| 12> C -1.1244008205 -1.08610024 -0.3766275598
| 13> C -1.7045043095 0.281993239 -0.1554623924
| 14> C -0.9456349335 1.3328076875 0.1944410951
| 15> C 0.5251331488 1.2666371141 0.3822510188
| 16> C -3.1361239783 0.4452723499 -0.3183163455
| 17> O -3.9227410373 -0.4387548705 -0.6080664805
| 18> H 4.5820254706 0.2708212095 -0.3819159749
| 19> H 3.5162350249 -0.323246051 -1.661119918
| 20> H 3.3483124707 1.3289719422 -1.0812842792
| 21> H 2.2433030843 -0.9430201445 2.1736721114
| 22> H 3.9863787145 -0.6726265438 1.7103047245
| 23> H 0.7174003665 -2.1507253461 -0.0151688075
| 24> H 0.1378299769 -1.1971026891 1.3540285056
| 25> H -1.0579700854 -1.2707390876 -1.4528448268
| 26> H -1.8161190037 -1.8284091669 0.0279481029
| 27> H -1.4118024122 2.2937557735 0.3677628759
| 28> H 0.9900952569 2.1364566521 -0.0870931884
| 29> H 0.739154707 1.3395454381 1.4538425157
| 30> H -3.5051121786 1.4759349246 -0.155763905
| 31> *
| 32>
| 33>                          ****END OF INPUT****

CARTESIAN COORDINATES (ANGSTROEM)
---------------------------------
  C      3.569948    0.307844   -0.774841
  C      2.575669   -0.155328    0.246181
  C      2.947970   -0.609571    1.432348
  C      1.127771   -0.032156   -0.172615
  H      1.090510    0.017365   -1.265671
  C      0.251603   -1.206976    0.269826
  C     -1.124401   -1.086100   -0.376628
  C     -1.704504    0.281993   -0.155462
  C     -0.945635    1.332808    0.194441
  C      0.525133    1.266637    0.382251
  C     -3.136124    0.445272   -0.318316
  O     -3.922741   -0.438755   -0.608066
  H      4.582025    0.270821   -0.381916
  H      3.516235   -0.323246   -1.661120
  H      3.348312    1.328972   -1.081284
  H      2.243303   -0.943020    2.173672
  H      3.986379   -0.672627    1.710305
  H      0.717400   -2.150725   -0.015169
  H      0.137830   -1.197103    1.354029
  H     -1.057970   -1.270739   -1.452845
  H     -1.816119   -1.828409    0.027948
  H     -1.411802    2.293756    0.367763
  H      0.990095    2.136457   -0.087093
  H      0.739155    1.339545    1.453843
  H     -3.505112    1.475935   -0.155764

 Total Charge           Charge          ....    0
 Multiplicity           Mult            ....    1
 Number of Electrons    NEL             ....   82
 Basis Dimension        Dim             ....  182

ORBITAL ENERGIES
----------------

  NO   OCC          E(Eh)            E(eV)
   0   2.0000     -18.742033      -509.9966
   1   2.0000      -9.961499      -271.0662
   2   2.0000      -9.919163      -269.9142
   3   2.0000      -9.907932      -269.6085
   4   2.0000      -9.906893      -269.5803
   5   2.0000      -9.905016      -269.5292
   6   2.0000      -9.904929      -269.5268
   7   2.0000      -9.892375      -269.1852
   8   2.0000      -9.891772      -269.1688
   9   2.0000      -9.888122      -269.0695
  10   2.0000      -9.876948      -268.7654
  11   2.0000      -0.931615       -25.3505
  12   2.0000      -0.783599       -21.3228
  13   2.0000      -0.734343       -19.9825
  14   2.0000      -0.684395       -18.6233
  15   2.0000      -0.678735       -18.4693
  16   2.0000      -0.619939       -16.8694
  17   2.0000      -0.588559       -16.0155
  18   2.0000      -0.562201       -15.2983
  19   2.0000      -0.524331       -14.2678
  20   2.0000      -0.484999       -13.1975
  21   2.0000      -0.470597       -12.8056
  22   2.0000      -0.443120       -12.0579
  23   2.0000      -0.423187       -11.5155
  24   2.0000      -0.410097       -11.1593
  25   2.0000      -0.398574       -10.8457
  26   2.0000      -0.391292       -10.6476
  27   2.0000      -0.383094       -10.4245
  28   2.0000      -0.374011       -10.1774
  29   2.0000      -0.359793        -9.7905
  30   2.0000      -0.355972        -9.6865
  31   2.0000      -0.351583        -9.5671
  32   2.0000      -0.340319        -9.2605
  33   2.0000      -0.330067        -8.9816
  34   2.0000      -0.324632        -8.8337
  35   2.0000      -0.299854        -8.1594
  36   2.0000      -0.290228        -7.8975
  37   2.0000      -0.277745        -7.5578
  38   2.0000      -0.237872        -6.4728
  39   2.0000      -0.222696        -6.0599
  40   2.0000      -0.200032        -5.4432
  41   0.0000      -0.087944        -2.3931
  42   0.0000      -0.019498        -0.5306
  43   0.0000       0.018667         0.5079
  44   0.0000       0.030234         0.8227
  45   0.0000       0.052358         1.4247

MULLIKEN ATOMIC CHARGES
-----------------------
   0 C :   -0.210737
   1 C :   -0.017848
   2 C :   -0.246897
   3 C :   -0.178971
   4 H :    0.064209
   5 C :   -0.132930
   6 C :   -0.056618
   7 C :   -0.059058
   8 C :   -0.155052
   9 C :   -0.048052
  10 C :    0.034703
  11 O :   -0.172688
  12 H :    0.097565
  13 H :    0.112755
  14 H :    0.106495
  15 H :    0.092381
  16 H :    0.084685
  17 H :    0.090715
  18 H :    0.092157
  19 H :    0.098269
  20 H :    0.101555
  21 H :    0.066844
  22 H :    0.097860
  23 H :    0.108124
  24 H :    0.030533
Sum of atomic charges:   -0.0000000

LOEWDIN ATOMIC CHARGES
----------------------
   0 C :   -0.321042
   1 C :   -0.048226
   2 C :   -0.267175
   3 C :   -0.130834
   4 H :    0.120509
   5 C :   -0.207893
   6 C :   -0.209498
   7 C :   -0.103347
   8 C :   -0.086405
   9 C :   -0.206446
  10 C :   -0.004358
  11 O :   -0.135156
  12 H :    0.123986
  13 H :    0.130212
  14 H :    0.126045
  15 H :    0.117384
  16 H :    0.119430
  17 H :    0.122676
  18 H :    0.119743
  19 H :    0.133053
  20 H :    0.133940
  21 H :    0.124828
  22 H :    0.131894
  23 H :    0.139812
  24 H :    0.076867

  Mayer bond orders larger than 0.100000
B(  0-C ,  1-C ) :   1.1331 B(  0-C , 12-H ) :   0.9388 B(  0-C , 13-H ) :   0.9273
B(  0-C , 14-H ) :   0.9302 B(  1-C ,  2-C ) :   2.0372 B(  1-C ,  3-C ) :   0.9912
B(  2-C , 15-H ) :   0.9092 B(  2-C , 16-H ) :   0.9013 B(  3-C ,  4-H ) :   0.8919
B(  3-C ,  5-C ) :   1.0654 B(  3-C ,  9-C ) :   1.0846 B(  5-C ,  6-C ) :   1.1300
B(  5-C , 17-H ) :   0.9199 B(  5-C , 18-H ) :   0.9053 B(  6-C ,  7-C ) :   1.0623
B(  6-C , 19-H ) :   0.8857 B(  6-C , 20-H ) :   0.8922 B(  7-C ,  8-C ) :   1.7643
B(  7-C , 10-C ) :   1.0201 B(  8-C ,  9-C ) :   1.0547 B(  8-C , 11-O ) :   0.1009
B(  8-C , 21-H ) :   0.9262 B(  9-C , 22-H ) :   0.8955 B(  9-C , 23-H ) :   0.8762
B( 10-C , 11-O ) :   2.1146 B( 10-C , 24-H ) :   0.9212

Dispersion correction           -0.026187988
FINAL SINGLE POINT ENERGY      -463.628882202285

DIPOLE MOMENT
-------------

Method             : SCF
Type of density    : Electron Density
Multiplicity       :   1
Irrep              :   0
Energy             :  -463.7050155470614072 Eh
Relativity type    :
Basis              : AO
                                X                 Y                 Z
Electronic contribution:    -11.479900542       0.186496018      -0.792551544
Nuclear contribution   :     12.663627585       0.440984699       0.916673081
                        -----------------------------------------
Total Dipole Moment    :      1.183727043       0.627480717       0.124121537
                        -----------------------------------------
Magnitude (a.u.)       :      1.345491702
Magnitude (Debye)      :      3.419968116

Rotational constants in cm-1:             0.099735             0.018038             0.017002
Rotational constants in MHz :          2989.966526           540.755215           509.718937

                             ****ORCA TERMINATED NORMALLY****
TOTAL RUN TIME: 0 days 0 hours 0 minutes 19 seconds 196 msec
