                         Program Version 6.0.0  -   RELEASE  -
|  1> ! pbe def2-sv(p) def2/J RI DEFGRID1 loosescf d4 GCP(DFT/SV(P)) printgap
|  2> %output
|  3>     printlevel normal
|  4> end
|  5> * xyz 0 1
|  6> C -2.8507225007 -0.1657252041 0.3864194335
|  7> C -1.6729803283 0.7462573117 0.0711788146
|  8> C -0.4059863593 -0.0285037909 -0.1864429413
|  9> O -0.3344325952 -1.2293473873 -0.3346069004
| 10> O 0.6447442782 0.7853182761 -0.2554561202
| 11> C 1.939490346 0.2102576123 -0.5001830278
| 12> C 2.5922755208 -0.2462413346 0.7956336127
| 13> H -2.9957590393 -0.8818554801 -0.4183805399
| 14> H -2.6644543769 -0.7232663165 1.3006768397
| 15> H -3.7562596286 0.4204475291 0.5082443776
| 16> H -1.4800394532 1.4453143876 0.8855730315
| 17> H -1.8742307982 1.3367948588 -0.8252220887
| 18> H 1.8229673878 -0.6314084777 -1.189716087
| 19> H 2.5097895259 1.0109841043 -0.9717869382
| 20> H 3.5929666198 -0.6095319526 0.5858312496
| 21> H 2.6499812927 0.5815756147 1.4972196195
| 22> H 2.0111474822 -1.0501677338 1.242056943
| 23> *
| 24>
| 25>                          ****END OF INPUT****

CARTESIAN COORDINATES (ANGSTROEM)
---------------------------------
  C     -2.850723   -0.165725    0.386419
  C     -1.672980    0.746257    0.071179
  C     -0.405986   -0.028504   -0.186443
  O     -0.334433   -1.229347   -0.334607
  O      0.644744    0.785318   -0.255456
  C      1.939490    0.210258   -0.500183
  C      2.592276   -0.246241    0.795634
  H     -2.995759   -0.881855   -0.418381
  H     -2.664454   -0.723266    1.300677
  H     -3.756260    0.420448    0.508244
  H     -1.480039    1.445314    0.885573
  H     -1.874231    1.336795   -0.825222
  H      1.822967   -0.631408   -1.189716
  H      2.509790    1.010984   -0.971787
  H      3.592967   -0.609532    0.585831
  H      2.649981    0.581576    1.497220
  H      2.011147   -1.050168    1.242057

 Total Charge           Charge          ....    0
 Multiplicity           Mult            ....    1
 Number of Electrons    NEL             ....   56
 Basis Dimension        Dim             ....  118

ORBITAL ENERGIES
----------------

  NO   OCC          E(Eh)            E(eV)
   0   2.0000     -18.795150      -511.4420
   1   2.0000     -18.733306      -509.7592
   2   2.0000     -10.005519      -272.2640
   3   2.0000      -9.945792      -270.6388
   4   2.0000      -9.900020      -269.3932
   5   2.0000      -9.886081      -269.0139
   6   2.0000      -9.878026      -268.7947
   7   2.0000      -1.002513       -27.2798
   8   2.0000      -0.909687       -24.7538
   9   2.0000      -0.717984       -19.5373
  10   2.0000      -0.685894       -18.6641
  11   2.0000      -0.608551       -16.5595
  12   2.0000      -0.556928       -15.1548
  13   2.0000      -0.491534       -13.3753
  14   2.0000      -0.451490       -12.2857
  15   2.0000      -0.434804       -11.8316
  16   2.0000      -0.421258       -11.4630
  17   2.0000      -0.392571       -10.6824
  18   2.0000      -0.387789       -10.5523
  19   2.0000      -0.358056        -9.7432
  20   2.0000      -0.346649        -9.4328
  21   2.0000      -0.337994        -9.1973
  22   2.0000      -0.325786        -8.8651
  23   2.0000      -0.317191        -8.6312
  24   2.0000      -0.304644        -8.2898
  25   2.0000      -0.289242        -7.8707
  26   2.0000      -0.255132        -6.9425
  27   2.0000      -0.219563        -5.9746
  28   0.0000      -0.018536        -0.5044
  29   0.0000       0.040368         1.0985
  30   0.0000       0.058530         1.5927
  31   0.0000       0.080739         2.1970
  32   0.0000       0.090625         2.4660

MULLIKEN ATOMIC CHARGES
-----------------------
   0 C :   -0.267177
   1 C :   -0.190178
   2 C :    0.113736
   3 O :   -0.207740
   4 O :   -0.243468
   5 C :   -0.011318
   6 C :   -0.303503
   7 H :    0.115862
   8 H :    0.109178
   9 H :    0.101207
  10 H :    0.110777
  11 H :    0.116884
  12 H :    0.106300
  13 H :    0.100312
  14 H :    0.111312
  15 H :    0.111825
  16 H :    0.125990
Sum of atomic charges:    0.0000000

LOEWDIN ATOMIC CHARGES
----------------------
   0 C :   -0.337044
   1 C :   -0.259428
   2 C :    0.038692
   3 O :   -0.167607
   4 O :   -0.073853
   5 C :   -0.112570
   6 C :   -0.356438
   7 H :    0.126768
   8 H :    0.123987
   9 H :    0.120344
  10 H :    0.136618
  11 H :    0.142449
  12 H :    0.118356
  13 H :    0.116317
  14 H :    0.129706
  15 H :    0.123688
  16 H :    0.130015

  Mayer bond orders larger than 0.100000
B(  0-C ,  1-C ) :   1.1545 B(  0-C ,  7-H ) :   0.9507 B(  0-C ,  8-H ) :   0.9582
B(  0-C ,  9-H ) :   0.9487 B(  1-C ,  2-C ) :   1.0184 B(  1-C , 10-H ) :   0.9086
B(  1-C , 11-H ) :   0.8975 B(  2-C ,  3-O ) :   2.0466 B(  2-C ,  4-O ) :   1.2083
B(  4-O ,  5-C ) :   0.9249 B(  5-C ,  6-C ) :   1.1724 B(  5-C , 12-H ) :   0.9147
B(  5-C , 13-H ) :   0.9377 B(  6-C , 14-H ) :   0.9446 B(  6-C , 15-H ) :   0.9492
B(  6-C , 16-H ) :   0.9467

Dispersion correction           -0.011917713
FINAL SINGLE POINT ENERGY      -346.246139702050

DIPOLE MOMENT
-------------

Method             : SCF
Type of density    : Electron Density
Multiplicity       :   1
Irrep              :   0
Energy             :  -346.3109724748060785 Eh
Relativity type    :
Basis              : AO
                                X                 Y                 Z
Electronic contribution:      0.465204244      -0.225230230      -2.371053939
Nuclear contribution   :     -0.167919764       0.836722619       2.444086410
                        -----------------------------------------
Total Dipole Moment    :      0.297284481       0.611492389       0.073032472
                        -----------------------------------------
Magnitude (a.u.)       :      0.683838245
Magnitude (Debye)      :      1.738178684

Rotational constants in cm-1:             0.219338             0.046393             0.043373
Rotational constants in MHz :          6575.598279          1390.841700          1300.282900

                             ****ORCA TERMINATED NORMALLY****
TOTAL RUN TIME: 0 days 0 hours 0 minutes 9 seconds 367 msec
