                         Program Version 6.0.0  -   RELEASE  -
|  1> ! pbe def2-sv(p) def2/J RI DEFGRID1 loosescf d4 GCP(DFT/SV(P)) printgap
|  2> %output
|  3>     printlevel normal
|  4> end
|  5> * xyz 0 1
|  6> C -2.016911201 0.3304030704 0.7000049452
|  7> C -1.4824380822 -0.4756777656 -0.4769229714
|  8> C -0.1845150917 0.1180849138 -1.0407370877
|  9> C 0.9412492179 0.1127188835 -0.0430220909
| 10> C 1.3735401121 1.2254632722 0.5293852797
| 11> C 1.5424234676 -1.2254567666 0.2622825523
| 12> H -1.2865812475 0.3579947229 1.5055028387
| 13> H -2.9355182707 -0.1111072777 1.0790168478
| 14> H -2.2263658152 1.3535516706 0.3956827712
| 15> H -1.3095314392 -1.5068728031 -0.1643132226
| 16> H -2.2304202814 -0.4932722423 -1.272547084
| 17> H 0.1126279492 -0.4632510348 -1.9171340444
| 18> H -0.3793628854 1.1429438131 -1.3623441025
| 19> H 2.1784560526 1.2233365001 1.2456457308
| 20> H 0.9405040337 2.1862401235 0.3065671121
| 21> H 1.8960667444 -1.6960455145 -0.6539847544
| 22> H 2.3758732441 -1.1288256867 0.9526772475
| 23> H 0.7984835805 -1.8840078634 0.7076054752
| 24> *
| 25>
| 26>                          ****END OF INPUT****

CARTESIAN COORDINATES (ANGSTROEM)
---------------------------------
  C     -2.016911    0.330403    0.700005
  C     -1.482438   -0.475678   -0.476923
  C     -0.184515    0.118085   -1.040737
  C      0.941249    0.112719   -0.043022
  C      1.373540    1.225463    0.529385
  C      1.542423   -1.225457    0.262283
  H     -1.286581    0.357995    1.505503
  H     -2.935518   -0.111107    1.079017
  H     -2.226366    1.353552    0.395683
  H     -1.309531   -1.506873   -0.164313
  H     -2.230420   -0.493272   -1.272547
  H      0.112628   -0.463251   -1.917134
  H     -0.379363    1.142944   -1.362344
  H      2.178456    1.223337    1.245646
  H      0.940504    2.186240    0.306567
  H      1.896067   -1.696046   -0.653985
  H      2.375873   -1.128826    0.952677
  H      0.798484   -1.884008    0.707605

 Total Charge           Charge          ....    0
 Multiplicity           Mult            ....    1
 Number of Electrons    NEL             ....   48
 Basis Dimension        Dim             ....  108

ORBITAL ENERGIES
----------------

  NO   OCC          E(Eh)            E(eV)
   0   2.0000      -9.895827      -269.2791
   1   2.0000      -9.885273      -268.9920
   2   2.0000      -9.883648      -268.9477
   3   2.0000      -9.878286      -268.8018
   4   2.0000      -9.868913      -268.5468
   5   2.0000      -9.866260      -268.4746
   6   2.0000      -0.738436       -20.0939
   7   2.0000      -0.682756       -18.5787
   8   2.0000      -0.613251       -16.6874
   9   2.0000      -0.604334       -16.4448
  10   2.0000      -0.524782       -14.2801
  11   2.0000      -0.461667       -12.5626
  12   2.0000      -0.417071       -11.3491
  13   2.0000      -0.408506       -11.1160
  14   2.0000      -0.392631       -10.6840
  15   2.0000      -0.371456       -10.1078
  16   2.0000      -0.361778        -9.8445
  17   2.0000      -0.338361        -9.2073
  18   2.0000      -0.323341        -8.7986
  19   2.0000      -0.307606        -8.3704
  20   2.0000      -0.299037        -8.1372
  21   2.0000      -0.288561        -7.8521
  22   2.0000      -0.277326        -7.5464
  23   2.0000      -0.214329        -5.8322
  24   0.0000      -0.009522        -0.2591
  25   0.0000       0.035822         0.9748
  26   0.0000       0.066703         1.8151
  27   0.0000       0.074005         2.0138
  28   0.0000       0.087390         2.3780

MULLIKEN ATOMIC CHARGES
-----------------------
   0 C :   -0.282274
   1 C :   -0.201330
   2 C :   -0.096603
   3 C :   -0.101355
   4 C :   -0.222404
   5 C :   -0.218997
   6 H :    0.114880
   7 H :    0.101285
   8 H :    0.094654
   9 H :    0.089775
  10 H :    0.088189
  11 H :    0.082870
  12 H :    0.076175
  13 H :    0.079429
  14 H :    0.080958
  15 H :    0.104708
  16 H :    0.097481
  17 H :    0.112558
Sum of atomic charges:   -0.0000000

LOEWDIN ATOMIC CHARGES
----------------------
   0 C :   -0.343851
   1 C :   -0.229655
   2 C :   -0.210577
   3 C :   -0.059329
   4 C :   -0.267745
   5 C :   -0.323081
   6 H :    0.121241
   7 H :    0.118152
   8 H :    0.116448
   9 H :    0.112860
  10 H :    0.116614
  11 H :    0.120124
  12 H :    0.118763
  13 H :    0.115263
  14 H :    0.115673
  15 H :    0.127624
  16 H :    0.124108
  17 H :    0.127367

  Mayer bond orders larger than 0.100000
B(  0-C ,  1-C ) :   1.1518 B(  0-C ,  6-H ) :   0.9479 B(  0-C ,  7-H ) :   0.9519
B(  0-C ,  8-H ) :   0.9543 B(  1-C ,  2-C ) :   1.1058 B(  1-C ,  9-H ) :   0.9259
B(  1-C , 10-H ) :   0.9247 B(  2-C ,  3-C ) :   1.0775 B(  2-C , 11-H ) :   0.9047
B(  2-C , 12-H ) :   0.9083 B(  3-C ,  4-C ) :   2.0303 B(  3-C ,  5-C ) :   1.1128
B(  4-C , 13-H ) :   0.9075 B(  4-C , 14-H ) :   0.9107 B(  5-C , 15-H ) :   0.9310
B(  5-C , 16-H ) :   0.9405 B(  5-C , 17-H ) :   0.9285

Dispersion correction           -0.013942120
FINAL SINGLE POINT ENERGY      -235.245333213925

DIPOLE MOMENT
-------------

Method             : SCF
Type of density    : Electron Density
Multiplicity       :   1
Irrep              :   0
Energy             :  -235.3027079968987891 Eh
Relativity type    :
Basis              : AO
                                X                 Y                 Z
Electronic contribution:      1.861340173       0.763406241      -0.842232188
Nuclear contribution   :     -1.938027500      -0.956284214       0.771521657
                        -----------------------------------------
Total Dipole Moment    :     -0.076687328      -0.192877973      -0.070710532
                        -----------------------------------------
Magnitude (a.u.)       :      0.219277993
Magnitude (Debye)      :      0.557360364

Rotational constants in cm-1:             0.168458             0.079683             0.070019
Rotational constants in MHz :          5050.236055          2388.821360          2099.109937

                             ****ORCA TERMINATED NORMALLY****
TOTAL RUN TIME: 0 days 0 hours 0 minutes 7 seconds 891 msec
