                         Program Version 6.0.0  -   RELEASE  -
|  1> ! r2scan-3c def2/J RI DEFGRID2 scfconv6 printgap
|  2> %output
|  3>     printlevel normal
|  4> end
|  5> * xyz 0 1
|  6> C -2.9575027223 2.2249629727 -0.0532306066
|  7> O -2.6219018709 0.8454254877 0.0010907484
|  8> C -1.3310761413 0.4331551827 -0.0097758693
|  9> C -1.1464005918 -0.9554074479 0.0269535736
| 10> C 0.1026316052 -1.5309296198 0.0107712259
| 11> C 1.2327173854 -0.7258484285 -0.0361276956
| 12> C 1.1085559101 0.6573965769 -0.0473979834
| 13> C -0.1843932226 1.231457049 -0.0432128958
| 14> O -0.2765453626 2.5853204115 -0.0745229564
| 15> O 2.0911479669 1.6059292878 -0.0905154029
| 16> C 3.4071405454 1.3419580366 0.3737711738
| 17> Cl 2.7568814989 -1.5607178328 -0.1169588385
| 18> Cl -2.5522618292 -1.9588597436 0.0812142408
| 19> H -2.5731104075 2.7594945316 0.8153523662
| 20> H -4.0453244379 2.2390042863 -0.0481515246
| 21> H -2.5820988255 2.6871585912 -0.9661092837
| 22> H 0.2030745858 -2.6026528842 0.025807193
| 23> H 0.6240981938 2.9573981875 -0.0832230607
| 24> H 3.8498342814 2.3245891787 0.5255870118
| 25> H 3.9874743968 0.7925097005 -0.3677285596
| 26> H 3.3927851411 0.7935121786 1.3157158806
| 27> *
| 28>
| 29>                          ****END OF INPUT****

CARTESIAN COORDINATES (ANGSTROEM)
---------------------------------
  C     -2.957503    2.224963   -0.053231
  O     -2.621902    0.845425    0.001091
  C     -1.331076    0.433155   -0.009776
  C     -1.146401   -0.955407    0.026954
  C      0.102632   -1.530930    0.010771
  C      1.232717   -0.725848   -0.036128
  C      1.108556    0.657397   -0.047398
  C     -0.184393    1.231457   -0.043213
  O     -0.276545    2.585320   -0.074523
  O      2.091148    1.605929   -0.090515
  C      3.407141    1.341958    0.373771
  Cl     2.756881   -1.560718   -0.116959
  Cl    -2.552262   -1.958860    0.081214
  H     -2.573110    2.759495    0.815352
  H     -4.045324    2.239004   -0.048152
  H     -2.582099    2.687159   -0.966109
  H      0.203075   -2.602653    0.025807
  H      0.624098    2.957398   -0.083223
  H      3.849834    2.324589    0.525587
  H      3.987474    0.792510   -0.367729
  H      3.392785    0.793512    1.315716

 Total Charge           Charge          ....    0
 Multiplicity           Mult            ....    1
 Number of Electrons    NEL             ....  114
 Basis Dimension        Dim             ....  318

ORBITAL ENERGIES
----------------

  NO   OCC          E(Eh)            E(eV)
   0   2.0000    -101.226766     -2754.5203
   1   2.0000    -101.214039     -2754.1740
   2   2.0000     -19.010445      -517.3005
   3   2.0000     -18.993494      -516.8392
   4   2.0000     -18.991606      -516.7879
   5   2.0000     -10.117499      -275.3111
   6   2.0000     -10.114023      -275.2166
   7   2.0000     -10.111744      -275.1545
   8   2.0000     -10.104752      -274.9643
   9   2.0000     -10.098235      -274.7869
  10   2.0000     -10.096640      -274.7435
  11   2.0000     -10.081837      -274.3407
  12   2.0000     -10.049315      -273.4558
  13   2.0000      -9.382803      -255.3191
  14   2.0000      -9.369854      -254.9667
  15   2.0000      -7.129212      -193.9957
  16   2.0000      -7.118870      -193.7143
  17   2.0000      -7.118567      -193.7060
  18   2.0000      -7.116292      -193.6441
  19   2.0000      -7.106114      -193.3672
  20   2.0000      -7.105431      -193.3486
  21   2.0000      -1.065922       -29.0052
  22   2.0000      -1.043423       -28.3930
  23   2.0000      -1.026443       -27.9309
  24   2.0000      -0.872019       -23.7288
  25   2.0000      -0.838944       -22.8288
  26   2.0000      -0.793177       -21.5834
  27   2.0000      -0.733187       -19.9510
  28   2.0000      -0.723232       -19.6801
  29   2.0000      -0.679984       -18.5033
  30   2.0000      -0.655072       -17.8254
  31   2.0000      -0.599654       -16.3174
  32   2.0000      -0.576615       -15.6905
  33   2.0000      -0.534835       -14.5536
  34   2.0000      -0.514914       -14.0115
  35   2.0000      -0.492010       -13.3883
  36   2.0000      -0.471752       -12.8370
  37   2.0000      -0.458816       -12.4850
  38   2.0000      -0.445771       -12.1301
  39   2.0000      -0.440612       -11.9897
  40   2.0000      -0.432080       -11.7575
  41   2.0000      -0.404219       -10.9994
  42   2.0000      -0.399360       -10.8671
  43   2.0000      -0.395316       -10.7571
  44   2.0000      -0.376816       -10.2537
  45   2.0000      -0.361083        -9.8256
  46   2.0000      -0.357377        -9.7247
  47   2.0000      -0.346487        -9.4284
  48   2.0000      -0.339004        -9.2248
  49   2.0000      -0.315683        -8.5902
  50   2.0000      -0.305048        -8.3008
  51   2.0000      -0.302759        -8.2385
  52   2.0000      -0.287012        -7.8100
  53   2.0000      -0.275450        -7.4954
  54   2.0000      -0.265115        -7.2141
  55   2.0000      -0.202905        -5.5213
  56   2.0000      -0.195826        -5.3287
  57   0.0000      -0.033133        -0.9016
  58   0.0000      -0.029698        -0.8081
  59   0.0000      -0.019252        -0.5239
  60   0.0000       0.026990         0.7344
  61   0.0000       0.033694         0.9169

MULLIKEN ATOMIC CHARGES
-----------------------
   0 C :   -0.299307
   1 O :   -0.175630
   2 C :    0.141861
   3 C :    0.071215
   4 C :   -0.419218
   5 C :    0.027725
   6 C :    0.262991
   7 C :    0.138605
   8 O :   -0.374359
   9 O :   -0.246875
  10 C :   -0.299115
  11 Cl:   -0.143536
  12 Cl:   -0.127029
  13 H :    0.155868
  14 H :    0.149550
  15 H :    0.156310
  16 H :    0.175842
  17 H :    0.327173
  18 H :    0.147515
  19 H :    0.167205
  20 H :    0.163210
Sum of atomic charges:    0.0000000

LOEWDIN ATOMIC CHARGES
----------------------
   0 C :   -0.030296
   1 O :   -0.680768
   2 C :    0.193279
   3 C :   -0.137589
   4 C :   -0.193244
   5 C :   -0.165815
   6 C :    0.183788
   7 C :    0.221793
   8 O :   -0.487100
   9 O :   -0.708700
  10 C :   -0.051386
  11 Cl:    0.140610
  12 Cl:    0.179985
  13 H :    0.174268
  14 H :    0.175764
  15 H :    0.174610
  16 H :    0.189009
  17 H :    0.305116
  18 H :    0.174923
  19 H :    0.169439
  20 H :    0.172315

  Mayer bond orders larger than 0.100000
B(  0-C ,  1-O ) :   0.8612 B(  0-C , 13-H ) :   0.9608 B(  0-C , 14-H ) :   0.9674
B(  0-C , 15-H ) :   0.9610 B(  1-O ,  2-C ) :   1.1738 B(  2-C ,  3-C ) :   1.2649
B(  2-C ,  7-C ) :   1.2708 B(  3-C ,  4-C ) :   1.3403 B(  3-C ,  7-C ) :  -0.1019
B(  3-C , 12-Cl) :   0.9958 B(  4-C ,  5-C ) :   1.2368 B(  4-C , 12-Cl) :   0.1122
B(  4-C , 16-H ) :   0.9156 B(  5-C ,  6-C ) :   1.2650 B(  5-C , 11-Cl) :   1.0100
B(  6-C ,  7-C ) :   1.2027 B(  6-C ,  9-O ) :   1.0056 B(  7-C ,  8-O ) :   0.9763
B(  8-O , 17-H ) :   0.8322 B(  9-O , 10-C ) :   0.8411 B( 10-C , 18-H ) :   0.9654
B( 10-C , 19-H ) :   0.9595 B( 10-C , 20-H ) :   0.9573

Dispersion correction           -0.008899597
FINAL SINGLE POINT ENERGY     -1455.544527993538

DIPOLE MOMENT
-------------

Method             : SCF
Type of density    : Electron Density
Multiplicity       :   1
Irrep              :   0
Energy             : -1455.5526164638217779 Eh
Relativity type    :
Basis              : AO
                                X                 Y                 Z
Electronic contribution:     -1.521799015     -14.825523837      -1.005121445
Nuclear contribution   :      2.393524752      16.010669271       1.187543174
                        -----------------------------------------
Total Dipole Moment    :      0.871725738       1.185145434       0.182421729
                        -----------------------------------------
Magnitude (a.u.)       :      1.482482090
Magnitude (Debye)      :      3.768170012

Rotational constants in cm-1:             0.028911             0.015666             0.010241
Rotational constants in MHz :           866.721231           469.652229           307.007026

                             ****ORCA TERMINATED NORMALLY****
TOTAL RUN TIME: 0 days 0 hours 0 minutes 55 seconds 832 msec
