                         Program Version 6.0.0  -   RELEASE  -
|  1> ! r2scan-3c def2/J RI DEFGRID2 scfconv6 printgap
|  2> %output
|  3>     printlevel normal
|  4> end
|  5> %cpcm
|  6>     smd true
|  7>     smdsolvent "water"
|  8> end
|  9> * xyz 0 1
| 10> C -2.9575027223 2.2249629727 -0.0532306066
| 11> O -2.6219018709 0.8454254877 0.0010907484
| 12> C -1.3310761413 0.4331551827 -0.0097758693
| 13> C -1.1464005918 -0.9554074479 0.0269535736
| 14> C 0.1026316052 -1.5309296198 0.0107712259
| 15> C 1.2327173854 -0.7258484285 -0.0361276956
| 16> C 1.1085559101 0.6573965769 -0.0473979834
| 17> C -0.1843932226 1.231457049 -0.0432128958
| 18> O -0.2765453626 2.5853204115 -0.0745229564
| 19> O 2.0911479669 1.6059292878 -0.0905154029
| 20> C 3.4071405454 1.3419580366 0.3737711738
| 21> Cl 2.7568814989 -1.5607178328 -0.1169588385
| 22> Cl -2.5522618292 -1.9588597436 0.0812142408
| 23> H -2.5731104075 2.7594945316 0.8153523662
| 24> H -4.0453244379 2.2390042863 -0.0481515246
| 25> H -2.5820988255 2.6871585912 -0.9661092837
| 26> H 0.2030745858 -2.6026528842 0.025807193
| 27> H 0.6240981938 2.9573981875 -0.0832230607
| 28> H 3.8498342814 2.3245891787 0.5255870118
| 29> H 3.9874743968 0.7925097005 -0.3677285596
| 30> H 3.3927851411 0.7935121786 1.3157158806
| 31> *
| 32>
| 33>                          ****END OF INPUT****

CARTESIAN COORDINATES (ANGSTROEM)
---------------------------------
  C     -2.957503    2.224963   -0.053231
  O     -2.621902    0.845425    0.001091
  C     -1.331076    0.433155   -0.009776
  C     -1.146401   -0.955407    0.026954
  C      0.102632   -1.530930    0.010771
  C      1.232717   -0.725848   -0.036128
  C      1.108556    0.657397   -0.047398
  C     -0.184393    1.231457   -0.043213
  O     -0.276545    2.585320   -0.074523
  O      2.091148    1.605929   -0.090515
  C      3.407141    1.341958    0.373771
  Cl     2.756881   -1.560718   -0.116959
  Cl    -2.552262   -1.958860    0.081214
  H     -2.573110    2.759495    0.815352
  H     -4.045324    2.239004   -0.048152
  H     -2.582099    2.687159   -0.966109
  H      0.203075   -2.602653    0.025807
  H      0.624098    2.957398   -0.083223
  H      3.849834    2.324589    0.525587
  H      3.987474    0.792510   -0.367729
  H      3.392785    0.793512    1.315716

 Total Charge           Charge          ....    0
 Multiplicity           Mult            ....    1
 Number of Electrons    NEL             ....  114
 Basis Dimension        Dim             ....  318

ORBITAL ENERGIES
----------------

  NO   OCC          E(Eh)            E(eV)
   0   2.0000    -101.226504     -2754.5132
   1   2.0000    -101.224653     -2754.4628
   2   2.0000     -19.000968      -517.0426
   3   2.0000     -18.994942      -516.8787
   4   2.0000     -18.987797      -516.6842
   5   2.0000     -10.115805      -275.2650
   6   2.0000     -10.113869      -275.2124
   7   2.0000     -10.113105      -275.1916
   8   2.0000     -10.104563      -274.9591
   9   2.0000     -10.100053      -274.8364
  10   2.0000     -10.077298      -274.2172
  11   2.0000     -10.072913      -274.0979
  12   2.0000     -10.050077      -273.4765
  13   2.0000      -9.382568      -255.3127
  14   2.0000      -9.380599      -255.2591
  15   2.0000      -7.128973      -193.9892
  16   2.0000      -7.126859      -193.9317
  17   2.0000      -7.118698      -193.7096
  18   2.0000      -7.118265      -193.6978
  19   2.0000      -7.116913      -193.6610
  20   2.0000      -7.116276      -193.6437
  21   2.0000      -1.058903       -28.8142
  22   2.0000      -1.043172       -28.3862
  23   2.0000      -1.021182       -27.7878
  24   2.0000      -0.874254       -23.7897
  25   2.0000      -0.843239       -22.9457
  26   2.0000      -0.794952       -21.6318
  27   2.0000      -0.728897       -19.8343
  28   2.0000      -0.722221       -19.6526
  29   2.0000      -0.673089       -18.3157
  30   2.0000      -0.650675       -17.7058
  31   2.0000      -0.597187       -16.2503
  32   2.0000      -0.571736       -15.5577
  33   2.0000      -0.529548       -14.4097
  34   2.0000      -0.509446       -13.8627
  35   2.0000      -0.489964       -13.3326
  36   2.0000      -0.468686       -12.7536
  37   2.0000      -0.451128       -12.2758
  38   2.0000      -0.447207       -12.1691
  39   2.0000      -0.434488       -11.8230
  40   2.0000      -0.422992       -11.5102
  41   2.0000      -0.401268       -10.9190
  42   2.0000      -0.394433       -10.7331
  43   2.0000      -0.388979       -10.5847
  44   2.0000      -0.374743       -10.1973
  45   2.0000      -0.361905        -9.8479
  46   2.0000      -0.356292        -9.6952
  47   2.0000      -0.346794        -9.4367
  48   2.0000      -0.329090        -8.9550
  49   2.0000      -0.309259        -8.4154
  50   2.0000      -0.306591        -8.3428
  51   2.0000      -0.305481        -8.3126
  52   2.0000      -0.287697        -7.8286
  53   2.0000      -0.279591        -7.6081
  54   2.0000      -0.267153        -7.2696
  55   2.0000      -0.202513        -5.5107
  56   2.0000      -0.197476        -5.3736
  57   0.0000      -0.034594        -0.9413
  58   0.0000      -0.030652        -0.8341
  59   0.0000      -0.020175        -0.5490
  60   0.0000       0.024984         0.6798
  61   0.0000       0.041791         1.1372

MULLIKEN ATOMIC CHARGES
-----------------------
   0 C :   -0.323091
   1 O :   -0.209208
   2 C :    0.150967
   3 C :    0.039516
   4 C :   -0.421437
   5 C :   -0.001134
   6 C :    0.296556
   7 C :    0.129162
   8 O :   -0.401871
   9 O :   -0.254779
  10 C :   -0.324113
  11 Cl:   -0.145864
  12 Cl:   -0.149764
  13 H :    0.171595
  14 H :    0.170020
  15 H :    0.171655
  16 H :    0.204260
  17 H :    0.367963
  18 H :    0.174070
  19 H :    0.176596
  20 H :    0.178901
Sum of atomic charges:    0.0000000

LOEWDIN ATOMIC CHARGES
----------------------
   0 C :   -0.029654
   1 O :   -0.703941
   2 C :    0.188308
   3 C :   -0.151809
   4 C :   -0.199061
   5 C :   -0.169898
   6 C :    0.189859
   7 C :    0.222921
   8 O :   -0.489086
   9 O :   -0.704510
  10 C :   -0.048676
  11 Cl:    0.138218
  12 Cl:    0.160650
  13 H :    0.180085
  14 H :    0.183787
  15 H :    0.180265
  16 H :    0.198314
  17 H :    0.317808
  18 H :    0.186030
  19 H :    0.172489
  20 H :    0.177902

  Mayer bond orders larger than 0.100000
B(  0-C ,  1-O ) :   0.8499 B(  0-C , 13-H ) :   0.9549 B(  0-C , 14-H ) :   0.9597
B(  0-C , 15-H ) :   0.9553 B(  1-O ,  2-C ) :   1.1762 B(  2-C ,  3-C ) :   1.2416
B(  2-C ,  7-C ) :   1.2618 B(  3-C ,  4-C ) :   1.3367 B(  3-C ,  7-C ) :  -0.1045
B(  3-C , 12-Cl) :   0.9723 B(  4-C ,  5-C ) :   1.2395 B(  4-C , 12-Cl) :   0.1099
B(  4-C , 16-H ) :   0.9138 B(  5-C ,  6-C ) :   1.2439 B(  5-C , 11-Cl) :   1.0252
B(  6-C ,  7-C ) :   1.1939 B(  6-C ,  9-O ) :   1.0027 B(  7-C ,  8-O ) :   0.9969
B(  8-O , 17-H ) :   0.8126 B(  9-O , 10-C ) :   0.8294 B( 10-C , 18-H ) :   0.9572
B( 10-C , 19-H ) :   0.9542 B( 10-C , 20-H ) :   0.9540

Dispersion correction           -0.008899597
FINAL SINGLE POINT ENERGY     -1455.548593540718

DIPOLE MOMENT
-------------

Method             : SCF
Type of density    : Electron Density
Multiplicity       :   1
Irrep              :   0
Energy             : -1455.5566820110020672 Eh
Relativity type    :
Basis              : AO
                                X                 Y                 Z
Electronic contribution:     -1.087760524     -14.427560594      -0.931782671
Nuclear contribution   :      2.393524752      16.010669271       1.187543174
                        -----------------------------------------
Total Dipole Moment    :      1.305764228       1.583108677       0.255760503
                        -----------------------------------------
Magnitude (a.u.)       :      2.068010333
Magnitude (Debye)      :      5.256464528

Rotational constants in cm-1:             0.028911             0.015666             0.010241
Rotational constants in MHz :           866.721231           469.652229           307.007026

                             ****ORCA TERMINATED NORMALLY****
TOTAL RUN TIME: 0 days 0 hours 1 minutes 6 seconds 117 msec
