                         Program Version 6.0.0  -   RELEASE  -
|  1> ! pbe def2-sv(p) def2/J RI DEFGRID1 loosescf d4 GCP(DFT/SV(P)) printgap
|  2> %output
|  3>     printlevel normal
|  4> end
|  5> * xyz 0 1
|  6> C 2.87650254 -1.0348423698 0.8825868193
|  7> C 2.5481204746 0.2048463788 0.1057732777
|  8> C 3.4923555976 1.0240434346 -0.3311006412
|  9> C 1.0899286336 0.4828888711 -0.1708533139
| 10> H 1.0169551506 1.4852620156 -0.6027583734
| 11> C 0.5135746044 -0.5255291419 -1.1911239354
| 12> C -0.7477012834 -1.2449573451 -0.6881121261
| 13> C -1.6884793826 -0.2510302436 -0.0799818842
| 14> C -1.1729991622 0.6044758313 0.8229962969
| 15> C 0.2691194315 0.5049657725 1.1406511082
| 16> C -3.080841293 -0.2063247991 -0.4705299675
| 17> O -3.9235852822 0.5527755238 -0.0224118792
| 18> H 2.2463932948 -1.8672990234 0.5798766247
| 19> H 3.917220402 -1.310526031 0.7362879854
| 20> H 2.7226136904 -0.8610991862 1.9469630529
| 21> H 3.2616966444 1.9235162139 -0.8765739968
| 22> H 4.5377867395 0.8287515735 -0.1618614928
| 23> H 0.2610578187 0.0081931625 -2.1078375309
| 24> H 1.2675129119 -1.2696797003 -1.4491533207
| 25> H -1.2204312086 -1.7826499227 -1.5099940744
| 26> H -0.4648667402 -1.9743433812 0.075253413
| 27> H -1.7934366629 1.3567271804 1.2860740021
| 28> H 0.6047203499 1.3266593158 1.7711742407
| 29> H 0.4400969495 -0.4346500008 1.6714854208
| 30> H -3.3684543169 -0.9427597077 -1.2451492114
| 31> *
| 32>
| 33>                          ****END OF INPUT****

CARTESIAN COORDINATES (ANGSTROEM)
---------------------------------
  C      2.876503   -1.034842    0.882587
  C      2.548120    0.204846    0.105773
  C      3.492356    1.024043   -0.331101
  C      1.089929    0.482889   -0.170853
  H      1.016955    1.485262   -0.602758
  C      0.513575   -0.525529   -1.191124
  C     -0.747701   -1.244957   -0.688112
  C     -1.688479   -0.251030   -0.079982
  C     -1.172999    0.604476    0.822996
  C      0.269119    0.504966    1.140651
  C     -3.080841   -0.206325   -0.470530
  O     -3.923585    0.552776   -0.022412
  H      2.246393   -1.867299    0.579877
  H      3.917220   -1.310526    0.736288
  H      2.722614   -0.861099    1.946963
  H      3.261697    1.923516   -0.876574
  H      4.537787    0.828752   -0.161861
  H      0.261058    0.008193   -2.107838
  H      1.267513   -1.269680   -1.449153
  H     -1.220431   -1.782650   -1.509994
  H     -0.464867   -1.974343    0.075253
  H     -1.793437    1.356727    1.286074
  H      0.604720    1.326659    1.771174
  H      0.440097   -0.434650    1.671485
  H     -3.368454   -0.942760   -1.245149

 Total Charge           Charge          ....    0
 Multiplicity           Mult            ....    1
 Number of Electrons    NEL             ....   82
 Basis Dimension        Dim             ....  182

ORBITAL ENERGIES
----------------

  NO   OCC          E(Eh)            E(eV)
   0   2.0000     -18.739516      -509.9281
   1   2.0000      -9.961567      -271.0680
   2   2.0000      -9.911079      -269.6942
   3   2.0000      -9.910197      -269.6702
   4   2.0000      -9.906556      -269.5711
   5   2.0000      -9.904666      -269.5197
   6   2.0000      -9.901475      -269.4328
   7   2.0000      -9.900274      -269.4001
   8   2.0000      -9.898022      -269.3389
   9   2.0000      -9.890696      -269.1395
  10   2.0000      -9.878462      -268.8066
  11   2.0000      -0.929016       -25.2798
  12   2.0000      -0.785502       -21.3746
  13   2.0000      -0.735267       -20.0076
  14   2.0000      -0.683767       -18.6062
  15   2.0000      -0.673896       -18.3376
  16   2.0000      -0.624442       -16.9919
  17   2.0000      -0.586723       -15.9655
  18   2.0000      -0.570468       -15.5232
  19   2.0000      -0.522623       -14.2213
  20   2.0000      -0.483184       -13.1481
  21   2.0000      -0.465474       -12.6662
  22   2.0000      -0.446101       -12.1390
  23   2.0000      -0.439263       -11.9530
  24   2.0000      -0.409996       -11.1566
  25   2.0000      -0.396873       -10.7995
  26   2.0000      -0.391073       -10.6416
  27   2.0000      -0.378023       -10.2865
  28   2.0000      -0.366818        -9.9816
  29   2.0000      -0.363271        -9.8851
  30   2.0000      -0.357277        -9.7220
  31   2.0000      -0.349710        -9.5161
  32   2.0000      -0.342220        -9.3123
  33   2.0000      -0.337853        -9.1934
  34   2.0000      -0.321046        -8.7361
  35   2.0000      -0.298760        -8.1297
  36   2.0000      -0.295853        -8.0506
  37   2.0000      -0.279610        -7.6086
  38   2.0000      -0.235307        -6.4030
  39   2.0000      -0.221311        -6.0222
  40   2.0000      -0.199108        -5.4180
  41   0.0000      -0.094638        -2.5752
  42   0.0000      -0.018458        -0.5023
  43   0.0000       0.020757         0.5648
  44   0.0000       0.029531         0.8036
  45   0.0000       0.044806         1.2192

MULLIKEN ATOMIC CHARGES
-----------------------
   0 C :   -0.233364
   1 C :   -0.045448
   2 C :   -0.224888
   3 C :   -0.160069
   4 H :    0.063337
   5 C :   -0.113739
   6 C :   -0.077119
   7 C :   -0.060033
   8 C :   -0.157292
   9 C :   -0.026134
  10 C :    0.039389
  11 O :   -0.172994
  12 H :    0.107063
  13 H :    0.105628
  14 H :    0.124372
  15 H :    0.086362
  16 H :    0.081585
  17 H :    0.089295
  18 H :    0.096505
  19 H :    0.084964
  20 H :    0.093198
  21 H :    0.073668
  22 H :    0.098325
  23 H :    0.099221
  24 H :    0.028167
Sum of atomic charges:   -0.0000000

LOEWDIN ATOMIC CHARGES
----------------------
   0 C :   -0.326312
   1 C :   -0.051791
   2 C :   -0.263724
   3 C :   -0.120785
   4 H :    0.125189
   5 C :   -0.207664
   6 C :   -0.213178
   7 C :   -0.117382
   8 C :   -0.064382
   9 C :   -0.213194
  10 C :   -0.004389
  11 O :   -0.137495
  12 H :    0.122595
  13 H :    0.129543
  14 H :    0.133529
  15 H :    0.118005
  16 H :    0.117025
  17 H :    0.126392
  18 H :    0.123291
  19 H :    0.123179
  20 H :    0.127874
  21 H :    0.131768
  22 H :    0.129705
  23 H :    0.136910
  24 H :    0.075291

  Mayer bond orders larger than 0.100000
B(  0-C ,  1-C ) :   1.1085 B(  0-C , 12-H ) :   0.9273 B(  0-C , 13-H ) :   0.9344
B(  0-C , 14-H ) :   0.9235 B(  1-C ,  2-C ) :   2.0388 B(  1-C ,  3-C ) :   1.0077
B(  2-C , 15-H ) :   0.9099 B(  2-C , 16-H ) :   0.9074 B(  3-C ,  4-H ) :   0.8825
B(  3-C ,  5-C ) :   1.0559 B(  3-C ,  9-C ) :   1.0974 B(  5-C ,  6-C ) :   1.1453
B(  5-C , 17-H ) :   0.9117 B(  5-C , 18-H ) :   0.9109 B(  6-C ,  7-C ) :   1.0965
B(  6-C , 19-H ) :   0.8968 B(  6-C , 20-H ) :   0.8725 B(  7-C ,  8-C ) :   1.7441
B(  7-C , 10-C ) :   1.0376 B(  8-C ,  9-C ) :   1.0911 B(  8-C , 11-O ) :   0.1154
B(  8-C , 21-H ) :   0.9512 B(  9-C , 22-H ) :   0.9178 B(  9-C , 23-H ) :   0.8408
B( 10-C , 11-O ) :   2.1341 B( 10-C , 24-H ) :   0.9125

Dispersion correction           -0.026640571
FINAL SINGLE POINT ENERGY      -463.617412963524

DIPOLE MOMENT
-------------

Method             : SCF
Type of density    : Electron Density
Multiplicity       :   1
Irrep              :   0
Energy             :  -463.6931843539332476 Eh
Relativity type    :
Basis              : AO
                                X                 Y                 Z
Electronic contribution:    -11.341820942       2.774562229      -0.100958658
Nuclear contribution   :     12.540362468      -3.288430482       0.106418798
                        -----------------------------------------
Total Dipole Moment    :      1.198541526      -0.513868253       0.005460140
                        -----------------------------------------
Magnitude (a.u.)       :      1.304067553
Magnitude (Debye)      :      3.314676299

Rotational constants in cm-1:             0.097482             0.018555             0.017812
Rotational constants in MHz :          2922.448133           556.255243           533.993849

                             ****ORCA TERMINATED NORMALLY****
TOTAL RUN TIME: 0 days 0 hours 0 minutes 18 seconds 285 msec
