                         Program Version 6.0.0  -   RELEASE  -
|  1> ! r2scan-3c def2/J RI DEFGRID2 scfconv6 printgap
|  2> %output
|  3>     printlevel normal
|  4> end
|  5> * xyz 0 1
|  6> C -1.3533293058 -0.3945332918 -0.4061279633
|  7> C 0.0056238088 -0.0730791181 0.2291436074
|  8> C 1.153674122 -0.7414675214 -0.5342378317
|  9> O 2.3883668661 -0.5646615972 0.1145530752
| 10> O 0.2381854887 1.3228253768 0.2217402393
| 11> O -2.3977582417 0.278822703 0.2592290396
| 12> H -1.5152776585 -1.4767224233 -0.4182178333
| 13> H -1.3663692338 -0.0227056768 -1.4333680395
| 14> H 0.0215457473 -0.4322082426 1.2718995272
| 15> H 1.1912985702 -0.3269196682 -1.5500072323
| 16> H 0.9894413017 -1.8187039917 -0.5903888398
| 17> H 2.5202642056 0.3854739672 0.2501045275
| 18> H -0.6094471285 1.7696175285 0.3696048874
| 19> H -2.5510869997 -0.1307566233 1.1224371277
| 20> *
| 21>
| 22>                          ****END OF INPUT****

CARTESIAN COORDINATES (ANGSTROEM)
---------------------------------
  C     -1.353329   -0.394533   -0.406128
  C      0.005624   -0.073079    0.229144
  C      1.153674   -0.741468   -0.534238
  O      2.388367   -0.564662    0.114553
  O      0.238185    1.322825    0.221740
  O     -2.397758    0.278823    0.259229
  H     -1.515278   -1.476722   -0.418218
  H     -1.366369   -0.022706   -1.433368
  H      0.021546   -0.432208    1.271900
  H      1.191299   -0.326920   -1.550007
  H      0.989441   -1.818704   -0.590389
  H      2.520264    0.385474    0.250105
  H     -0.609447    1.769618    0.369605
  H     -2.551087   -0.130757    1.122437

 Total Charge           Charge          ....    0
 Multiplicity           Mult            ....    1
 Number of Electrons    NEL             ....   50
 Basis Dimension        Dim             ....  169

ORBITAL ENERGIES
----------------

  NO   OCC          E(Eh)            E(eV)
   0   2.0000     -18.971754      -516.2477
   1   2.0000     -18.955120      -515.7951
   2   2.0000     -18.947167      -515.5786
   3   2.0000     -10.090715      -274.5823
   4   2.0000     -10.087558      -274.4964
   5   2.0000     -10.079802      -274.2853
   6   2.0000      -1.015477       -27.6325
   7   2.0000      -0.994749       -27.0685
   8   2.0000      -0.977137       -26.5893
   9   2.0000      -0.732694       -19.9376
  10   2.0000      -0.646764       -17.5993
  11   2.0000      -0.580705       -15.8018
  12   2.0000      -0.508283       -13.8311
  13   2.0000      -0.490848       -13.3566
  14   2.0000      -0.460944       -12.5429
  15   2.0000      -0.437947       -11.9171
  16   2.0000      -0.417721       -11.3668
  17   2.0000      -0.390740       -10.6326
  18   2.0000      -0.372131       -10.1262
  19   2.0000      -0.325701        -8.8628
  20   2.0000      -0.323256        -8.7962
  21   2.0000      -0.305285        -8.3072
  22   2.0000      -0.271198        -7.3797
  23   2.0000      -0.241551        -6.5729
  24   2.0000      -0.233506        -6.3540
  25   0.0000       0.036468         0.9923
  26   0.0000       0.067305         1.8314
  27   0.0000       0.091067         2.4781
  28   0.0000       0.105861         2.8806
  29   0.0000       0.116748         3.1769

MULLIKEN ATOMIC CHARGES
-----------------------
   0 C :   -0.213008
   1 C :    0.101765
   2 C :   -0.204684
   3 O :   -0.420418
   4 O :   -0.445588
   5 O :   -0.433644
   6 H :    0.131565
   7 H :    0.151500
   8 H :    0.127962
   9 H :    0.138071
  10 H :    0.130582
  11 H :    0.317682
  12 H :    0.313288
  13 H :    0.304927
Sum of atomic charges:   -0.0000000

LOEWDIN ATOMIC CHARGES
----------------------
   0 C :    0.018681
   1 C :    0.063371
   2 C :    0.026033
   3 O :   -0.593127
   4 O :   -0.599787
   5 O :   -0.607689
   6 H :    0.165019
   7 H :    0.185426
   8 H :    0.168918
   9 H :    0.166872
  10 H :    0.179549
  11 H :    0.276015
  12 H :    0.281662
  13 H :    0.269057

  Mayer bond orders larger than 0.100000
B(  0-C ,  1-C ) :   0.9094 B(  0-C ,  5-O ) :   0.9667 B(  0-C ,  6-H ) :   0.9750
B(  0-C ,  7-H ) :   0.9701 B(  1-C ,  2-C ) :   0.9398 B(  1-C ,  4-O ) :   0.8643
B(  1-C ,  8-H ) :   0.9294 B(  2-C ,  3-O ) :   0.9686 B(  2-C ,  9-H ) :   0.9772
B(  2-C , 10-H ) :   0.9701 B(  3-O , 11-H ) :   0.8776 B(  4-O , 12-H ) :   0.8691
B(  5-O , 13-H ) :   0.8931

Dispersion correction           -0.002981060
FINAL SINGLE POINT ENERGY      -344.726502705993

DIPOLE MOMENT
-------------

Method             : SCF
Type of density    : Electron Density
Multiplicity       :   1
Irrep              :   0
Energy             :  -344.7341618980488533 Eh
Relativity type    :
Basis              : AO
                                X                 Y                 Z
Electronic contribution:      0.508727552       1.656816886       1.080078195
Nuclear contribution   :     -1.234644956      -1.910599068      -0.908629100
                        -----------------------------------------
Total Dipole Moment    :     -0.725917405      -0.253782182       0.171449095
                        -----------------------------------------
Magnitude (a.u.)       :      0.787880871
Magnitude (Debye)      :      2.002634021

Rotational constants in cm-1:             0.267671             0.065088             0.056431
Rotational constants in MHz :          8024.586838          1951.281959          1691.772110

                             ****ORCA TERMINATED NORMALLY****
TOTAL RUN TIME: 0 days 0 hours 0 minutes 20 seconds 794 msec
