                         Program Version 6.0.0  -   RELEASE  -
|  1> ! r2scan-3c def2/J RI DEFGRID2 scfconv6 printgap
|  2> %output
|  3>     printlevel normal
|  4> end
|  5> %cpcm
|  6>     smd true
|  7>     smdsolvent "water"
|  8> end
|  9> * xyz 0 1
| 10> C -1.3533293058 -0.3945332918 -0.4061279633
| 11> C 0.0056238088 -0.0730791181 0.2291436074
| 12> C 1.153674122 -0.7414675214 -0.5342378317
| 13> O 2.3883668661 -0.5646615972 0.1145530752
| 14> O 0.2381854887 1.3228253768 0.2217402393
| 15> O -2.3977582417 0.278822703 0.2592290396
| 16> H -1.5152776585 -1.4767224233 -0.4182178333
| 17> H -1.3663692338 -0.0227056768 -1.4333680395
| 18> H 0.0215457473 -0.4322082426 1.2718995272
| 19> H 1.1912985702 -0.3269196682 -1.5500072323
| 20> H 0.9894413017 -1.8187039917 -0.5903888398
| 21> H 2.5202642056 0.3854739672 0.2501045275
| 22> H -0.6094471285 1.7696175285 0.3696048874
| 23> H -2.5510869997 -0.1307566233 1.1224371277
| 24> *
| 25>
| 26>                          ****END OF INPUT****

CARTESIAN COORDINATES (ANGSTROEM)
---------------------------------
  C     -1.353329   -0.394533   -0.406128
  C      0.005624   -0.073079    0.229144
  C      1.153674   -0.741468   -0.534238
  O      2.388367   -0.564662    0.114553
  O      0.238185    1.322825    0.221740
  O     -2.397758    0.278823    0.259229
  H     -1.515278   -1.476722   -0.418218
  H     -1.366369   -0.022706   -1.433368
  H      0.021546   -0.432208    1.271900
  H      1.191299   -0.326920   -1.550007
  H      0.989441   -1.818704   -0.590389
  H      2.520264    0.385474    0.250105
  H     -0.609447    1.769618    0.369605
  H     -2.551087   -0.130757    1.122437

 Total Charge           Charge          ....    0
 Multiplicity           Mult            ....    1
 Number of Electrons    NEL             ....   50
 Basis Dimension        Dim             ....  169

ORBITAL ENERGIES
----------------

  NO   OCC          E(Eh)            E(eV)
   0   2.0000     -18.958721      -515.8930
   1   2.0000     -18.954588      -515.7806
   2   2.0000     -18.954128      -515.7681
   3   2.0000     -10.078330      -274.2453
   4   2.0000     -10.074418      -274.1388
   5   2.0000     -10.072999      -274.1002
   6   2.0000      -1.007985       -27.4287
   7   2.0000      -0.992564       -27.0090
   8   2.0000      -0.977211       -26.5913
   9   2.0000      -0.722746       -19.6669
  10   2.0000      -0.636485       -17.3196
  11   2.0000      -0.573926       -15.6173
  12   2.0000      -0.498487       -13.5645
  13   2.0000      -0.482736       -13.1359
  14   2.0000      -0.451071       -12.2743
  15   2.0000      -0.432423       -11.7668
  16   2.0000      -0.409332       -11.1385
  17   2.0000      -0.390371       -10.6225
  18   2.0000      -0.365890        -9.9564
  19   2.0000      -0.326660        -8.8889
  20   2.0000      -0.316474        -8.6117
  21   2.0000      -0.301677        -8.2090
  22   2.0000      -0.268522        -7.3069
  23   2.0000      -0.239380        -6.5139
  24   2.0000      -0.235696        -6.4136
  25   0.0000       0.054621         1.4863
  26   0.0000       0.084133         2.2894
  27   0.0000       0.105750         2.8776
  28   0.0000       0.120472         3.2782
  29   0.0000       0.130416         3.5488

MULLIKEN ATOMIC CHARGES
-----------------------
   0 C :   -0.214323
   1 C :    0.100185
   2 C :   -0.209117
   3 O :   -0.497297
   4 O :   -0.510716
   5 O :   -0.497949
   6 H :    0.154214
   7 H :    0.163593
   8 H :    0.145084
   9 H :    0.151132
  10 H :    0.157999
  11 H :    0.356106
  12 H :    0.346188
  13 H :    0.354902
Sum of atomic charges:   -0.0000000

LOEWDIN ATOMIC CHARGES
----------------------
   0 C :    0.024122
   1 C :    0.068978
   2 C :    0.025411
   3 O :   -0.632005
   4 O :   -0.628325
   5 O :   -0.630703
   6 H :    0.177291
   7 H :    0.188353
   8 H :    0.177032
   9 H :    0.173044
  10 H :    0.190019
  11 H :    0.287694
  12 H :    0.291682
  13 H :    0.287408

  Mayer bond orders larger than 0.100000
B(  0-C ,  1-C ) :   0.9350 B(  0-C ,  5-O ) :   0.9606 B(  0-C ,  6-H ) :   0.9615
B(  0-C ,  7-H ) :   0.9701 B(  1-C ,  2-C ) :   0.9462 B(  1-C ,  4-O ) :   0.8529
B(  1-C ,  8-H ) :   0.9257 B(  2-C ,  3-O ) :   0.9440 B(  2-C ,  9-H ) :   0.9683
B(  2-C , 10-H ) :   0.9629 B(  3-O , 11-H ) :   0.8580 B(  4-O , 12-H ) :   0.8541
B(  5-O , 13-H ) :   0.8669

Dispersion correction           -0.002981060
FINAL SINGLE POINT ENERGY      -344.746017609211

DIPOLE MOMENT
-------------

Method             : SCF
Type of density    : Electron Density
Multiplicity       :   1
Irrep              :   0
Energy             :  -344.7536768012672042 Eh
Relativity type    :
Basis              : AO
                                X                 Y                 Z
Electronic contribution:      0.267665001       1.492484219       1.140871424
Nuclear contribution   :     -1.234644956      -1.910599068      -0.908629100
                        -----------------------------------------
Total Dipole Moment    :     -0.966979955      -0.418114849       0.232242323
                        -----------------------------------------
Magnitude (a.u.)       :      1.078798757
Magnitude (Debye)      :      2.742088523

Rotational constants in cm-1:             0.267671             0.065088             0.056431
Rotational constants in MHz :          8024.586838          1951.281959          1691.772110

                             ****ORCA TERMINATED NORMALLY****
TOTAL RUN TIME: 0 days 0 hours 0 minutes 23 seconds 899 msec
