                         Program Version 6.0.0  -   RELEASE  -
|  1> ! r2scan-3c def2/J RI DEFGRID2 scfconv6 printgap
|  2> %output
|  3>     printlevel normal
|  4> end
|  5> * xyz 0 1
|  6> C -2.753686288 -0.4707066612 1.4360882096
|  7> C -2.0677958427 -0.290204632 0.0834185002
|  8> C -3.1110457104 -0.0600931242 -1.007838361
|  9> C -1.0580953049 0.8828373578 0.1203226729
| 10> C 0.3592252082 0.4224492125 0.0018652201
| 11> C 0.9416623504 -0.4566128993 0.9196876804
| 12> N 2.1896879592 -0.8768337844 0.8035261165
| 13> C 2.8847696822 -0.4246890855 -0.234339454
| 14> C 2.3208323211 0.4510661134 -1.1490551184
| 15> N 1.0685431477 0.8698375797 -1.0314397468
| 16> H -3.330939625 0.41652653 1.6864435604
| 17> H -2.0250100914 -0.6433770155 2.2243930639
| 18> H -3.4298292941 -1.3218798752 1.4059624785
| 19> H -1.5247342878 -1.2124245198 -0.1539568276
| 20> H -2.6334360903 0.0349543163 -1.9798111109
| 21> H -3.8063922742 -0.8952678357 -1.0480009467
| 22> H -3.6748693487 0.8476054945 -0.8060534582
| 23> H -1.171116669 1.4307251605 1.0573575966
| 24> H -1.2486859361 1.5729018727 -0.7009668697
| 25> H 0.3927897704 -0.8324970419 1.7713642749
| 26> H 3.9026599474 -0.7748177907 -0.3203077833
| 27> H 2.873269458 0.8307145622 -1.9967732135
| 28> *
| 29>
| 30>                          ****END OF INPUT****

CARTESIAN COORDINATES (ANGSTROEM)
---------------------------------
  C     -2.753686   -0.470707    1.436088
  C     -2.067796   -0.290205    0.083419
  C     -3.111046   -0.060093   -1.007838
  C     -1.058095    0.882837    0.120323
  C      0.359225    0.422449    0.001865
  C      0.941662   -0.456613    0.919688
  N      2.189688   -0.876834    0.803526
  C      2.884770   -0.424689   -0.234339
  C      2.320832    0.451066   -1.149055
  N      1.068543    0.869838   -1.031440
  H     -3.330940    0.416527    1.686444
  H     -2.025010   -0.643377    2.224393
  H     -3.429829   -1.321880    1.405962
  H     -1.524734   -1.212425   -0.153957
  H     -2.633436    0.034954   -1.979811
  H     -3.806392   -0.895268   -1.048001
  H     -3.674869    0.847605   -0.806053
  H     -1.171117    1.430725    1.057358
  H     -1.248686    1.572902   -0.700967
  H      0.392790   -0.832497    1.771364
  H      3.902660   -0.774818   -0.320308
  H      2.873269    0.830715   -1.996773

 Total Charge           Charge          ....    0
 Multiplicity           Mult            ....    1
 Number of Electrons    NEL             ....   74
 Basis Dimension        Dim             ....  260

ORBITAL ENERGIES
----------------

  NO   OCC          E(Eh)            E(eV)
   0   2.0000     -14.172973      -385.6662
   1   2.0000     -14.169832      -385.5807
   2   2.0000     -10.083676      -274.3908
   3   2.0000     -10.075744      -274.1749
   4   2.0000     -10.074433      -274.1393
   5   2.0000     -10.073293      -274.1083
   6   2.0000     -10.045652      -273.3561
   7   2.0000     -10.035641      -273.0837
   8   2.0000     -10.024042      -272.7680
   9   2.0000     -10.021462      -272.6978
  10   2.0000      -0.953421       -25.9439
  11   2.0000      -0.878958       -23.9177
  12   2.0000      -0.792574       -21.5670
  13   2.0000      -0.748450       -20.3664
  14   2.0000      -0.676858       -18.4182
  15   2.0000      -0.657989       -17.9048
  16   2.0000      -0.629169       -17.1206
  17   2.0000      -0.598136       -16.2761
  18   2.0000      -0.540909       -14.7189
  19   2.0000      -0.492955       -13.4140
  20   2.0000      -0.488630       -13.2963
  21   2.0000      -0.453591       -12.3428
  22   2.0000      -0.426392       -11.6027
  23   2.0000      -0.421360       -11.4658
  24   2.0000      -0.403697       -10.9851
  25   2.0000      -0.397724       -10.8226
  26   2.0000      -0.385134       -10.4800
  27   2.0000      -0.364351        -9.9145
  28   2.0000      -0.358987        -9.7685
  29   2.0000      -0.339070        -9.2266
  30   2.0000      -0.317495        -8.6395
  31   2.0000      -0.306082        -8.3289
  32   2.0000      -0.305154        -8.3037
  33   2.0000      -0.300836        -8.1862
  34   2.0000      -0.272609        -7.4181
  35   2.0000      -0.247711        -6.7406
  36   2.0000      -0.214683        -5.8418
  37   0.0000      -0.075731        -2.0607
  38   0.0000      -0.050885        -1.3847
  39   0.0000       0.069212         1.8833
  40   0.0000       0.082295         2.2394
  41   0.0000       0.088396         2.4054

MULLIKEN ATOMIC CHARGES
-----------------------
   0 C :   -0.483596
   1 C :    0.022625
   2 C :   -0.522945
   3 C :   -0.472854
   4 C :    0.349354
   5 C :   -0.257920
   6 N :   -0.146630
   7 C :   -0.072260
   8 C :   -0.057449
   9 N :   -0.182631
  10 H :    0.156784
  11 H :    0.138930
  12 H :    0.147303
  13 H :    0.158980
  14 H :    0.155520
  15 H :    0.146742
  16 H :    0.154232
  17 H :    0.175667
  18 H :    0.179739
  19 H :    0.137299
  20 H :    0.135776
  21 H :    0.137334
Sum of atomic charges:   -0.0000000

LOEWDIN ATOMIC CHARGES
----------------------
   0 C :   -0.414722
   1 C :   -0.232197
   2 C :   -0.412275
   3 C :   -0.242981
   4 C :    0.154538
   5 C :    0.100846
   6 N :   -0.569960
   7 C :    0.085079
   8 C :    0.099167
   9 N :   -0.575147
  10 H :    0.154087
  11 H :    0.150280
  12 H :    0.154196
  13 H :    0.161225
  14 H :    0.156301
  15 H :    0.153792
  16 H :    0.154513
  17 H :    0.176488
  18 H :    0.184828
  19 H :    0.189041
  20 H :    0.186472
  21 H :    0.186430

  Mayer bond orders larger than 0.100000
B(  0-C ,  1-C ) :   0.8976 B(  0-C , 10-H ) :   0.9883 B(  0-C , 11-H ) :   0.9713
B(  0-C , 12-H ) :   0.9729 B(  1-C ,  2-C ) :   0.9071 B(  1-C ,  3-C ) :   0.7748
B(  1-C , 13-H ) :   0.9580 B(  2-C , 14-H ) :   0.9736 B(  2-C , 15-H ) :   0.9766
B(  2-C , 16-H ) :   0.9863 B(  3-C ,  4-C ) :   0.8587 B(  3-C , 17-H ) :   0.9818
B(  3-C , 18-H ) :   0.9975 B(  4-C ,  5-C ) :   1.2679 B(  4-C ,  9-N ) :   1.2651
B(  5-C ,  6-N ) :   1.4857 B(  5-C ,  8-C ) :   0.1171 B(  5-C , 19-H ) :   0.9755
B(  6-N ,  7-C ) :   1.4198 B(  7-C ,  8-C ) :   1.3090 B(  7-C , 20-H ) :   0.9711
B(  8-C ,  9-N ) :   1.4354 B(  8-C , 21-H ) :   0.9670

Dispersion correction           -0.007282547
FINAL SINGLE POINT ENERGY      -421.446699967726

DIPOLE MOMENT
-------------

Method             : SCF
Type of density    : Electron Density
Multiplicity       :   1
Irrep              :   0
Energy             :  -421.4520895227616961 Eh
Relativity type    :
Basis              : AO
                                X                 Y                 Z
Electronic contribution:     14.345125013       0.551425581      -1.101062975
Nuclear contribution   :    -14.689138960      -0.513062600       1.067934656
                        -----------------------------------------
Total Dipole Moment    :     -0.344013947       0.038362981      -0.033128319
                        -----------------------------------------
Magnitude (a.u.)       :      0.347728054
Magnitude (Debye)      :      0.883854471

Rotational constants in cm-1:             0.102579             0.025610             0.022162
Rotational constants in MHz :          3075.244624           767.772701           664.408966

                             ****ORCA TERMINATED NORMALLY****
TOTAL RUN TIME: 0 days 0 hours 0 minutes 35 seconds 258 msec
