                         Program Version 6.0.0  -   RELEASE  -
|  1> ! r2scan-3c def2/J RI DEFGRID2 scfconv6 printgap
|  2> %output
|  3>     printlevel normal
|  4> end
|  5> %cpcm
|  6>     smd true
|  7>     smdsolvent "water"
|  8> end
|  9> * xyz 0 1
| 10> C -2.753686288 -0.4707066612 1.4360882096
| 11> C -2.0677958427 -0.290204632 0.0834185002
| 12> C -3.1110457104 -0.0600931242 -1.007838361
| 13> C -1.0580953049 0.8828373578 0.1203226729
| 14> C 0.3592252082 0.4224492125 0.0018652201
| 15> C 0.9416623504 -0.4566128993 0.9196876804
| 16> N 2.1896879592 -0.8768337844 0.8035261165
| 17> C 2.8847696822 -0.4246890855 -0.234339454
| 18> C 2.3208323211 0.4510661134 -1.1490551184
| 19> N 1.0685431477 0.8698375797 -1.0314397468
| 20> H -3.330939625 0.41652653 1.6864435604
| 21> H -2.0250100914 -0.6433770155 2.2243930639
| 22> H -3.4298292941 -1.3218798752 1.4059624785
| 23> H -1.5247342878 -1.2124245198 -0.1539568276
| 24> H -2.6334360903 0.0349543163 -1.9798111109
| 25> H -3.8063922742 -0.8952678357 -1.0480009467
| 26> H -3.6748693487 0.8476054945 -0.8060534582
| 27> H -1.171116669 1.4307251605 1.0573575966
| 28> H -1.2486859361 1.5729018727 -0.7009668697
| 29> H 0.3927897704 -0.8324970419 1.7713642749
| 30> H 3.9026599474 -0.7748177907 -0.3203077833
| 31> H 2.873269458 0.8307145622 -1.9967732135
| 32> *
| 33>
| 34>                          ****END OF INPUT****

CARTESIAN COORDINATES (ANGSTROEM)
---------------------------------
  C     -2.753686   -0.470707    1.436088
  C     -2.067796   -0.290205    0.083419
  C     -3.111046   -0.060093   -1.007838
  C     -1.058095    0.882837    0.120323
  C      0.359225    0.422449    0.001865
  C      0.941662   -0.456613    0.919688
  N      2.189688   -0.876834    0.803526
  C      2.884770   -0.424689   -0.234339
  C      2.320832    0.451066   -1.149055
  N      1.068543    0.869838   -1.031440
  H     -3.330940    0.416527    1.686444
  H     -2.025010   -0.643377    2.224393
  H     -3.429829   -1.321880    1.405962
  H     -1.524734   -1.212425   -0.153957
  H     -2.633436    0.034954   -1.979811
  H     -3.806392   -0.895268   -1.048001
  H     -3.674869    0.847605   -0.806053
  H     -1.171117    1.430725    1.057358
  H     -1.248686    1.572902   -0.700967
  H      0.392790   -0.832497    1.771364
  H      3.902660   -0.774818   -0.320308
  H      2.873269    0.830715   -1.996773

 Total Charge           Charge          ....    0
 Multiplicity           Mult            ....    1
 Number of Electrons    NEL             ....   74
 Basis Dimension        Dim             ....  260

ORBITAL ENERGIES
----------------

  NO   OCC          E(Eh)            E(eV)
   0   2.0000     -14.174193      -385.6994
   1   2.0000     -14.170266      -385.5925
   2   2.0000     -10.080589      -274.3068
   3   2.0000     -10.071404      -274.0568
   4   2.0000     -10.070016      -274.0191
   5   2.0000     -10.068911      -273.9890
   6   2.0000     -10.033218      -273.0177
   7   2.0000     -10.025230      -272.8004
   8   2.0000     -10.008439      -272.3435
   9   2.0000     -10.008059      -272.3331
  10   2.0000      -0.952758       -25.9259
  11   2.0000      -0.879185       -23.9238
  12   2.0000      -0.782423       -21.2908
  13   2.0000      -0.741151       -20.1677
  14   2.0000      -0.669106       -18.2073
  15   2.0000      -0.644344       -17.5335
  16   2.0000      -0.625206       -17.0127
  17   2.0000      -0.593045       -16.1376
  18   2.0000      -0.528890       -14.3918
  19   2.0000      -0.489897       -13.3308
  20   2.0000      -0.483943       -13.1687
  21   2.0000      -0.443907       -12.0793
  22   2.0000      -0.416520       -11.3341
  23   2.0000      -0.413149       -11.2423
  24   2.0000      -0.391445       -10.6518
  25   2.0000      -0.390814       -10.6346
  26   2.0000      -0.376716       -10.2510
  27   2.0000      -0.352041        -9.5795
  28   2.0000      -0.348877        -9.4934
  29   2.0000      -0.327557        -8.9133
  30   2.0000      -0.313633        -8.5344
  31   2.0000      -0.298398        -8.1198
  32   2.0000      -0.293833        -7.9956
  33   2.0000      -0.288585        -7.8528
  34   2.0000      -0.277092        -7.5401
  35   2.0000      -0.243024        -6.6130
  36   2.0000      -0.217252        -5.9117
  37   0.0000      -0.075627        -2.0579
  38   0.0000      -0.047424        -1.2905
  39   0.0000       0.076465         2.0807
  40   0.0000       0.087237         2.3738
  41   0.0000       0.098641         2.6842

MULLIKEN ATOMIC CHARGES
-----------------------
   0 C :   -0.533683
   1 C :    0.045236
   2 C :   -0.562554
   3 C :   -0.472593
   4 C :    0.336605
   5 C :   -0.248952
   6 N :   -0.199640
   7 C :   -0.087268
   8 C :   -0.066481
   9 N :   -0.226148
  10 H :    0.167117
  11 H :    0.158268
  12 H :    0.156925
  13 H :    0.165364
  14 H :    0.160184
  15 H :    0.158853
  16 H :    0.166310
  17 H :    0.194180
  18 H :    0.180590
  19 H :    0.171196
  20 H :    0.167362
  21 H :    0.169129
Sum of atomic charges:   -0.0000000

LOEWDIN ATOMIC CHARGES
----------------------
   0 C :   -0.421474
   1 C :   -0.227333
   2 C :   -0.419918
   3 C :   -0.242373
   4 C :    0.157878
   5 C :    0.106946
   6 N :   -0.605914
   7 C :    0.085660
   8 C :    0.101499
   9 N :   -0.605008
  10 H :    0.156705
  11 H :    0.156004
  12 H :    0.155672
  13 H :    0.163598
  14 H :    0.156376
  15 H :    0.156560
  16 H :    0.157515
  17 H :    0.185107
  18 H :    0.183547
  19 H :    0.202263
  20 H :    0.198140
  21 H :    0.198553

  Mayer bond orders larger than 0.100000
B(  0-C ,  1-C ) :   0.8905 B(  0-C , 10-H ) :   0.9852 B(  0-C , 11-H ) :   0.9693
B(  0-C , 12-H ) :   0.9722 B(  1-C ,  2-C ) :   0.8938 B(  1-C ,  3-C ) :   0.7680
B(  1-C , 13-H ) :   0.9599 B(  2-C , 14-H ) :   0.9729 B(  2-C , 15-H ) :   0.9747
B(  2-C , 16-H ) :   0.9838 B(  3-C ,  4-C ) :   0.8652 B(  3-C ,  9-N ) :   0.1096
B(  3-C , 17-H ) :   0.9679 B(  3-C , 18-H ) :   1.0066 B(  4-C ,  5-C ) :   1.2916
B(  4-C ,  9-N ) :   1.2652 B(  5-C ,  6-N ) :   1.4874 B(  5-C ,  8-C ) :   0.1170
B(  5-C , 19-H ) :   0.9570 B(  6-N ,  7-C ) :   1.4135 B(  7-C ,  8-C ) :   1.3241
B(  7-C , 20-H ) :   0.9608 B(  8-C ,  9-N ) :   1.4253 B(  8-C , 21-H ) :   0.9569

Dispersion correction           -0.007282547
FINAL SINGLE POINT ENERGY      -421.455738472661

DIPOLE MOMENT
-------------

Method             : SCF
Type of density    : Electron Density
Multiplicity       :   1
Irrep              :   0
Energy             :  -421.4611280276964180 Eh
Relativity type    :
Basis              : AO
                                X                 Y                 Z
Electronic contribution:     14.278046573       0.551329215      -1.031194096
Nuclear contribution   :    -14.689138960      -0.513062600       1.067934656
                        -----------------------------------------
Total Dipole Moment    :     -0.411092387       0.038266615       0.036740560
                        -----------------------------------------
Magnitude (a.u.)       :      0.414501089
Magnitude (Debye)      :      1.053578040

Rotational constants in cm-1:             0.102579             0.025610             0.022162
Rotational constants in MHz :          3075.244624           767.772701           664.408966

                             ****ORCA TERMINATED NORMALLY****
TOTAL RUN TIME: 0 days 0 hours 0 minutes 49 seconds 159 msec
