                         Program Version 6.0.0  -   RELEASE  -
|  1> ! wb97x-v def2-tzvp def2/J RIJCOSX DEFGRID2 scfconv7 GCP(DFT/TZ) printgap
|  2> %output
|  3>     printlevel normal
|  4> end
|  5> * xyz 0 1
|  6> C -2.557411555312453 0.14712216783165513 -0.4934335397552924
|  7> C -2.011611608549354 -1.1169951753796905 -0.27552449271546015
|  8> C -0.7212239518689901 -1.2429747265393714 0.23109691592094983
|  9> C 0.045556583626509856 -0.11156289539230632 0.5300739493211732
| 10> C -0.5129801120327493 1.1503004123368934 0.3100498520122647
| 11> C -1.8037481197632717 1.280650753262546 -0.19867082139891193
| 12> C 1.4577514052922143 -0.2616332764221836 1.0316051045753531
| 13> C 2.4509519651894185 -0.5295332648101347 -0.09134563523316343
| 14> O 2.4843917851062494 0.620247138517283 -0.9578465088602249
| 15> H -3.563877407436946 0.2471664836642348 -0.8874404138728594
| 16> H -2.5942040863691878 -2.0063812000208876 -0.49657559696776365
| 17> H -0.30139812052787884 -2.2312250564778546 0.401890707956267
| 18> H 0.06908736548014324 2.0381568275521538 0.541865725057375
| 19> H -2.2213444263827786 2.2695007949003663 -0.36320979495741074
| 20> H 1.766424333421104 0.6412343241106194 1.5703460764464858
| 21> H 1.5194070070695151 -1.1041875410388118 1.729531646620566
| 22> H 3.4469595933988506 -0.71163823751136 0.333842787190317
| 23> H 2.145802962366804 -1.4214852746234454 -0.6567956240153427
| 24> H 3.0958867304136866 0.42137706650020074 -1.677567050320682
| 25> *
| 26>
| 27>                          ****END OF INPUT****

CARTESIAN COORDINATES (ANGSTROEM)
---------------------------------
  C     -2.557412    0.147122   -0.493434
  C     -2.011612   -1.116995   -0.275524
  C     -0.721224   -1.242975    0.231097
  C      0.045557   -0.111563    0.530074
  C     -0.512980    1.150300    0.310050
  C     -1.803748    1.280651   -0.198671
  C      1.457751   -0.261633    1.031605
  C      2.450952   -0.529533   -0.091346
  O      2.484392    0.620247   -0.957847
  H     -3.563877    0.247166   -0.887440
  H     -2.594204   -2.006381   -0.496576
  H     -0.301398   -2.231225    0.401891
  H      0.069087    2.038157    0.541866
  H     -2.221344    2.269501   -0.363210
  H      1.766424    0.641234    1.570346
  H      1.519407   -1.104188    1.729532
  H      3.446960   -0.711638    0.333843
  H      2.145803   -1.421485   -0.656796
  H      3.095887    0.421377   -1.677567

 Total Charge           Charge          ....    0
 Multiplicity           Mult            ....    1
 Number of Electrons    NEL             ....   66
 Basis Dimension        Dim             ....  339

ORBITAL ENERGIES
----------------

  NO   OCC          E(Eh)            E(eV)
   0   2.0000     -21.670343      -589.6800
   1   2.0000     -12.096332      -329.1579
   2   2.0000     -12.053654      -327.9966
   3   2.0000     -12.049408      -327.8811
   4   2.0000     -12.047183      -327.8205
   5   2.0000     -12.045913      -327.7860
   6   2.0000     -12.044346      -327.7433
   7   2.0000     -12.043382      -327.7171
   8   2.0000     -12.041672      -327.6706
   9   2.0000      -1.669180       -45.4207
  10   2.0000      -1.379344       -37.5339
  11   2.0000      -1.305314       -35.5194
  12   2.0000      -1.265693       -34.4413
  13   2.0000      -1.244679       -33.8694
  14   2.0000      -1.143327       -31.1115
  15   2.0000      -1.100459       -29.9450
  16   2.0000      -1.075234       -29.2586
  17   2.0000      -1.034372       -28.1467
  18   2.0000      -0.960637       -26.1403
  19   2.0000      -0.950505       -25.8645
  20   2.0000      -0.938141       -25.5281
  21   2.0000      -0.935676       -25.4610
  22   2.0000      -0.903354       -24.5815
  23   2.0000      -0.868478       -23.6325
  24   2.0000      -0.866680       -23.5836
  25   2.0000      -0.842523       -22.9262
  26   2.0000      -0.828852       -22.5542
  27   2.0000      -0.810061       -22.0429
  28   2.0000      -0.794557       -21.6210
  29   2.0000      -0.776224       -21.1221
  30   2.0000      -0.758618       -20.6431
  31   2.0000      -0.631546       -17.1852
  32   2.0000      -0.629737       -17.1360
  33   0.0000      -0.235953        -6.4206
  34   0.0000      -0.229704        -6.2506
  35   0.0000      -0.140696        -3.8285
  36   0.0000      -0.069461        -1.8901
  37   0.0000      -0.041880        -1.1396

MULLIKEN ATOMIC CHARGES
-----------------------
   0 C :   -0.136904
   1 C :   -0.107020
   2 C :   -0.235959
   3 C :    0.252810
   4 C :   -0.221196
   5 C :   -0.097184
   6 C :   -0.215974
   7 C :   -0.056211
   8 O :   -0.446247
   9 H :    0.114358
  10 H :    0.113285
  11 H :    0.112889
  12 H :    0.110223
  13 H :    0.113889
  14 H :    0.109305
  15 H :    0.112587
  16 H :    0.088650
  17 H :    0.090485
  18 H :    0.298213
Sum of atomic charges:   -0.0000000

LOEWDIN ATOMIC CHARGES
----------------------
   0 C :   -0.146637
   1 C :   -0.142248
   2 C :   -0.116580
   3 C :   -0.141964
   4 C :   -0.105168
   5 C :   -0.138397
   6 C :   -0.221112
   7 C :   -0.326167
   8 O :   -0.054021
   9 H :    0.139620
  10 H :    0.140182
  11 H :    0.142170
  12 H :    0.145674
  13 H :    0.140782
  14 H :    0.144842
  15 H :    0.145888
  16 H :    0.111646
  17 H :    0.114780
  18 H :    0.166710

  Mayer bond orders larger than 0.100000
B(  0-C ,  1-C ) :   1.4202 B(  0-C ,  5-C ) :   1.4205 B(  0-C ,  9-H ) :   0.9727
B(  1-C ,  2-C ) :   1.4510 B(  1-C , 10-H ) :   0.9748 B(  2-C ,  3-C ) :   1.3601
B(  2-C , 11-H ) :   0.9729 B(  3-C ,  4-C ) :   1.4115 B(  3-C ,  6-C ) :   0.8974
B(  4-C ,  5-C ) :   1.4391 B(  4-C , 12-H ) :   0.9679 B(  5-C , 13-H ) :   0.9757
B(  6-C ,  7-C ) :   0.9907 B(  6-C , 14-H ) :   0.9823 B(  6-C , 15-H ) :   0.9805
B(  7-C ,  8-O ) :   1.0779 B(  7-C , 16-H ) :   0.9698 B(  7-C , 17-H ) :   0.9642
B(  8-O , 18-H ) :   0.9071

FINAL SINGLE POINT ENERGY      -386.108400931104

DIPOLE MOMENT
-------------

Method             : SCF
Type of density    : Electron Density
Multiplicity       :   1
Irrep              :   0
Energy             :  -386.1192572609036233 Eh
Relativity type    :
Basis              : AO
                                X                 Y                 Z
Electronic contribution:     -2.749632936       1.233750795      -0.718183169
Nuclear contribution   :      3.248148207      -1.720239225       0.626973551
                        -----------------------------------------
Total Dipole Moment    :      0.498515272      -0.486488430      -0.091209618
                        -----------------------------------------
Magnitude (a.u.)       :      0.702501006
Magnitude (Debye)      :      1.785615651

Rotational constants in cm-1:             0.112222             0.035631             0.031554
Rotational constants in MHz :          3364.338949          1068.178350           945.966468

                             ****ORCA TERMINATED NORMALLY****
TOTAL RUN TIME: 0 days 0 hours 2 minutes 51 seconds 613 msec
