                         Program Version 6.0.0  -   RELEASE  -
|  1> ! wb97x-v def2-tzvp def2/J RIJCOSX DEFGRID2 scfconv7 GCP(DFT/TZ) printgap
|  2> %output
|  3>     printlevel normal
|  4> end
|  5> %cpcm
|  6>     smd true
|  7>     smdsolvent "water"
|  8> end
|  9> * xyz 0 1
| 10> C -2.557411555312453 0.14712216783165513 -0.4934335397552924
| 11> C -2.011611608549354 -1.1169951753796905 -0.27552449271546015
| 12> C -0.7212239518689901 -1.2429747265393714 0.23109691592094983
| 13> C 0.045556583626509856 -0.11156289539230632 0.5300739493211732
| 14> C -0.5129801120327493 1.1503004123368934 0.3100498520122647
| 15> C -1.8037481197632717 1.280650753262546 -0.19867082139891193
| 16> C 1.4577514052922143 -0.2616332764221836 1.0316051045753531
| 17> C 2.4509519651894185 -0.5295332648101347 -0.09134563523316343
| 18> O 2.4843917851062494 0.620247138517283 -0.9578465088602249
| 19> H -3.563877407436946 0.2471664836642348 -0.8874404138728594
| 20> H -2.5942040863691878 -2.0063812000208876 -0.49657559696776365
| 21> H -0.30139812052787884 -2.2312250564778546 0.401890707956267
| 22> H 0.06908736548014324 2.0381568275521538 0.541865725057375
| 23> H -2.2213444263827786 2.2695007949003663 -0.36320979495741074
| 24> H 1.766424333421104 0.6412343241106194 1.5703460764464858
| 25> H 1.5194070070695151 -1.1041875410388118 1.729531646620566
| 26> H 3.4469595933988506 -0.71163823751136 0.333842787190317
| 27> H 2.145802962366804 -1.4214852746234454 -0.6567956240153427
| 28> H 3.0958867304136866 0.42137706650020074 -1.677567050320682
| 29> *
| 30>
| 31>                          ****END OF INPUT****

CARTESIAN COORDINATES (ANGSTROEM)
---------------------------------
  C     -2.557412    0.147122   -0.493434
  C     -2.011612   -1.116995   -0.275524
  C     -0.721224   -1.242975    0.231097
  C      0.045557   -0.111563    0.530074
  C     -0.512980    1.150300    0.310050
  C     -1.803748    1.280651   -0.198671
  C      1.457751   -0.261633    1.031605
  C      2.450952   -0.529533   -0.091346
  O      2.484392    0.620247   -0.957847
  H     -3.563877    0.247166   -0.887440
  H     -2.594204   -2.006381   -0.496576
  H     -0.301398   -2.231225    0.401891
  H      0.069087    2.038157    0.541866
  H     -2.221344    2.269501   -0.363210
  H      1.766424    0.641234    1.570346
  H      1.519407   -1.104188    1.729532
  H      3.446960   -0.711638    0.333843
  H      2.145803   -1.421485   -0.656796
  H      3.095887    0.421377   -1.677567

 Total Charge           Charge          ....    0
 Multiplicity           Mult            ....    1
 Number of Electrons    NEL             ....   66
 Basis Dimension        Dim             ....  339

ORBITAL ENERGIES
----------------

  NO   OCC          E(Eh)            E(eV)
   0   2.0000     -21.672400      -589.7360
   1   2.0000     -12.087802      -328.9258
   2   2.0000     -12.056010      -328.0607
   3   2.0000     -12.048647      -327.8604
   4   2.0000     -12.048362      -327.8526
   5   2.0000     -12.045606      -327.7776
   6   2.0000     -12.044962      -327.7601
   7   2.0000     -12.044337      -327.7431
   8   2.0000     -12.041635      -327.6695
   9   2.0000      -1.671336       -45.4794
  10   2.0000      -1.382956       -37.6321
  11   2.0000      -1.304181       -35.4886
  12   2.0000      -1.269017       -34.5317
  13   2.0000      -1.243372       -33.8339
  14   2.0000      -1.141517       -31.0623
  15   2.0000      -1.102523       -30.0012
  16   2.0000      -1.075687       -29.2709
  17   2.0000      -1.034033       -28.1375
  18   2.0000      -0.961454       -26.1625
  19   2.0000      -0.952451       -25.9175
  20   2.0000      -0.939463       -25.5641
  21   2.0000      -0.937115       -25.5002
  22   2.0000      -0.902874       -24.5684
  23   2.0000      -0.868510       -23.6334
  24   2.0000      -0.867261       -23.5994
  25   2.0000      -0.837003       -22.7760
  26   2.0000      -0.825048       -22.4507
  27   2.0000      -0.808689       -22.0055
  28   2.0000      -0.793161       -21.5830
  29   2.0000      -0.770380       -20.9631
  30   2.0000      -0.763222       -20.7683
  31   2.0000      -0.636712       -17.3258
  32   2.0000      -0.634329       -17.2610
  33   0.0000      -0.239938        -6.5290
  34   0.0000      -0.234612        -6.3841
  35   0.0000      -0.134125        -3.6497
  36   0.0000      -0.071822        -1.9544
  37   0.0000      -0.037045        -1.0081

MULLIKEN ATOMIC CHARGES
-----------------------
   0 C :   -0.187821
   1 C :   -0.146496
   2 C :   -0.265936
   3 C :    0.206595
   4 C :   -0.294750
   5 C :   -0.139567
   6 C :   -0.192211
   7 C :   -0.078492
   8 O :   -0.556411
   9 H :    0.159699
  10 H :    0.159221
  11 H :    0.159100
  12 H :    0.155029
  13 H :    0.159058
  14 H :    0.129805
  15 H :    0.135685
  16 H :    0.117698
  17 H :    0.118567
  18 H :    0.361226
Sum of atomic charges:   -0.0000000

LOEWDIN ATOMIC CHARGES
----------------------
   0 C :   -0.158075
   1 C :   -0.150596
   2 C :   -0.119436
   3 C :   -0.153178
   4 C :   -0.126203
   5 C :   -0.150663
   6 C :   -0.220385
   7 C :   -0.317906
   8 O :   -0.094939
   9 H :    0.149231
  10 H :    0.150280
  11 H :    0.154288
  12 H :    0.152527
  13 H :    0.150290
  14 H :    0.147832
  15 H :    0.154592
  16 H :    0.121175
  17 H :    0.122718
  18 H :    0.188447

  Mayer bond orders larger than 0.100000
B(  0-C ,  1-C ) :   1.3941 B(  0-C ,  5-C ) :   1.4034 B(  0-C ,  9-H ) :   0.9753
B(  1-C ,  2-C ) :   1.4271 B(  1-C , 10-H ) :   0.9776 B(  2-C ,  3-C ) :   1.3501
B(  2-C , 11-H ) :   0.9783 B(  3-C ,  4-C ) :   1.3741 B(  3-C ,  6-C ) :   0.9012
B(  4-C ,  5-C ) :   1.4238 B(  4-C , 12-H ) :   0.9756 B(  5-C , 13-H ) :   0.9775
B(  6-C ,  7-C ) :   0.9799 B(  6-C , 14-H ) :   0.9822 B(  6-C , 15-H ) :   0.9683
B(  7-C ,  8-O ) :   1.0299 B(  7-C , 16-H ) :   0.9772 B(  7-C , 17-H ) :   0.9740
B(  8-O , 18-H ) :   0.8696

FINAL SINGLE POINT ENERGY      -386.120035556368

DIPOLE MOMENT
-------------

Method             : SCF
Type of density    : Electron Density
Multiplicity       :   1
Irrep              :   0
Energy             :  -386.1308918861679444 Eh
Relativity type    :
Basis              : AO
                                X                 Y                 Z
Electronic contribution:     -2.580817442       0.911572462      -0.666983277
Nuclear contribution   :      3.248148207      -1.720239225       0.626973551
                        -----------------------------------------
Total Dipole Moment    :      0.667330765      -0.808666762      -0.040009726
                        -----------------------------------------
Magnitude (a.u.)       :      1.049224981
Magnitude (Debye)      :      2.666917959

Rotational constants in cm-1:             0.112222             0.035631             0.031554
Rotational constants in MHz :          3364.338949          1068.178350           945.966468

                             ****ORCA TERMINATED NORMALLY****
TOTAL RUN TIME: 0 days 0 hours 2 minutes 57 seconds 460 msec
