                         Program Version 6.0.0  -   RELEASE  -
|  1> ! pbe def2-sv(p) def2/J RI DEFGRID1 loosescf d4 GCP(DFT/SV(P)) printgap
|  2> %output
|  3>     printlevel normal
|  4> end
|  5> * xyz 0 1
|  6> C 2.0887406728 -1.3664490793 -0.1462899897
|  7> C 1.6614001581 0.082549605 -0.3389335791
|  8> C 0.3277931327 0.4518954229 0.3285318507
|  9> H 0.3821420586 0.2147683322 1.3974566344
| 10> C -0.8819417681 -0.3040031976 -0.2886051967
| 11> C -1.266289832 -1.4999907565 0.5828223322
| 12> C -2.1021936527 0.60392339 -0.4515608796
| 13> O 0.1729721325 1.8614262894 0.3099710456
| 14> H 2.1186148335 -1.6180297169 0.9111608623
| 15> H 3.0827732543 -1.5137575636 -0.5614957533
| 16> H 1.4073109099 -2.0463115024 -0.6499035977
| 17> H 2.4257733099 0.7393955786 0.0842498724
| 18> H 1.5891572462 0.300383157 -1.4082764421
| 19> H -0.5930342805 -0.6693976195 -1.2804054369
| 20> H -0.4165374934 -2.1516360434 0.7608049307
| 21> H -1.6407236219 -1.1538829066 1.5438618914
| 22> H -2.0490596361 -2.0797714661 0.0990100392
| 23> H -2.3376029621 1.0898581866 0.4924291547
| 24> H -2.9591757274 0.0123252936 -0.7639676209
| 25> H -1.9316923023 1.3742795841 -1.1986327303
| 26> H 0.2318495659 2.1694465278 -0.6044551232
| 27> *
| 28>
| 29>                          ****END OF INPUT****

CARTESIAN COORDINATES (ANGSTROEM)
---------------------------------
  C      2.088741   -1.366449   -0.146290
  C      1.661400    0.082550   -0.338934
  C      0.327793    0.451895    0.328532
  H      0.382142    0.214768    1.397457
  C     -0.881942   -0.304003   -0.288605
  C     -1.266290   -1.499991    0.582822
  C     -2.102194    0.603923   -0.451561
  O      0.172972    1.861426    0.309971
  H      2.118615   -1.618030    0.911161
  H      3.082773   -1.513758   -0.561496
  H      1.407311   -2.046312   -0.649904
  H      2.425773    0.739396    0.084250
  H      1.589157    0.300383   -1.408276
  H     -0.593034   -0.669398   -1.280405
  H     -0.416537   -2.151636    0.760805
  H     -1.640724   -1.153883    1.543862
  H     -2.049060   -2.079771    0.099010
  H     -2.337603    1.089858    0.492429
  H     -2.959176    0.012325   -0.763968
  H     -1.931692    1.374280   -1.198633
  H      0.231850    2.169447   -0.604455

 Total Charge           Charge          ....    0
 Multiplicity           Mult            ....    1
 Number of Electrons    NEL             ....   58
 Basis Dimension        Dim             ....  126

ORBITAL ENERGIES
----------------

  NO   OCC          E(Eh)            E(eV)
   0   2.0000     -18.736605      -509.8489
   1   2.0000      -9.930984      -270.2358
   2   2.0000      -9.891781      -269.1691
   3   2.0000      -9.884348      -268.9668
   4   2.0000      -9.878112      -268.7971
   5   2.0000      -9.872802      -268.6526
   6   2.0000      -9.869316      -268.5577
   7   2.0000      -0.915902       -24.9230
   8   2.0000      -0.724216       -19.7069
   9   2.0000      -0.687236       -18.7006
  10   2.0000      -0.607255       -16.5243
  11   2.0000      -0.599910       -16.3244
  12   2.0000      -0.536293       -14.5933
  13   2.0000      -0.513299       -13.9676
  14   2.0000      -0.434071       -11.8117
  15   2.0000      -0.414740       -11.2857
  16   2.0000      -0.413070       -11.2402
  17   2.0000      -0.380179       -10.3452
  18   2.0000      -0.372667       -10.1408
  19   2.0000      -0.348840        -9.4924
  20   2.0000      -0.344984        -9.3875
  21   2.0000      -0.335416        -9.1271
  22   2.0000      -0.323273        -8.7967
  23   2.0000      -0.304820        -8.2946
  24   2.0000      -0.303069        -8.2469
  25   2.0000      -0.289147        -7.8681
  26   2.0000      -0.277945        -7.5633
  27   2.0000      -0.257454        -7.0057
  28   2.0000      -0.209120        -5.6905
  29   0.0000       0.025413         0.6915
  30   0.0000       0.042971         1.1693
  31   0.0000       0.058108         1.5812
  32   0.0000       0.066692         1.8148
  33   0.0000       0.090922         2.4741

MULLIKEN ATOMIC CHARGES
-----------------------
   0 C :   -0.286381
   1 C :   -0.192402
   2 C :    0.089133
   3 H :    0.060602
   4 C :   -0.199249
   5 C :   -0.261056
   6 C :   -0.221655
   7 O :   -0.417049
   8 H :    0.106008
   9 H :    0.104452
  10 H :    0.115218
  11 H :    0.092251
  12 H :    0.073211
  13 H :    0.065753
  14 H :    0.103840
  15 H :    0.099894
  16 H :    0.098418
  17 H :    0.105469
  18 H :    0.092242
  19 H :    0.079578
  20 H :    0.291721
Sum of atomic charges:   -0.0000000

LOEWDIN ATOMIC CHARGES
----------------------
   0 C :   -0.342387
   1 C :   -0.245582
   2 C :   -0.045418
   3 H :    0.110469
   4 C :   -0.172865
   5 C :   -0.329583
   6 C :   -0.329852
   7 O :   -0.318517
   8 H :    0.119445
   9 H :    0.122142
  10 H :    0.118290
  11 H :    0.118074
  12 H :    0.108582
  13 H :    0.109768
  14 H :    0.115910
  15 H :    0.118429
  16 H :    0.117754
  17 H :    0.123209
  18 H :    0.115316
  19 H :    0.108215
  20 H :    0.278600

  Mayer bond orders larger than 0.100000
B(  0-C ,  1-C ) :   1.1445 B(  0-C ,  8-H ) :   0.9501 B(  0-C ,  9-H ) :   0.9452
B(  0-C , 10-H ) :   0.9427 B(  1-C ,  2-C ) :   1.1008 B(  1-C , 11-H ) :   0.9189
B(  1-C , 12-H ) :   0.9125 B(  2-C ,  3-H ) :   0.8990 B(  2-C ,  4-C ) :   0.9651
B(  2-C ,  7-O ) :   1.0713 B(  4-C ,  5-C ) :   1.1072 B(  4-C ,  6-C ) :   1.1294
B(  4-C , 13-H ) :   0.8980 B(  5-C , 14-H ) :   0.9419 B(  5-C , 15-H ) :   0.9474
B(  5-C , 16-H ) :   0.9483 B(  6-C , 17-H ) :   0.9456 B(  6-C , 18-H ) :   0.9472
B(  6-C , 19-H ) :   0.9446 B(  7-O , 20-H ) :   0.8484

Dispersion correction           -0.016761959
FINAL SINGLE POINT ENERGY      -311.513326291986

DIPOLE MOMENT
-------------

Method             : SCF
Type of density    : Electron Density
Multiplicity       :   1
Irrep              :   0
Energy             :  -311.5932186362740026 Eh
Relativity type    :
Basis              : AO
                                X                 Y                 Z
Electronic contribution:      0.778327352       4.686748455       0.608381237
Nuclear contribution   :     -0.644957986      -4.974972769      -1.100709669
                        -----------------------------------------
Total Dipole Moment    :      0.133369366      -0.288224315      -0.492328431
                        -----------------------------------------
Magnitude (a.u.)       :      0.585873645
Magnitude (Debye)      :      1.489172459

Rotational constants in cm-1:             0.104699             0.067642             0.046689
Rotational constants in MHz :          3138.809124          2027.851386          1399.713617

                             ****ORCA TERMINATED NORMALLY****
TOTAL RUN TIME: 0 days 0 hours 0 minutes 9 seconds 222 msec
