                         Program Version 6.0.0  -   RELEASE  -
|  1> ! r2scan-3c def2/J RI DEFGRID2 scfconv6 printgap
|  2> %output
|  3>     printlevel normal
|  4> end
|  5> * xyz 0 1
|  6> C -3.6531600588 -0.6996475263 0.0867281679
|  7> C -3.102424044 0.1007627184 1.0738009051
|  8> C -1.8631487789 0.6869368834 0.8847979523
|  9> C -1.1775180351 0.4688860712 -0.3025365245
| 10> C -1.7244407339 -0.3332552543 -1.2949379353
| 11> C -2.9643541986 -0.9144784701 -1.0955449432
| 12> O 0.0349755681 1.1093651142 -0.5261542398
| 13> C 1.190424536 0.4778296558 -0.1467548761
| 14> C 1.2242259343 -0.7748365806 0.4531343833
| 15> C 2.4424002232 -1.3333063883 0.8007821832
| 16> C 3.6238162773 -0.6564223304 0.5565185442
| 17> C 3.5858057324 0.5932824979 -0.0423366199
| 18> C 2.3781546838 1.1622665509 -0.3941408914
| 19> H -4.6190179342 -1.155550848 0.2385307498
| 20> H -3.6365037897 0.2703029473 1.9958355179
| 21> H -1.4189690206 1.3132963642 1.6434419851
| 22> H -1.1735428289 -0.4897906453 -2.2098868215
| 23> H -3.3906852316 -1.5373158923 -1.866537922
| 24> H 0.303754361 -1.3065147584 0.6452853381
| 25> H 2.4611462015 -2.3066928873 1.2668158819
| 26> H 4.5689727208 -1.0982142442 0.8303993527
| 27> H 4.5020422231 1.129275197 -0.2367906275
| 28> H 2.3268789466 2.133334604 -0.8608652741
| 29> *
| 30>
| 31>                          ****END OF INPUT****

CARTESIAN COORDINATES (ANGSTROEM)
---------------------------------
  C     -3.653160   -0.699648    0.086728
  C     -3.102424    0.100763    1.073801
  C     -1.863149    0.686937    0.884798
  C     -1.177518    0.468886   -0.302537
  C     -1.724441   -0.333255   -1.294938
  C     -2.964354   -0.914478   -1.095545
  O      0.034976    1.109365   -0.526154
  C      1.190425    0.477830   -0.146755
  C      1.224226   -0.774837    0.453134
  C      2.442400   -1.333306    0.800782
  C      3.623816   -0.656422    0.556519
  C      3.585806    0.593282   -0.042337
  C      2.378155    1.162267   -0.394141
  H     -4.619018   -1.155551    0.238531
  H     -3.636504    0.270303    1.995836
  H     -1.418969    1.313296    1.643442
  H     -1.173543   -0.489791   -2.209887
  H     -3.390685   -1.537316   -1.866538
  H      0.303754   -1.306515    0.645285
  H      2.461146   -2.306693    1.266816
  H      4.568973   -1.098214    0.830399
  H      4.502042    1.129275   -0.236791
  H      2.326879    2.133335   -0.860865

 Total Charge           Charge          ....    0
 Multiplicity           Mult            ....    1
 Number of Electrons    NEL             ....   90
 Basis Dimension        Dim             ....  302

ORBITAL ENERGIES
----------------

  NO   OCC          E(Eh)            E(eV)
   0   2.0000     -18.995848      -516.9033
   1   2.0000     -10.101965      -274.8884
   2   2.0000     -10.099309      -274.8162
   3   2.0000     -10.046149      -273.3696
   4   2.0000     -10.046123      -273.3689
   5   2.0000     -10.043983      -273.3107
   6   2.0000     -10.043944      -273.3096
   7   2.0000     -10.041994      -273.2565
   8   2.0000     -10.036476      -273.1064
   9   2.0000     -10.036237      -273.0999
  10   2.0000     -10.032837      -273.0074
  11   2.0000     -10.031658      -272.9753
  12   2.0000     -10.027956      -272.8746
  13   2.0000      -1.047434       -28.5021
  14   2.0000      -0.838160       -22.8075
  15   2.0000      -0.821609       -22.3571
  16   2.0000      -0.737622       -20.0717
  17   2.0000      -0.729217       -19.8430
  18   2.0000      -0.718684       -19.5564
  19   2.0000      -0.697851       -18.9895
  20   2.0000      -0.608526       -16.5588
  21   2.0000      -0.591166       -16.0865
  22   2.0000      -0.580134       -15.7863
  23   2.0000      -0.555341       -15.1116
  24   2.0000      -0.521187       -14.1822
  25   2.0000      -0.484632       -13.1875
  26   2.0000      -0.460672       -12.5355
  27   2.0000      -0.448369       -12.2008
  28   2.0000      -0.443145       -12.0586
  29   2.0000      -0.421186       -11.4610
  30   2.0000      -0.411317       -11.1925
  31   2.0000      -0.402538       -10.9536
  32   2.0000      -0.393780       -10.7153
  33   2.0000      -0.375225       -10.2104
  34   2.0000      -0.373470       -10.1626
  35   2.0000      -0.347360        -9.4522
  36   2.0000      -0.337853        -9.1934
  37   2.0000      -0.331908        -9.0317
  38   2.0000      -0.330829        -9.0023
  39   2.0000      -0.306764        -8.3475
  40   2.0000      -0.301477        -8.2036
  41   2.0000      -0.249683        -6.7942
  42   2.0000      -0.238145        -6.4803
  43   2.0000      -0.235819        -6.4170
  44   2.0000      -0.206921        -5.6306
  45   0.0000      -0.045928        -1.2498
  46   0.0000      -0.037917        -1.0318
  47   0.0000      -0.028597        -0.7782
  48   0.0000      -0.017767        -0.4835
  49   0.0000       0.072885         1.9833

MULLIKEN ATOMIC CHARGES
-----------------------
   0 C :   -0.150039
   1 C :   -0.133641
   2 C :   -0.204055
   3 C :    0.111115
   4 C :   -0.204802
   5 C :   -0.133674
   6 O :   -0.163002
   7 C :    0.328922
   8 C :   -0.211491
   9 C :   -0.164769
  10 C :   -0.176611
  11 C :   -0.111448
  12 C :   -0.325828
  13 H :    0.149183
  14 H :    0.150223
  15 H :    0.162141
  16 H :    0.162098
  17 H :    0.150216
  18 H :    0.167600
  19 H :    0.146404
  20 H :    0.146456
  21 H :    0.148450
  22 H :    0.156551
Sum of atomic charges:   -0.0000000

LOEWDIN ATOMIC CHARGES
----------------------
   0 C :   -0.169466
   1 C :   -0.154931
   2 C :   -0.126443
   3 C :    0.175755
   4 C :   -0.126097
   5 C :   -0.154890
   6 O :   -0.604230
   7 C :    0.206088
   8 C :   -0.155288
   9 C :   -0.152981
  10 C :   -0.188938
  11 C :   -0.153926
  12 C :   -0.136207
  13 H :    0.168340
  14 H :    0.169734
  15 H :    0.182589
  16 H :    0.182568
  17 H :    0.169738
  18 H :    0.185152
  19 H :    0.168243
  20 H :    0.166355
  21 H :    0.168280
  22 H :    0.180555

  Mayer bond orders larger than 0.100000
B(  0-C ,  1-C ) :   1.4234 B(  0-C ,  5-C ) :   1.4234 B(  0-C , 13-H ) :   0.9466
B(  1-C ,  2-C ) :   1.3776 B(  1-C , 14-H ) :   0.9485 B(  2-C ,  3-C ) :   1.4746
B(  2-C , 15-H ) :   0.9348 B(  3-C ,  4-C ) :   1.4763 B(  3-C ,  6-O ) :   0.8832
B(  4-C ,  5-C ) :   1.3775 B(  4-C , 16-H ) :   0.9348 B(  5-C , 17-H ) :   0.9484
B(  6-O ,  7-C ) :   0.9427 B(  7-C ,  8-C ) :   1.4216 B(  7-C , 12-C ) :   1.4157
B(  8-C ,  9-C ) :   1.3985 B(  8-C , 18-H ) :   0.9114 B(  9-C , 10-C ) :   1.4336
B(  9-C , 19-H ) :   0.9513 B( 10-C , 11-C ) :   1.4048 B( 10-C , 20-H ) :   0.9486
B( 11-C , 12-C ) :   1.3895 B( 11-C , 21-H ) :   0.9467 B( 12-C , 22-H ) :   0.9447

Dispersion correction           -0.009092061
FINAL SINGLE POINT ENERGY      -538.377672759843

DIPOLE MOMENT
-------------

Method             : SCF
Type of density    : Electron Density
Multiplicity       :   1
Irrep              :   0
Energy             :  -538.3742591255860361 Eh
Relativity type    :
Basis              : AO
                                X                 Y                 Z
Electronic contribution:     -0.240277834       2.496261851      -1.204868209
Nuclear contribution   :     -0.070711981      -2.842991853       1.349016117
                        -----------------------------------------
Total Dipole Moment    :     -0.310989815      -0.346730001       0.144147908
                        -----------------------------------------
Magnitude (a.u.)       :      0.487560230
Magnitude (Debye)      :      1.239279618

Rotational constants in cm-1:             0.077822             0.014571             0.014072
Rotational constants in MHz :          2333.035517           436.822564           421.865028

                             ****ORCA TERMINATED NORMALLY****
TOTAL RUN TIME: 0 days 0 hours 0 minutes 50 seconds 160 msec
