                         Program Version 6.0.0  -   RELEASE  -
|  1> ! r2scan-3c def2/J RI DEFGRID2 scfconv6 printgap
|  2> %output
|  3>     printlevel normal
|  4> end
|  5> %cpcm
|  6>     smd true
|  7>     smdsolvent "water"
|  8> end
|  9> * xyz 0 1
| 10> C -3.6531600588 -0.6996475263 0.0867281679
| 11> C -3.102424044 0.1007627184 1.0738009051
| 12> C -1.8631487789 0.6869368834 0.8847979523
| 13> C -1.1775180351 0.4688860712 -0.3025365245
| 14> C -1.7244407339 -0.3332552543 -1.2949379353
| 15> C -2.9643541986 -0.9144784701 -1.0955449432
| 16> O 0.0349755681 1.1093651142 -0.5261542398
| 17> C 1.190424536 0.4778296558 -0.1467548761
| 18> C 1.2242259343 -0.7748365806 0.4531343833
| 19> C 2.4424002232 -1.3333063883 0.8007821832
| 20> C 3.6238162773 -0.6564223304 0.5565185442
| 21> C 3.5858057324 0.5932824979 -0.0423366199
| 22> C 2.3781546838 1.1622665509 -0.3941408914
| 23> H -4.6190179342 -1.155550848 0.2385307498
| 24> H -3.6365037897 0.2703029473 1.9958355179
| 25> H -1.4189690206 1.3132963642 1.6434419851
| 26> H -1.1735428289 -0.4897906453 -2.2098868215
| 27> H -3.3906852316 -1.5373158923 -1.866537922
| 28> H 0.303754361 -1.3065147584 0.6452853381
| 29> H 2.4611462015 -2.3066928873 1.2668158819
| 30> H 4.5689727208 -1.0982142442 0.8303993527
| 31> H 4.5020422231 1.129275197 -0.2367906275
| 32> H 2.3268789466 2.133334604 -0.8608652741
| 33> *
| 34>
| 35>                          ****END OF INPUT****

CARTESIAN COORDINATES (ANGSTROEM)
---------------------------------
  C     -3.653160   -0.699648    0.086728
  C     -3.102424    0.100763    1.073801
  C     -1.863149    0.686937    0.884798
  C     -1.177518    0.468886   -0.302537
  C     -1.724441   -0.333255   -1.294938
  C     -2.964354   -0.914478   -1.095545
  O      0.034976    1.109365   -0.526154
  C      1.190425    0.477830   -0.146755
  C      1.224226   -0.774837    0.453134
  C      2.442400   -1.333306    0.800782
  C      3.623816   -0.656422    0.556519
  C      3.585806    0.593282   -0.042337
  C      2.378155    1.162267   -0.394141
  H     -4.619018   -1.155551    0.238531
  H     -3.636504    0.270303    1.995836
  H     -1.418969    1.313296    1.643442
  H     -1.173543   -0.489791   -2.209887
  H     -3.390685   -1.537316   -1.866538
  H      0.303754   -1.306515    0.645285
  H      2.461146   -2.306693    1.266816
  H      4.568973   -1.098214    0.830399
  H      4.502042    1.129275   -0.236791
  H      2.326879    2.133335   -0.860865

 Total Charge           Charge          ....    0
 Multiplicity           Mult            ....    1
 Number of Electrons    NEL             ....   90
 Basis Dimension        Dim             ....  302

ORBITAL ENERGIES
----------------

  NO   OCC          E(Eh)            E(eV)
   0   2.0000     -19.001764      -517.0643
   1   2.0000     -10.103375      -274.9268
   2   2.0000     -10.100494      -274.8484
   3   2.0000     -10.039994      -273.2021
   4   2.0000     -10.039978      -273.2017
   5   2.0000     -10.039494      -273.1885
   6   2.0000     -10.039473      -273.1880
   7   2.0000     -10.037246      -273.1273
   8   2.0000     -10.037132      -273.1242
   9   2.0000     -10.035638      -273.0836
  10   2.0000     -10.034821      -273.0614
  11   2.0000     -10.033914      -273.0367
  12   2.0000     -10.028776      -272.8969
  13   2.0000      -1.052816       -28.6486
  14   2.0000      -0.837098       -22.7786
  15   2.0000      -0.823150       -22.3990
  16   2.0000      -0.737669       -20.0730
  17   2.0000      -0.724502       -19.7147
  18   2.0000      -0.720787       -19.6136
  19   2.0000      -0.697698       -18.9853
  20   2.0000      -0.608626       -16.5616
  21   2.0000      -0.586026       -15.9466
  22   2.0000      -0.581425       -15.8214
  23   2.0000      -0.552526       -15.0350
  24   2.0000      -0.519918       -14.1477
  25   2.0000      -0.480838       -13.0843
  26   2.0000      -0.457879       -12.4595
  27   2.0000      -0.445913       -12.1339
  28   2.0000      -0.445765       -12.1299
  29   2.0000      -0.413969       -11.2647
  30   2.0000      -0.409795       -11.1511
  31   2.0000      -0.395136       -10.7522
  32   2.0000      -0.393092       -10.6966
  33   2.0000      -0.377279       -10.2663
  34   2.0000      -0.376760       -10.2522
  35   2.0000      -0.345284        -9.3956
  36   2.0000      -0.334446        -9.1007
  37   2.0000      -0.329308        -8.9609
  38   2.0000      -0.329190        -8.9577
  39   2.0000      -0.306605        -8.3431
  40   2.0000      -0.302704        -8.2370
  41   2.0000      -0.248309        -6.7568
  42   2.0000      -0.242357        -6.5949
  43   2.0000      -0.235411        -6.4059
  44   2.0000      -0.212476        -5.7818
  45   0.0000      -0.045229        -1.2307
  46   0.0000      -0.036166        -0.9841
  47   0.0000      -0.030804        -0.8382
  48   0.0000      -0.022371        -0.6088
  49   0.0000       0.080343         2.1862

MULLIKEN ATOMIC CHARGES
-----------------------
   0 C :   -0.180162
   1 C :   -0.172312
   2 C :   -0.229275
   3 C :    0.121976
   4 C :   -0.230263
   5 C :   -0.172415
   6 O :   -0.181583
   7 C :    0.340561
   8 C :   -0.234164
   9 C :   -0.208202
  10 C :   -0.213456
  11 C :   -0.149087
  12 C :   -0.355858
  13 H :    0.182909
  14 H :    0.184653
  15 H :    0.193147
  16 H :    0.192901
  17 H :    0.184777
  18 H :    0.197133
  19 H :    0.180567
  20 H :    0.179423
  21 H :    0.183292
  22 H :    0.185438
Sum of atomic charges:   -0.0000000

LOEWDIN ATOMIC CHARGES
----------------------
   0 C :   -0.174682
   1 C :   -0.160200
   2 C :   -0.131644
   3 C :    0.164887
   4 C :   -0.131446
   5 C :   -0.160260
   6 O :   -0.623300
   7 C :    0.196404
   8 C :   -0.160633
   9 C :   -0.160127
  10 C :   -0.198703
  11 C :   -0.161222
  12 C :   -0.146143
  13 H :    0.179394
  14 H :    0.181339
  15 H :    0.191992
  16 H :    0.191923
  17 H :    0.181378
  18 H :    0.193677
  19 H :    0.180142
  20 H :    0.177173
  21 H :    0.180097
  22 H :    0.189953

  Mayer bond orders larger than 0.100000
B(  0-C ,  1-C ) :   1.3912 B(  0-C ,  5-C ) :   1.3913 B(  0-C , 13-H ) :   0.9521
B(  1-C ,  2-C ) :   1.3617 B(  1-C , 14-H ) :   0.9530 B(  2-C ,  3-C ) :   1.4311
B(  2-C , 15-H ) :   0.9402 B(  3-C ,  4-C ) :   1.4329 B(  3-C ,  6-O ) :   0.8735
B(  4-C ,  5-C ) :   1.3613 B(  4-C , 16-H ) :   0.9404 B(  5-C , 17-H ) :   0.9529
B(  6-O ,  7-C ) :   0.9325 B(  7-C ,  8-C ) :   1.3782 B(  7-C , 12-C ) :   1.3644
B(  8-C ,  9-C ) :   1.3759 B(  8-C , 18-H ) :   0.9174 B(  9-C , 10-C ) :   1.3973
B(  9-C , 19-H ) :   0.9602 B( 10-C , 11-C ) :   1.3684 B( 10-C , 20-H ) :   0.9572
B( 11-C , 12-C ) :   1.3723 B( 11-C , 21-H ) :   0.9520 B( 12-C , 22-H ) :   0.9547

Dispersion correction           -0.009092061
FINAL SINGLE POINT ENERGY      -538.381940156142

DIPOLE MOMENT
-------------

Method             : SCF
Type of density    : Electron Density
Multiplicity       :   1
Irrep              :   0
Energy             :  -538.3785265218849645 Eh
Relativity type    :
Basis              : AO
                                X                 Y                 Z
Electronic contribution:     -0.301939722       2.297987778      -1.114253285
Nuclear contribution   :     -0.070711981      -2.842991853       1.349016117
                        -----------------------------------------
Total Dipole Moment    :     -0.372651703      -0.545004075       0.234762832
                        -----------------------------------------
Magnitude (a.u.)       :      0.700722713
Magnitude (Debye)      :      1.781095591

Rotational constants in cm-1:             0.077822             0.014571             0.014072
Rotational constants in MHz :          2333.035517           436.822564           421.865028

                             ****ORCA TERMINATED NORMALLY****
TOTAL RUN TIME: 0 days 0 hours 1 minutes 1 seconds 91 msec
