                         Program Version 6.0.0  -   RELEASE  -
|  1> ! pbe def2-sv(p) def2/J RI DEFGRID1 loosescf d4 GCP(DFT/SV(P)) printgap
|  2> %output
|  3>     printlevel normal
|  4> end
|  5> * xyz 0 1
|  6> C 2.0644748866 1.3850864999 -0.5568047374
|  7> C 1.6148257205 0.2513847718 0.3587241385
|  8> C 0.4096268128 -0.5442494888 -0.1644705439
|  9> H 0.6650784922 -0.8962061776 -1.1720962013
| 10> C 0.2042490771 -1.7734649937 0.7217754131
| 11> C -0.8649280745 0.313340018 -0.3074721784
| 12> C -1.9406182905 -0.4193292041 -1.1113158801
| 13> C -1.4465559067 0.773995365 1.0277411257
| 14> H 2.2186254453 1.0186429051 -1.5694734445
| 15> H 1.3307301882 2.1861631154 -0.5876328523
| 16> H 3.0018512188 1.8034883596 -0.1974806719
| 17> H 1.3903880389 0.6515523174 1.3489495365
| 18> H 2.4472078886 -0.4471919629 0.4752013631
| 19> H -0.6459167075 -2.3612760559 0.3884029649
| 20> H 1.0870749567 -2.4081325288 0.6839689148
| 21> H 0.0444359434 -1.4811082014 1.7562745087
| 22> H -0.5884153687 1.2042923493 -0.880715128
| 23> H -2.7682689117 0.253065361 -1.3260126389
| 24> H -2.3340521686 -1.2679768512 -0.5576211417
| 25> H -1.5386082508 -0.7788997887 -2.055904863
| 26> H -2.2844657986 1.4450127328 0.850914613
| 27> H -0.7063202523 1.3083956158 1.6168748858
| 28> H -1.8088203757 -0.0720773755 1.6055762671
| 29> *
| 30>
| 31>                          ****END OF INPUT****

CARTESIAN COORDINATES (ANGSTROEM)
---------------------------------
  C      2.064475    1.385086   -0.556805
  C      1.614826    0.251385    0.358724
  C      0.409627   -0.544249   -0.164471
  H      0.665078   -0.896206   -1.172096
  C      0.204249   -1.773465    0.721775
  C     -0.864928    0.313340   -0.307472
  C     -1.940618   -0.419329   -1.111316
  C     -1.446556    0.773995    1.027741
  H      2.218625    1.018643   -1.569473
  H      1.330730    2.186163   -0.587633
  H      3.001851    1.803488   -0.197481
  H      1.390388    0.651552    1.348950
  H      2.447208   -0.447192    0.475201
  H     -0.645917   -2.361276    0.388403
  H      1.087075   -2.408133    0.683969
  H      0.044436   -1.481108    1.756275
  H     -0.588415    1.204292   -0.880715
  H     -2.768269    0.253065   -1.326013
  H     -2.334052   -1.267977   -0.557621
  H     -1.538608   -0.778900   -2.055905
  H     -2.284466    1.445013    0.850915
  H     -0.706320    1.308396    1.616875
  H     -1.808820   -0.072077    1.605576

 Total Charge           Charge          ....    0
 Multiplicity           Mult            ....    1
 Number of Electrons    NEL             ....   58
 Basis Dimension        Dim             ....  130

ORBITAL ENERGIES
----------------

  NO   OCC          E(Eh)            E(eV)
   0   2.0000      -9.888077      -269.0683
   1   2.0000      -9.886850      -269.0349
   2   2.0000      -9.877452      -268.7791
   3   2.0000      -9.869459      -268.5616
   4   2.0000      -9.868326      -268.5308
   5   2.0000      -9.867684      -268.5133
   6   2.0000      -9.866928      -268.4928
   7   2.0000      -0.740953       -20.1624
   8   2.0000      -0.682001       -18.5582
   9   2.0000      -0.642179       -17.4746
  10   2.0000      -0.606550       -16.5051
  11   2.0000      -0.563414       -15.3313
  12   2.0000      -0.531641       -14.4667
  13   2.0000      -0.469925       -12.7873
  14   2.0000      -0.425335       -11.5739
  15   2.0000      -0.406653       -11.0656
  16   2.0000      -0.386968       -10.5299
  17   2.0000      -0.370929       -10.0935
  18   2.0000      -0.367460        -9.9991
  19   2.0000      -0.350945        -9.5497
  20   2.0000      -0.337665        -9.1883
  21   2.0000      -0.329433        -8.9643
  22   2.0000      -0.319389        -8.6910
  23   2.0000      -0.303008        -8.2453
  24   2.0000      -0.298581        -8.1248
  25   2.0000      -0.295843        -8.0503
  26   2.0000      -0.269730        -7.3397
  27   2.0000      -0.262873        -7.1531
  28   2.0000      -0.259763        -7.0685
  29   0.0000       0.031194         0.8488
  30   0.0000       0.056160         1.5282
  31   0.0000       0.062294         1.6951
  32   0.0000       0.067347         1.8326
  33   0.0000       0.093677         2.5491

MULLIKEN ATOMIC CHARGES
-----------------------
   0 C :   -0.269071
   1 C :   -0.158588
   2 C :   -0.141004
   3 H :    0.059623
   4 C :   -0.246211
   5 C :   -0.160169
   6 C :   -0.239519
   7 C :   -0.261018
   8 H :    0.095150
   9 H :    0.109202
  10 H :    0.099481
  11 H :    0.082584
  12 H :    0.077826
  13 H :    0.099881
  14 H :    0.094783
  15 H :    0.098834
  16 H :    0.071997
  17 H :    0.094692
  18 H :    0.098252
  19 H :    0.094077
  20 H :    0.096450
  21 H :    0.102701
  22 H :    0.100046
Sum of atomic charges:   -0.0000000

LOEWDIN ATOMIC CHARGES
----------------------
   0 C :   -0.342190
   1 C :   -0.226574
   2 C :   -0.143975
   3 H :    0.110795
   4 C :   -0.330907
   5 C :   -0.152126
   6 C :   -0.328520
   7 C :   -0.331061
   8 H :    0.116678
   9 H :    0.116211
  10 H :    0.119534
  11 H :    0.112788
  12 H :    0.114465
  13 H :    0.116080
  14 H :    0.118103
  15 H :    0.117269
  16 H :    0.114024
  17 H :    0.117113
  18 H :    0.114562
  19 H :    0.115617
  20 H :    0.118853
  21 H :    0.116031
  22 H :    0.117228

  Mayer bond orders larger than 0.100000
B(  0-C ,  1-C ) :   1.1598 B(  0-C ,  8-H ) :   0.9526 B(  0-C ,  9-H ) :   0.9446
B(  0-C , 10-H ) :   0.9496 B(  1-C ,  2-C ) :   1.0890 B(  1-C , 11-H ) :   0.9137
B(  1-C , 12-H ) :   0.9230 B(  2-C ,  3-H ) :   0.8949 B(  2-C ,  4-C ) :   1.1071
B(  2-C ,  5-C ) :   1.0410 B(  4-C , 13-H ) :   0.9466 B(  4-C , 14-H ) :   0.9455
B(  4-C , 15-H ) :   0.9433 B(  5-C ,  6-C ) :   1.1153 B(  5-C ,  7-C ) :   1.1047
B(  5-C , 16-H ) :   0.8949 B(  6-C , 17-H ) :   0.9494 B(  6-C , 18-H ) :   0.9437
B(  6-C , 19-H ) :   0.9484 B(  7-C , 20-H ) :   0.9489 B(  7-C , 21-H ) :   0.9460
B(  7-C , 22-H ) :   0.9437

Dispersion correction           -0.019257795
FINAL SINGLE POINT ENERGY      -275.660874779400

DIPOLE MOMENT
-------------

Method             : SCF
Type of density    : Electron Density
Multiplicity       :   1
Irrep              :   0
Energy             :  -275.7381931357346616 Eh
Relativity type    :
Basis              : AO
                                X                 Y                 Z
Electronic contribution:      0.486577149      -0.118888961      -0.370655910
Nuclear contribution   :     -0.459207190       0.147989163       0.355775314
                        -----------------------------------------
Total Dipole Moment    :      0.027369959       0.029100202      -0.014880596
                        -----------------------------------------
Magnitude (a.u.)       :      0.042630606
Magnitude (Debye)      :      0.108358389

Rotational constants in cm-1:             0.104076             0.059330             0.051603
Rotational constants in MHz :          3120.116514          1778.668499          1547.030255

                             ****ORCA TERMINATED NORMALLY****
TOTAL RUN TIME: 0 days 0 hours 0 minutes 10 seconds 20 msec
