                         Program Version 6.0.0  -   RELEASE  -
|  1> ! pbe def2-sv(p) def2/J RI DEFGRID1 loosescf d4 GCP(DFT/SV(P)) printgap
|  2> %output
|  3>     printlevel normal
|  4> end
|  5> * xyz 0 1
|  6> C -1.936837732 0.1914603941 1.0510664162
|  7> C -1.3309969754 -0.3859323202 -0.2289720821
|  8> C -1.2811687111 0.6826328838 -1.3175652201
|  9> C 7.31055e-05 -1.1292011371 -5.07363e-05
| 10> C 1.3310143902 -0.385774844 0.2290901325
| 11> C 1.9371317155 0.1913783264 -1.0509237638
| 12> C 1.280792514 0.6830797741 1.3173735275
| 13> H -2.9666888626 0.4908137361 0.865416589
| 14> H -1.9380038616 -0.5519326639 1.8450050035
| 15> H -1.3922341017 1.0641130223 1.3954434772
| 16> H -2.0235622807 -1.1654859438 -0.5753650098
| 17> H -0.8236242705 0.2910939857 -2.222258499
| 18> H -2.2916136988 1.007650841 -1.5588308112
| 19> H -0.7225924299 1.5534190444 -0.9859122711
| 20> H 0.1577041874 -1.7824253144 -0.8633087581
| 21> H -0.1574794542 -1.7827630701 0.862969036
| 22> H 2.023583366 -1.1651557961 0.5758719408
| 23> H 2.9666467258 0.491644223 -0.8648648703
| 24> H 1.9393179671 -0.5524639533 -1.8444471987
| 25> H 1.392019181 1.0633983849 -1.3960997494
| 26> H 0.7221787054 1.5536796178 0.9853348845
| 27> H 0.8231093529 0.2917245194 2.2220755995
| 28> H 2.2911404838 1.0083050035 1.5587528685
| 29> *
| 30>
| 31>                          ****END OF INPUT****

CARTESIAN COORDINATES (ANGSTROEM)
---------------------------------
  C     -1.936838    0.191460    1.051066
  C     -1.330997   -0.385932   -0.228972
  C     -1.281169    0.682633   -1.317565
  C      0.000073   -1.129201   -0.000051
  C      1.331014   -0.385775    0.229090
  C      1.937132    0.191378   -1.050924
  C      1.280793    0.683080    1.317374
  H     -2.966689    0.490814    0.865417
  H     -1.938004   -0.551933    1.845005
  H     -1.392234    1.064113    1.395443
  H     -2.023562   -1.165486   -0.575365
  H     -0.823624    0.291094   -2.222258
  H     -2.291614    1.007651   -1.558831
  H     -0.722592    1.553419   -0.985912
  H      0.157704   -1.782425   -0.863309
  H     -0.157479   -1.782763    0.862969
  H      2.023583   -1.165156    0.575872
  H      2.966647    0.491644   -0.864865
  H      1.939318   -0.552464   -1.844447
  H      1.392019    1.063398   -1.396100
  H      0.722179    1.553680    0.985335
  H      0.823109    0.291725    2.222076
  H      2.291140    1.008305    1.558753

 Total Charge           Charge          ....    0
 Multiplicity           Mult            ....    1
 Number of Electrons    NEL             ....   58
 Basis Dimension        Dim             ....  130

ORBITAL ENERGIES
----------------

  NO   OCC          E(Eh)            E(eV)
   0   2.0000      -9.890114      -269.1237
   1   2.0000      -9.890039      -269.1216
   2   2.0000      -9.875935      -268.7379
   3   2.0000      -9.868496      -268.5354
   4   2.0000      -9.868476      -268.5349
   5   2.0000      -9.866488      -268.4808
   6   2.0000      -9.866463      -268.4801
   7   2.0000      -0.735610       -20.0170
   8   2.0000      -0.694317       -18.8933
   9   2.0000      -0.611992       -16.6532
  10   2.0000      -0.608911       -16.5693
  11   2.0000      -0.599563       -16.3149
  12   2.0000      -0.515117       -14.0170
  13   2.0000      -0.468826       -12.7574
  14   2.0000      -0.424453       -11.5499
  15   2.0000      -0.398318       -10.8388
  16   2.0000      -0.389400       -10.5961
  17   2.0000      -0.374838       -10.1999
  18   2.0000      -0.373168       -10.1544
  19   2.0000      -0.349098        -9.4994
  20   2.0000      -0.344295        -9.3687
  21   2.0000      -0.322265        -8.7693
  22   2.0000      -0.316094        -8.6013
  23   2.0000      -0.311219        -8.4687
  24   2.0000      -0.300568        -8.1789
  25   2.0000      -0.288198        -7.8423
  26   2.0000      -0.271731        -7.3942
  27   2.0000      -0.264515        -7.1978
  28   2.0000      -0.251198        -6.8354
  29   0.0000       0.024040         0.6542
  30   0.0000       0.061877         1.6838
  31   0.0000       0.063103         1.7171
  32   0.0000       0.072434         1.9710
  33   0.0000       0.088116         2.3978

MULLIKEN ATOMIC CHARGES
-----------------------
   0 C :   -0.253229
   1 C :   -0.165126
   2 C :   -0.249135
   3 C :   -0.122539
   4 C :   -0.165110
   5 C :   -0.253264
   6 C :   -0.249117
   7 H :    0.094400
   8 H :    0.093190
   9 H :    0.099189
  10 H :    0.067054
  11 H :    0.100221
  12 H :    0.094006
  13 H :    0.108130
  14 H :    0.072573
  15 H :    0.072580
  16 H :    0.067048
  17 H :    0.094397
  18 H :    0.093195
  19 H :    0.099191
  20 H :    0.108119
  21 H :    0.100223
  22 H :    0.094004
Sum of atomic charges:   -0.0000000

LOEWDIN ATOMIC CHARGES
----------------------
   0 C :   -0.333001
   1 C :   -0.155182
   2 C :   -0.331436
   3 C :   -0.213729
   4 C :   -0.155182
   5 C :   -0.333000
   6 C :   -0.331433
   7 H :    0.116392
   8 H :    0.114839
   9 H :    0.116298
  10 H :    0.116478
  11 H :    0.117168
  12 H :    0.117225
  13 H :    0.114597
  14 H :    0.113486
  15 H :    0.113486
  16 H :    0.116474
  17 H :    0.116389
  18 H :    0.114839
  19 H :    0.116300
  20 H :    0.114598
  21 H :    0.117170
  22 H :    0.117222

  Mayer bond orders larger than 0.100000
B(  0-C ,  1-C ) :   1.1164 B(  0-C ,  7-H ) :   0.9483 B(  0-C ,  8-H ) :   0.9489
B(  0-C ,  9-H ) :   0.9411 B(  1-C ,  2-C ) :   1.1228 B(  1-C ,  3-C ) :   1.0942
B(  1-C , 10-H ) :   0.8956 B(  2-C , 11-H ) :   0.9447 B(  2-C , 12-H ) :   0.9453
B(  2-C , 13-H ) :   0.9364 B(  3-C ,  4-C ) :   1.0941 B(  3-C , 14-H ) :   0.9128
B(  3-C , 15-H ) :   0.9128 B(  4-C ,  5-C ) :   1.1165 B(  4-C ,  6-C ) :   1.1228
B(  4-C , 16-H ) :   0.8956 B(  5-C , 17-H ) :   0.9483 B(  5-C , 18-H ) :   0.9489
B(  5-C , 19-H ) :   0.9411 B(  6-C , 20-H ) :   0.9364 B(  6-C , 21-H ) :   0.9447
B(  6-C , 22-H ) :   0.9453

Dispersion correction           -0.019696506
FINAL SINGLE POINT ENERGY      -275.656358165389

DIPOLE MOMENT
-------------

Method             : SCF
Type of density    : Electron Density
Multiplicity       :   1
Irrep              :   0
Energy             :  -275.7332773100734471 Eh
Relativity type    :
Basis              : AO
                                X                 Y                 Z
Electronic contribution:      0.000045047      -1.749582453       0.000212310
Nuclear contribution   :     -0.000092869       1.703340573      -0.000204302
                        -----------------------------------------
Total Dipole Moment    :     -0.000047822      -0.046241879       0.000008009
                        -----------------------------------------
Magnitude (a.u.)       :      0.046241905
Magnitude (Debye)      :      0.117537581

Rotational constants in cm-1:             0.111432             0.061683             0.052125
Rotational constants in MHz :          3340.632367          1849.211792          1562.668039

                             ****ORCA TERMINATED NORMALLY****
TOTAL RUN TIME: 0 days 0 hours 0 minutes 11 seconds 23 msec
