                         Program Version 6.0.0  -   RELEASE  -
|  1> ! pbe def2-sv(p) def2/J RI DEFGRID1 loosescf d4 GCP(DFT/SV(P)) printgap
|  2> %output
|  3>     printlevel normal
|  4> end
|  5> * xyz 0 1
|  6> C -2.9176907029 0.1408337194 -1.0390044117
|  7> C -1.8476277646 0.1448753544 0.0498092932
|  8> C -2.0658805947 -0.9976277607 1.0384950272
|  9> C -0.4594338155 0.0375032272 -0.5877993583
| 10> O 0.5153521678 0.2405754627 0.4404137323
| 11> C 1.8206482786 0.1907083378 0.1966079028
| 12> O 2.5815807675 0.3754205983 1.1268682238
| 13> C 2.2892022949 -0.088957172 -1.2012879964
| 14> H -2.8740312176 -0.7837052113 -1.6092490332
| 15> H -2.7811126476 0.976426672 -1.7202187235
| 16> H -3.9028542263 0.2210717003 -0.5893494157
| 17> H -1.8861354982 1.0924557405 0.5955577065
| 18> H -1.2712399185 -1.0057550491 1.7805474415
| 19> H -2.0697036528 -1.9536962314 0.5198281704
| 20> H -3.0165215013 -0.8779668181 1.5503498847
| 21> H -0.327365168 -0.9531880247 -1.0336038411
| 22> H -0.3396252391 0.8023628637 -1.3612045467
| 23> H 3.3745046951 -0.0824812599 -1.2095324509
| 24> H 1.912037854 0.6705535559 -1.8821835836
| 25> H 1.9262745689 -1.0600381966 -1.5301185454
| 26> *
| 27>
| 28>                          ****END OF INPUT****

CARTESIAN COORDINATES (ANGSTROEM)
---------------------------------
  C     -2.917691    0.140834   -1.039004
  C     -1.847628    0.144875    0.049809
  C     -2.065881   -0.997628    1.038495
  C     -0.459434    0.037503   -0.587799
  O      0.515352    0.240575    0.440414
  C      1.820648    0.190708    0.196608
  O      2.581581    0.375421    1.126868
  C      2.289202   -0.088957   -1.201288
  H     -2.874031   -0.783705   -1.609249
  H     -2.781113    0.976427   -1.720219
  H     -3.902854    0.221072   -0.589349
  H     -1.886135    1.092456    0.595558
  H     -1.271240   -1.005755    1.780547
  H     -2.069704   -1.953696    0.519828
  H     -3.016522   -0.877967    1.550350
  H     -0.327365   -0.953188   -1.033604
  H     -0.339625    0.802363   -1.361205
  H      3.374505   -0.082481   -1.209532
  H      1.912038    0.670554   -1.882184
  H      1.926275   -1.060038   -1.530119

 Total Charge           Charge          ....    0
 Multiplicity           Mult            ....    1
 Number of Electrons    NEL             ....   64
 Basis Dimension        Dim             ....  136

ORBITAL ENERGIES
----------------

  NO   OCC          E(Eh)            E(eV)
   0   2.0000     -18.797594      -511.5085
   1   2.0000     -18.720322      -509.4058
   2   2.0000     -10.008091      -272.3340
   3   2.0000      -9.956225      -270.9227
   4   2.0000      -9.909303      -269.6458
   5   2.0000      -9.902176      -269.4519
   6   2.0000      -9.889445      -269.1055
   7   2.0000      -9.880002      -268.8485
   8   2.0000      -1.001846       -27.2616
   9   2.0000      -0.905527       -24.6406
  10   2.0000      -0.742929       -20.2161
  11   2.0000      -0.678429       -18.4610
  12   2.0000      -0.644205       -17.5297
  13   2.0000      -0.622648       -16.9431
  14   2.0000      -0.524627       -14.2758
  15   2.0000      -0.516219       -14.0470
  16   2.0000      -0.457572       -12.4512
  17   2.0000      -0.449281       -12.2256
  18   2.0000      -0.422152       -11.4873
  19   2.0000      -0.410601       -11.1730
  20   2.0000      -0.388065       -10.5598
  21   2.0000      -0.381064       -10.3693
  22   2.0000      -0.363504        -9.8914
  23   2.0000      -0.352743        -9.5986
  24   2.0000      -0.347793        -9.4639
  25   2.0000      -0.336688        -9.1617
  26   2.0000      -0.317086        -8.6283
  27   2.0000      -0.307773        -8.3749
  28   2.0000      -0.301894        -8.2150
  29   2.0000      -0.288216        -7.8427
  30   2.0000      -0.247922        -6.7463
  31   2.0000      -0.208213        -5.6658
  32   0.0000      -0.017867        -0.4862
  33   0.0000       0.018207         0.4955
  34   0.0000       0.039582         1.0771
  35   0.0000       0.052492         1.4284
  36   0.0000       0.074468         2.0264

MULLIKEN ATOMIC CHARGES
-----------------------
   0 C :   -0.254500
   1 C :   -0.166868
   2 C :   -0.257096
   3 C :   -0.002148
   4 O :   -0.207817
   5 C :    0.086107
   6 O :   -0.187034
   7 C :   -0.308748
   8 H :    0.097432
   9 H :    0.103754
  10 H :    0.110829
  11 H :    0.091873
  12 H :    0.125656
  13 H :    0.090169
  14 H :    0.105352
  15 H :    0.085043
  16 H :    0.093823
  17 H :    0.136303
  18 H :    0.128597
  19 H :    0.129273
Sum of atomic charges:    0.0000000

LOEWDIN ATOMIC CHARGES
----------------------
   0 C :   -0.328255
   1 C :   -0.166060
   2 C :   -0.332126
   3 C :   -0.096803
   4 O :   -0.062602
   5 C :    0.024971
   6 O :   -0.160351
   7 C :   -0.373576
   8 H :    0.118019
   9 H :    0.118566
  10 H :    0.124943
  11 H :    0.125221
  12 H :    0.127410
  13 H :    0.115470
  14 H :    0.121211
  15 H :    0.108504
  16 H :    0.109136
  17 H :    0.145017
  18 H :    0.140391
  19 H :    0.140917

  Mayer bond orders larger than 0.100000
B(  0-C ,  1-C ) :   1.0993 B(  0-C ,  8-H ) :   0.9488 B(  0-C ,  9-H ) :   0.9493
B(  0-C , 10-H ) :   0.9512 B(  1-C ,  2-C ) :   1.1103 B(  1-C ,  3-C ) :   1.0624
B(  1-C , 11-H ) :   0.8992 B(  2-C , 12-H ) :   0.9449 B(  2-C , 13-H ) :   0.9490
B(  2-C , 14-H ) :   0.9525 B(  3-C ,  4-O ) :   0.9547 B(  3-C , 15-H ) :   0.9131
B(  3-C , 16-H ) :   0.9221 B(  4-O ,  5-C ) :   1.1656 B(  5-C ,  6-O ) :   2.1457
B(  5-C ,  7-C ) :   1.0699 B(  7-C , 17-H ) :   0.9359 B(  7-C , 18-H ) :   0.9216
B(  7-C , 19-H ) :   0.9220

Dispersion correction           -0.015361176
FINAL SINGLE POINT ENERGY      -385.448819084499

DIPOLE MOMENT
-------------

Method             : SCF
Type of density    : Electron Density
Multiplicity       :   1
Irrep              :   0
Energy             :  -385.5226383117405362 Eh
Relativity type    :
Basis              : AO
                                X                 Y                 Z
Electronic contribution:      9.558044595       2.511195649       4.740253848
Nuclear contribution   :    -10.513868576      -2.762173052      -6.064689787
                        -----------------------------------------
Total Dipole Moment    :     -0.955823981      -0.250977403      -1.324435939
                        -----------------------------------------
Magnitude (a.u.)       :      1.652488940
Magnitude (Debye)      :      4.200293082

Rotational constants in cm-1:             0.144648             0.033181             0.029129
Rotational constants in MHz :          4336.435955           994.754830           873.264928

                             ****ORCA TERMINATED NORMALLY****
TOTAL RUN TIME: 0 days 0 hours 0 minutes 12 seconds 33 msec
