                         Program Version 6.0.0  -   RELEASE  -
|  1> ! pbe def2-sv(p) def2/J RI DEFGRID1 loosescf d4 GCP(DFT/SV(P)) printgap
|  2> %output
|  3>     printlevel normal
|  4> end
|  5> * xyz 0 1
|  6> C 2.3999913818 0.6073872454 -0.6567414571
|  7> C 1.0761738033 -0.0922728236 -0.3361184886
|  8> H 0.7246977453 -0.6136834706 -1.231446703
|  9> C 0.0315750365 0.9404058176 0.1148539209
| 10> C -1.430996573 0.4685958858 0.1566304582
| 11> C -1.9171019226 -0.0181750563 -1.2076258911
| 12> C -1.6612621929 -0.6052903436 1.2175858655
| 13> O 1.27715249 -1.1259053738 0.6124109197
| 14> H 2.2801665236 1.2683296378 -1.5097143112
| 15> H 2.7353098833 1.1937245278 0.1965406406
| 16> H 3.159068221 -0.134625285 -0.8926777248
| 17> H 0.3099168669 1.2993562484 1.1095821373
| 18> H 0.0943675211 1.7871110019 -0.5714454712
| 19> H -2.0291677543 1.3474571993 0.4295751422
| 20> H -1.4537242625 -0.9667402515 -1.4667357009
| 21> H -1.6835427052 0.708612867 -1.9822257629
| 22> H -2.9943311987 -0.1658166934 -1.1878139399
| 23> H -1.0529378168 -1.4813072954 1.0089016558
| 24> H -1.4017553004 -0.2304979842 2.2051292737
| 25> H -2.7072044886 -0.9033784033 1.2291521555
| 26> H 1.6402200865 -0.7355938152 1.4196082235
| 27> *
| 28>
| 29>                          ****END OF INPUT****

CARTESIAN COORDINATES (ANGSTROEM)
---------------------------------
  C      2.399991    0.607387   -0.656741
  C      1.076174   -0.092273   -0.336118
  H      0.724698   -0.613683   -1.231447
  C      0.031575    0.940406    0.114854
  C     -1.430997    0.468596    0.156630
  C     -1.917102   -0.018175   -1.207626
  C     -1.661262   -0.605290    1.217586
  O      1.277152   -1.125905    0.612411
  H      2.280167    1.268330   -1.509714
  H      2.735310    1.193725    0.196541
  H      3.159068   -0.134625   -0.892678
  H      0.309917    1.299356    1.109582
  H      0.094368    1.787111   -0.571445
  H     -2.029168    1.347457    0.429575
  H     -1.453724   -0.966740   -1.466736
  H     -1.683543    0.708613   -1.982226
  H     -2.994331   -0.165817   -1.187814
  H     -1.052938   -1.481307    1.008902
  H     -1.401755   -0.230498    2.205129
  H     -2.707204   -0.903378    1.229152
  H      1.640220   -0.735594    1.419608

 Total Charge           Charge          ....    0
 Multiplicity           Mult            ....    1
 Number of Electrons    NEL             ....   58
 Basis Dimension        Dim             ....  126

ORBITAL ENERGIES
----------------

  NO   OCC          E(Eh)            E(eV)
   0   2.0000     -18.739547      -509.9290
   1   2.0000      -9.935727      -270.3649
   2   2.0000      -9.891031      -269.1486
   3   2.0000      -9.881406      -268.8867
   4   2.0000      -9.874656      -268.7030
   5   2.0000      -9.869517      -268.5632
   6   2.0000      -9.860591      -268.3203
   7   2.0000      -0.918299       -24.9882
   8   2.0000      -0.727056       -19.7842
   9   2.0000      -0.676336       -18.4040
  10   2.0000      -0.608301       -16.5527
  11   2.0000      -0.602867       -16.4048
  12   2.0000      -0.548135       -14.9155
  13   2.0000      -0.493988       -13.4421
  14   2.0000      -0.428820       -11.6688
  15   2.0000      -0.417815       -11.3693
  16   2.0000      -0.409058       -11.1310
  17   2.0000      -0.377963       -10.2849
  18   2.0000      -0.371646       -10.1130
  19   2.0000      -0.366588        -9.9754
  20   2.0000      -0.338193        -9.2027
  21   2.0000      -0.329826        -8.9750
  22   2.0000      -0.325200        -8.8492
  23   2.0000      -0.310848        -8.4586
  24   2.0000      -0.289381        -7.8744
  25   2.0000      -0.282405        -7.6846
  26   2.0000      -0.278105        -7.5676
  27   2.0000      -0.262293        -7.1374
  28   2.0000      -0.208055        -5.6615
  29   0.0000       0.021927         0.5967
  30   0.0000       0.050086         1.3629
  31   0.0000       0.058686         1.5969
  32   0.0000       0.073857         2.0098
  33   0.0000       0.086713         2.3596

MULLIKEN ATOMIC CHARGES
-----------------------
   0 C :   -0.246300
   1 C :   -0.001486
   2 H :    0.077436
   3 C :   -0.127937
   4 C :   -0.141407
   5 C :   -0.264888
   6 C :   -0.258162
   7 O :   -0.421350
   8 H :    0.097769
   9 H :    0.084748
  10 H :    0.109130
  11 H :    0.061264
  12 H :    0.077242
  13 H :    0.067281
  14 H :    0.110629
  15 H :    0.093100
  16 H :    0.098894
  17 H :    0.120731
  18 H :    0.083050
  19 H :    0.090060
  20 H :    0.290195
Sum of atomic charges:    0.0000000

LOEWDIN ATOMIC CHARGES
----------------------
   0 C :   -0.351573
   1 C :   -0.060171
   2 H :    0.113564
   3 C :   -0.230019
   4 C :   -0.154768
   5 C :   -0.332699
   6 C :   -0.339893
   7 O :   -0.320889
   8 H :    0.122598
   9 H :    0.113303
  10 H :    0.121960
  11 H :    0.110068
  12 H :    0.118027
  13 H :    0.112959
  14 H :    0.118425
  15 H :    0.114344
  16 H :    0.119360
  17 H :    0.122767
  18 H :    0.111077
  19 H :    0.112945
  20 H :    0.278614

  Mayer bond orders larger than 0.100000
B(  0-C ,  1-C ) :   1.1149 B(  0-C ,  8-H ) :   0.9392 B(  0-C ,  9-H ) :   0.9432
B(  0-C , 10-H ) :   0.9459 B(  1-C ,  2-H ) :   0.8998 B(  1-C ,  3-C ) :   1.0523
B(  1-C ,  7-O ) :   1.0232 B(  3-C ,  4-C ) :   1.0885 B(  3-C , 11-H ) :   0.9034
B(  3-C , 12-H ) :   0.9098 B(  4-C ,  5-C ) :   1.1141 B(  4-C ,  6-C ) :   1.1136
B(  4-C , 13-H ) :   0.9032 B(  5-C , 14-H ) :   0.9429 B(  5-C , 15-H ) :   0.9510
B(  5-C , 16-H ) :   0.9484 B(  6-C , 17-H ) :   0.9340 B(  6-C , 18-H ) :   0.9510
B(  6-C , 19-H ) :   0.9486 B(  7-O , 20-H ) :   0.8509

Dispersion correction           -0.016670054
FINAL SINGLE POINT ENERGY      -311.517315110262

DIPOLE MOMENT
-------------

Method             : SCF
Type of density    : Electron Density
Multiplicity       :   1
Irrep              :   0
Energy             :  -311.5973674912430056 Eh
Relativity type    :
Basis              : AO
                                X                 Y                 Z
Electronic contribution:      2.370160226      -1.674418572       1.258865519
Nuclear contribution   :     -2.212858978       2.209504272      -1.157583752
                        -----------------------------------------
Total Dipole Moment    :      0.157301248       0.535085700       0.101281767
                        -----------------------------------------
Magnitude (a.u.)       :      0.566849526
Magnitude (Debye)      :      1.440816991

Rotational constants in cm-1:             0.131250             0.055234             0.047171
Rotational constants in MHz :          3934.783344          1655.882493          1414.163495

                             ****ORCA TERMINATED NORMALLY****
TOTAL RUN TIME: 0 days 0 hours 0 minutes 10 seconds 260 msec
