                         Program Version 6.0.0  -   RELEASE  -
|  1> ! r2scan-3c def2/J RI DEFGRID2 scfconv6 printgap
|  2> %output
|  3>     printlevel normal
|  4> end
|  5> * xyz 0 1
|  6> C -2.422815211 0.0042728233 0.1388651137
|  7> O -1.1695707097 0.1194236848 -0.5035034352
|  8> C -0.0798161345 -0.0913832376 0.3693241023
|  9> C 1.211867935 0.0869997664 -0.4337574662
| 10> O 2.3654324829 -0.0546757199 0.3574133463
| 11> H -2.5551626079 -0.997945955 0.5606301953
| 12> H -3.17255677 0.1848018215 -0.6267891389
| 13> H -2.5213859713 0.7456736345 0.9388669063
| 14> H -0.1046841574 0.6318053286 1.1978539242
| 15> H -0.1307627015 -1.106315183 0.7940944791
| 16> H 1.2414495458 1.1003958137 -0.8391669854
| 17> H 1.2120209606 -0.6194525046 -1.2723859375
| 18> H 2.4296216895 -0.9654121228 0.6788997751
| 19> *
| 20>
| 21>                          ****END OF INPUT****

CARTESIAN COORDINATES (ANGSTROEM)
---------------------------------
  C     -2.422815    0.004273    0.138865
  O     -1.169571    0.119424   -0.503503
  C     -0.079816   -0.091383    0.369324
  C      1.211868    0.087000   -0.433757
  O      2.365432   -0.054676    0.357413
  H     -2.555163   -0.997946    0.560630
  H     -3.172557    0.184802   -0.626789
  H     -2.521386    0.745674    0.938867
  H     -0.104684    0.631805    1.197854
  H     -0.130763   -1.106315    0.794094
  H      1.241450    1.100396   -0.839167
  H      1.212021   -0.619453   -1.272386
  H      2.429622   -0.965412    0.678900

 Total Charge           Charge          ....    0
 Multiplicity           Mult            ....    1
 Number of Electrons    NEL             ....   42
 Basis Dimension        Dim             ....  145

ORBITAL ENERGIES
----------------

  NO   OCC          E(Eh)            E(eV)
   0   2.0000     -18.957004      -515.8463
   1   2.0000     -18.954940      -515.7901
   2   2.0000     -10.078045      -274.2376
   3   2.0000     -10.076881      -274.2059
   4   2.0000     -10.074365      -274.1374
   5   2.0000      -1.003977       -27.3196
   6   2.0000      -0.989861       -26.9355
   7   2.0000      -0.719451       -19.5772
   8   2.0000      -0.638240       -17.3674
   9   2.0000      -0.583197       -15.8696
  10   2.0000      -0.486193       -13.2300
  11   2.0000      -0.458989       -12.4897
  12   2.0000      -0.447585       -12.1794
  13   2.0000      -0.420055       -11.4303
  14   2.0000      -0.397659       -10.8208
  15   2.0000      -0.369816       -10.0632
  16   2.0000      -0.351430        -9.5629
  17   2.0000      -0.300412        -8.1746
  18   2.0000      -0.291096        -7.9211
  19   2.0000      -0.243036        -6.6133
  20   2.0000      -0.227196        -6.1823
  21   0.0000       0.042917         1.1678
  22   0.0000       0.076859         2.0914
  23   0.0000       0.111795         3.0421
  24   0.0000       0.129122         3.5136
  25   0.0000       0.143706         3.9104

MULLIKEN ATOMIC CHARGES
-----------------------
   0 C :   -0.284710
   1 O :   -0.240930
   2 C :   -0.137529
   3 C :   -0.154719
   4 O :   -0.415506
   5 H :    0.130189
   6 H :    0.148633
   7 H :    0.132887
   8 H :    0.133255
   9 H :    0.109728
  10 H :    0.145051
  11 H :    0.136471
  12 H :    0.297178
Sum of atomic charges:    0.0000000

LOEWDIN ATOMIC CHARGES
----------------------
   0 C :   -0.071993
   1 O :   -0.795698
   2 C :    0.022813
   3 C :    0.034163
   4 O :   -0.607953
   5 H :    0.154676
   6 H :    0.174967
   7 H :    0.155747
   8 H :    0.165997
   9 H :    0.157004
  10 H :    0.182160
  11 H :    0.161323
  12 H :    0.266795

  Mayer bond orders larger than 0.100000
B(  0-C ,  1-O ) :   0.8919 B(  0-C ,  5-H ) :   0.9671 B(  0-C ,  6-H ) :   0.9734
B(  0-C ,  7-H ) :   0.9665 B(  1-O ,  2-C ) :   0.9125 B(  2-C ,  3-C ) :   0.9500
B(  2-C ,  8-H ) :   0.9454 B(  2-C ,  9-H ) :   0.9425 B(  3-C ,  4-O ) :   0.9602
B(  3-C , 10-H ) :   0.9681 B(  3-C , 11-H ) :   0.9785 B(  4-O , 12-H ) :   0.8949

Dispersion correction           -0.002341917
FINAL SINGLE POINT ENERGY      -269.490450423443

DIPOLE MOMENT
-------------

Method             : SCF
Type of density    : Electron Density
Multiplicity       :   1
Irrep              :   0
Energy             :  -269.4984510841560450 Eh
Relativity type    :
Basis              : AO
                                X                 Y                 Z
Electronic contribution:      2.893990295       0.418696292      -0.983412843
Nuclear contribution   :     -3.361016058      -0.962024203       1.341294872
                        -----------------------------------------
Total Dipole Moment    :     -0.467025763      -0.543327912       0.357882029
                        -----------------------------------------
Magnitude (a.u.)       :      0.800873167
Magnitude (Debye)      :      2.035657814

Rotational constants in cm-1:             0.750199             0.070923             0.067614
Rotational constants in MHz :         22490.406975          2126.214841          2027.021340

                             ****ORCA TERMINATED NORMALLY****
TOTAL RUN TIME: 0 days 0 hours 0 minutes 16 seconds 65 msec
