                         Program Version 6.0.0  -   RELEASE  -
|  1> ! r2scan-3c def2/J RI DEFGRID2 scfconv6 printgap
|  2> %output
|  3>     printlevel normal
|  4> end
|  5> %cpcm
|  6>     smd true
|  7>     smdsolvent "water"
|  8> end
|  9> * xyz 0 1
| 10> C -2.422815211 0.0042728233 0.1388651137
| 11> O -1.1695707097 0.1194236848 -0.5035034352
| 12> C -0.0798161345 -0.0913832376 0.3693241023
| 13> C 1.211867935 0.0869997664 -0.4337574662
| 14> O 2.3654324829 -0.0546757199 0.3574133463
| 15> H -2.5551626079 -0.997945955 0.5606301953
| 16> H -3.17255677 0.1848018215 -0.6267891389
| 17> H -2.5213859713 0.7456736345 0.9388669063
| 18> H -0.1046841574 0.6318053286 1.1978539242
| 19> H -0.1307627015 -1.106315183 0.7940944791
| 20> H 1.2414495458 1.1003958137 -0.8391669854
| 21> H 1.2120209606 -0.6194525046 -1.2723859375
| 22> H 2.4296216895 -0.9654121228 0.6788997751
| 23> *
| 24>
| 25>                          ****END OF INPUT****

CARTESIAN COORDINATES (ANGSTROEM)
---------------------------------
  C     -2.422815    0.004273    0.138865
  O     -1.169571    0.119424   -0.503503
  C     -0.079816   -0.091383    0.369324
  C      1.211868    0.087000   -0.433757
  O      2.365432   -0.054676    0.357413
  H     -2.555163   -0.997946    0.560630
  H     -3.172557    0.184802   -0.626789
  H     -2.521386    0.745674    0.938867
  H     -0.104684    0.631805    1.197854
  H     -0.130763   -1.106315    0.794094
  H      1.241450    1.100396   -0.839167
  H      1.212021   -0.619453   -1.272386
  H      2.429622   -0.965412    0.678900

 Total Charge           Charge          ....    0
 Multiplicity           Mult            ....    1
 Number of Electrons    NEL             ....   42
 Basis Dimension        Dim             ....  145

ORBITAL ENERGIES
----------------

  NO   OCC          E(Eh)            E(eV)
   0   2.0000     -18.959707      -515.9199
   1   2.0000     -18.956813      -515.8411
   2   2.0000     -10.073021      -274.1008
   3   2.0000     -10.070464      -274.0313
   4   2.0000     -10.063986      -273.8550
   5   2.0000      -1.004868       -27.3438
   6   2.0000      -0.990736       -26.9593
   7   2.0000      -0.714817       -19.4511
   8   2.0000      -0.632006       -17.1978
   9   2.0000      -0.577486       -15.7142
  10   2.0000      -0.482831       -13.1385
  11   2.0000      -0.454256       -12.3609
  12   2.0000      -0.443678       -12.0731
  13   2.0000      -0.416248       -11.3267
  14   2.0000      -0.394117       -10.7245
  15   2.0000      -0.365495        -9.9456
  16   2.0000      -0.345893        -9.4122
  17   2.0000      -0.300761        -8.1841
  18   2.0000      -0.291897        -7.9429
  19   2.0000      -0.246321        -6.7027
  20   2.0000      -0.227557        -6.1921
  21   0.0000       0.051428         1.3994
  22   0.0000       0.091522         2.4904
  23   0.0000       0.124954         3.4002
  24   0.0000       0.137889         3.7521
  25   0.0000       0.152737         4.1562

MULLIKEN ATOMIC CHARGES
-----------------------
   0 C :   -0.305275
   1 O :   -0.307468
   2 C :   -0.148433
   3 C :   -0.155115
   4 O :   -0.496942
   5 H :    0.151568
   6 H :    0.162981
   7 H :    0.152054
   8 H :    0.144750
   9 H :    0.144049
  10 H :    0.155747
  11 H :    0.147140
  12 H :    0.354945
Sum of atomic charges:    0.0000000

LOEWDIN ATOMIC CHARGES
----------------------
   0 C :   -0.072534
   1 O :   -0.832771
   2 C :    0.025312
   3 C :    0.029513
   4 O :   -0.637872
   5 H :    0.164275
   6 H :    0.179669
   7 H :    0.164370
   8 H :    0.171369
   9 H :    0.170982
  10 H :    0.182970
  11 H :    0.167384
  12 H :    0.287332

  Mayer bond orders larger than 0.100000
B(  0-C ,  1-O ) :   0.8811 B(  0-C ,  5-H ) :   0.9617 B(  0-C ,  6-H ) :   0.9668
B(  0-C ,  7-H ) :   0.9616 B(  1-O ,  2-C ) :   0.9087 B(  2-C ,  3-C ) :   0.9454
B(  2-C ,  8-H ) :   0.9418 B(  2-C ,  9-H ) :   0.9397 B(  3-C ,  4-O ) :   0.9569
B(  3-C , 10-H ) :   0.9678 B(  3-C , 11-H ) :   0.9674 B(  4-O , 12-H ) :   0.8651

Dispersion correction           -0.002341917
FINAL SINGLE POINT ENERGY      -269.500805085190

DIPOLE MOMENT
-------------

Method             : SCF
Type of density    : Electron Density
Multiplicity       :   1
Irrep              :   0
Energy             :  -269.5088057459033166 Eh
Relativity type    :
Basis              : AO
                                X                 Y                 Z
Electronic contribution:      2.749447879       0.168954980      -0.777144097
Nuclear contribution   :     -3.361016058      -0.962024203       1.341294872
                        -----------------------------------------
Total Dipole Moment    :     -0.611568179      -0.793069223       0.564150775
                        -----------------------------------------
Magnitude (a.u.)       :      1.149452273
Magnitude (Debye)      :      2.921675489

Rotational constants in cm-1:             0.750199             0.070923             0.067614
Rotational constants in MHz :         22490.406975          2126.214841          2027.021340

                             ****ORCA TERMINATED NORMALLY****
TOTAL RUN TIME: 0 days 0 hours 0 minutes 17 seconds 666 msec
