                         Program Version 6.0.0  -   RELEASE  -
|  1> ! pbe def2-sv(p) def2/J RI DEFGRID1 loosescf d4 GCP(DFT/SV(P)) printgap
|  2> %output
|  3>     printlevel normal
|  4> end
|  5> * xyz 0 1
|  6> C -2.1198500506 1.3401770914 0.0087597791
|  7> C -1.9040417372 -0.1279028999 0.3765089583
|  8> C -0.5546954719 -0.6228716676 -0.0793285513
|  9> O -0.3825966085 -1.5858218585 -0.800660364
| 10> O 0.4332152131 0.1142263917 0.4025587699
| 11> C 1.7837675956 -0.2200404482 0.0420318074
| 12> C 2.6214358411 1.0447649493 0.0802011158
| 13> H -2.0758714176 1.4722824319 -1.0695153618
| 14> H -3.0952192124 1.6645698458 0.3586962497
| 15> H -1.3550353292 1.958860721 0.4690184955
| 16> H -2.6641777396 -0.7614115952 -0.0801187574
| 17> H -1.948683266 -0.2417322801 1.4607952108
| 18> H 2.1478021539 -0.9595620301 0.7620680079
| 19> H 1.775421081 -0.6767188215 -0.9529504253
| 20> H 3.6503271725 0.7999947222 -0.1619632882
| 21> H 2.2471399195 1.7659894296 -0.6406941278
| 22> H 2.5809673355 1.4858780004 1.071649241
| 23> *
| 24>
| 25>                          ****END OF INPUT****

CARTESIAN COORDINATES (ANGSTROEM)
---------------------------------
  C     -2.119850    1.340177    0.008760
  C     -1.904042   -0.127903    0.376509
  C     -0.554695   -0.622872   -0.079329
  O     -0.382597   -1.585822   -0.800660
  O      0.433215    0.114226    0.402559
  C      1.783768   -0.220040    0.042032
  C      2.621436    1.044765    0.080201
  H     -2.075871    1.472282   -1.069515
  H     -3.095219    1.664570    0.358696
  H     -1.355035    1.958861    0.469018
  H     -2.664178   -0.761412   -0.080119
  H     -1.948683   -0.241732    1.460795
  H      2.147802   -0.959562    0.762068
  H      1.775421   -0.676719   -0.952950
  H      3.650327    0.799995   -0.161963
  H      2.247140    1.765989   -0.640694
  H      2.580967    1.485878    1.071649

 Total Charge           Charge          ....    0
 Multiplicity           Mult            ....    1
 Number of Electrons    NEL             ....   56
 Basis Dimension        Dim             ....  118

ORBITAL ENERGIES
----------------

  NO   OCC          E(Eh)            E(eV)
   0   2.0000     -18.797569      -511.5079
   1   2.0000     -18.728199      -509.6202
   2   2.0000     -10.003488      -272.2087
   3   2.0000      -9.946606      -270.6609
   4   2.0000      -9.898592      -269.3544
   5   2.0000      -9.889927      -269.1186
   6   2.0000      -9.885589      -269.0006
   7   2.0000      -1.004322       -27.3290
   8   2.0000      -0.905410       -24.6375
   9   2.0000      -0.722984       -19.6734
  10   2.0000      -0.688402       -18.7324
  11   2.0000      -0.600759       -16.3475
  12   2.0000      -0.563172       -15.3247
  13   2.0000      -0.506477       -13.7819
  14   2.0000      -0.445838       -12.1319
  15   2.0000      -0.441008       -12.0004
  16   2.0000      -0.414179       -11.2704
  17   2.0000      -0.394021       -10.7219
  18   2.0000      -0.376565       -10.2469
  19   2.0000      -0.365346        -9.9416
  20   2.0000      -0.358266        -9.7489
  21   2.0000      -0.335393        -9.1265
  22   2.0000      -0.332724        -9.0539
  23   2.0000      -0.316383        -8.6092
  24   2.0000      -0.307273        -8.3613
  25   2.0000      -0.292903        -7.9703
  26   2.0000      -0.254911        -6.9365
  27   2.0000      -0.211945        -5.7673
  28   0.0000      -0.017801        -0.4844
  29   0.0000       0.038083         1.0363
  30   0.0000       0.056631         1.5410
  31   0.0000       0.078088         2.1249
  32   0.0000       0.087898         2.3918

MULLIKEN ATOMIC CHARGES
-----------------------
   0 C :   -0.301236
   1 C :   -0.144357
   2 C :    0.095424
   3 O :   -0.206525
   4 O :   -0.244963
   5 C :   -0.027282
   6 C :   -0.280244
   7 H :    0.110337
   8 H :    0.110688
   9 H :    0.117759
  10 H :    0.103470
  11 H :    0.111143
  12 H :    0.103387
  13 H :    0.113047
  14 H :    0.111508
  15 H :    0.114021
  16 H :    0.113822
Sum of atomic charges:   -0.0000000

LOEWDIN ATOMIC CHARGES
----------------------
   0 C :   -0.336905
   1 C :   -0.250124
   2 C :    0.032973
   3 O :   -0.170504
   4 O :   -0.070125
   5 C :   -0.110106
   6 C :   -0.351191
   7 H :    0.122578
   8 H :    0.122626
   9 H :    0.122914
  10 H :    0.133543
  11 H :    0.138185
  12 H :    0.115648
  13 H :    0.118988
  14 H :    0.130104
  15 H :    0.125863
  16 H :    0.125534

  Mayer bond orders larger than 0.100000
B(  0-C ,  1-C ) :   1.1349 B(  0-C ,  7-H ) :   0.9570 B(  0-C ,  8-H ) :   0.9513
B(  0-C ,  9-H ) :   0.9506 B(  1-C ,  2-C ) :   1.0339 B(  1-C , 10-H ) :   0.9165
B(  1-C , 11-H ) :   0.9019 B(  2-C ,  3-O ) :   2.0728 B(  2-C ,  4-O ) :   1.1904
B(  4-O ,  5-C ) :   0.9145 B(  5-C ,  6-C ) :   1.1559 B(  5-C , 12-H ) :   0.9368
B(  5-C , 13-H ) :   0.9171 B(  6-C , 14-H ) :   0.9448 B(  6-C , 15-H ) :   0.9522
B(  6-C , 16-H ) :   0.9487

Dispersion correction           -0.011745295
FINAL SINGLE POINT ENERGY      -346.243649887272

DIPOLE MOMENT
-------------

Method             : SCF
Type of density    : Electron Density
Multiplicity       :   1
Irrep              :   0
Energy             :  -346.3083196198736573 Eh
Relativity type    :
Basis              : AO
                                X                 Y                 Z
Electronic contribution:     -0.909843946      -5.415875755      -0.724096874
Nuclear contribution   :      1.185346714       6.083915165       1.135833324
                        -----------------------------------------
Total Dipole Moment    :      0.275502768       0.668039410       0.411736451
                        -----------------------------------------
Magnitude (a.u.)       :      0.831688243
Magnitude (Debye)      :      2.113983513

Rotational constants in cm-1:             0.142480             0.055560             0.043160
Rotational constants in MHz :          4271.440242          1665.656325          1293.899702

                             ****ORCA TERMINATED NORMALLY****
TOTAL RUN TIME: 0 days 0 hours 0 minutes 8 seconds 993 msec
