                         Program Version 6.0.0  -   RELEASE  -
|  1> ! r2scan-3c def2/J RI DEFGRID2 scfconv6 printgap
|  2> %output
|  3>     printlevel normal
|  4> end
|  5> * xyz 0 1
|  6> C 1.5017834749 -2.407725057 0.9940460318
|  7> O 1.0949953357 -1.7653293725 -0.2183579577
|  8> C 0.7068146585 -0.4549515118 -0.0857806619
|  9> C 1.6600421561 0.5577704491 0.0173772991
| 10> C 1.280488516 1.8874184797 0.1087425786
| 11> C -0.0592367703 2.2212094209 0.0903957392
| 12> C -1.0216258161 1.2273783354 -0.0095281119
| 13> C -0.6605573889 -0.1220546455 -0.0946800494
| 14> C -1.7107048775 -1.1894478463 -0.1564461401
| 15> O -2.8034698454 -1.0519956866 0.3502010979
| 16> O -1.4099606251 -2.308652567 -0.7913780944
| 17> Cl -2.6805971077 1.7016312477 -0.0654455626
| 18> Cl 3.3419472414 0.1487405576 -0.0189485863
| 19> H 0.6440963469 -2.5297093859 1.6602300953
| 20> H 2.2820125281 -1.8399339183 1.5004401685
| 21> H 1.8847598829 -3.3786363932 0.6932917348
| 22> H 2.0340312638 2.6539902781 0.1829721576
| 23> H -0.3692579929 3.2505358519 0.1485257943
| 24> H -0.4596381316 -2.3657436548 -1.0451050643
| 25> *
| 26>
| 27>                          ****END OF INPUT****

CARTESIAN COORDINATES (ANGSTROEM)
---------------------------------
  C      1.501783   -2.407725    0.994046
  O      1.094995   -1.765329   -0.218358
  C      0.706815   -0.454952   -0.085781
  C      1.660042    0.557770    0.017377
  C      1.280489    1.887418    0.108743
  C     -0.059237    2.221209    0.090396
  C     -1.021626    1.227378   -0.009528
  C     -0.660557   -0.122055   -0.094680
  C     -1.710705   -1.189448   -0.156446
  O     -2.803470   -1.051996    0.350201
  O     -1.409961   -2.308653   -0.791378
  Cl    -2.680597    1.701631   -0.065446
  Cl     3.341947    0.148741   -0.018949
  H      0.644096   -2.529709    1.660230
  H      2.282013   -1.839934    1.500440
  H      1.884760   -3.378636    0.693292
  H      2.034031    2.653990    0.182972
  H     -0.369258    3.250536    0.148526
  H     -0.459638   -2.365744   -1.045105

 Total Charge           Charge          ....    0
 Multiplicity           Mult            ....    1
 Number of Electrons    NEL             ....  112
 Basis Dimension        Dim             ....  308

ORBITAL ENERGIES
----------------

  NO   OCC          E(Eh)            E(eV)
   0   2.0000    -101.244624     -2755.0063
   1   2.0000    -101.226733     -2754.5194
   2   2.0000     -19.020203      -517.5660
   3   2.0000     -19.000212      -517.0221
   4   2.0000     -18.934879      -515.2442
   5   2.0000     -10.172936      -276.8197
   6   2.0000     -10.142455      -275.9902
   7   2.0000     -10.129405      -275.6351
   8   2.0000     -10.127476      -275.5826
   9   2.0000     -10.109527      -275.0942
  10   2.0000     -10.090356      -274.5725
  11   2.0000     -10.080680      -274.3093
  12   2.0000     -10.073510      -274.1141
  13   2.0000      -9.400374      -255.7972
  14   2.0000      -9.382601      -255.3136
  15   2.0000      -7.146766      -194.4734
  16   2.0000      -7.136636      -194.1977
  17   2.0000      -7.136009      -194.1807
  18   2.0000      -7.129202      -193.9955
  19   2.0000      -7.119076      -193.7199
  20   2.0000      -7.117771      -193.6844
  21   2.0000      -1.081435       -29.4273
  22   2.0000      -1.062748       -28.9189
  23   2.0000      -0.984706       -26.7952
  24   2.0000      -0.894875       -24.3508
  25   2.0000      -0.862551       -23.4712
  26   2.0000      -0.808899       -22.0112
  27   2.0000      -0.770986       -20.9796
  28   2.0000      -0.721421       -19.6309
  29   2.0000      -0.690236       -18.7823
  30   2.0000      -0.642123       -17.4731
  31   2.0000      -0.602719       -16.4008
  32   2.0000      -0.586922       -15.9710
  33   2.0000      -0.536017       -14.5858
  34   2.0000      -0.515312       -14.0224
  35   2.0000      -0.507658       -13.8141
  36   2.0000      -0.474542       -12.9129
  37   2.0000      -0.469697       -12.7811
  38   2.0000      -0.441661       -12.0182
  39   2.0000      -0.438967       -11.9449
  40   2.0000      -0.426693       -11.6109
  41   2.0000      -0.414132       -11.2691
  42   2.0000      -0.398893       -10.8544
  43   2.0000      -0.395158       -10.7528
  44   2.0000      -0.385030       -10.4772
  45   2.0000      -0.372542       -10.1374
  46   2.0000      -0.360693        -9.8150
  47   2.0000      -0.344076        -9.3628
  48   2.0000      -0.310430        -8.4472
  49   2.0000      -0.306493        -8.3401
  50   2.0000      -0.304554        -8.2873
  51   2.0000      -0.288299        -7.8450
  52   2.0000      -0.285739        -7.7754
  53   2.0000      -0.267171        -7.2701
  54   2.0000      -0.239621        -6.5204
  55   2.0000      -0.239395        -6.5143
  56   0.0000      -0.094268        -2.5652
  57   0.0000      -0.068487        -1.8636
  58   0.0000      -0.022056        -0.6002
  59   0.0000      -0.001470        -0.0400
  60   0.0000       0.008060         0.2193

MULLIKEN ATOMIC CHARGES
-----------------------
   0 C :   -0.246355
   1 O :   -0.313863
   2 C :    0.256379
   3 C :    0.016603
   4 C :   -0.171013
   5 C :   -0.235730
   6 C :    0.073260
   7 C :    0.030761
   8 C :    0.299476
   9 O :   -0.367102
  10 O :   -0.329247
  11 Cl:   -0.074000
  12 Cl:   -0.111162
  13 H :    0.157409
  14 H :    0.160786
  15 H :    0.160643
  16 H :    0.167719
  17 H :    0.168830
  18 H :    0.356605
Sum of atomic charges:   -0.0000000

LOEWDIN ATOMIC CHARGES
----------------------
   0 C :   -0.039227
   1 O :   -0.741744
   2 C :    0.181972
   3 C :   -0.143318
   4 C :   -0.142204
   5 C :   -0.160370
   6 C :   -0.121087
   7 C :   -0.024742
   8 C :    0.364340
   9 O :   -0.408090
  10 O :   -0.374375
  11 Cl:    0.224018
  12 Cl:    0.173563
  13 H :    0.170931
  14 H :    0.173648
  15 H :    0.183146
  16 H :    0.184817
  17 H :    0.184462
  18 H :    0.314260

  Mayer bond orders larger than 0.100000
B(  0-C ,  1-O ) :   0.8494 B(  0-C , 13-H ) :   0.9558 B(  0-C , 14-H ) :   0.9517
B(  0-C , 15-H ) :   0.9682 B(  1-O ,  2-C ) :   1.0479 B(  2-C ,  3-C ) :   1.3193
B(  2-C ,  7-C ) :   1.2952 B(  3-C ,  4-C ) :   1.2891 B(  3-C , 12-Cl) :   1.0755
B(  4-C ,  5-C ) :   1.3262 B(  4-C , 16-H ) :   0.9433 B(  5-C ,  6-C ) :   1.3399
B(  5-C , 11-Cl) :   0.1004 B(  5-C , 17-H ) :   0.9404 B(  6-C ,  7-C ) :   1.2000
B(  6-C , 11-Cl) :   1.0761 B(  7-C ,  8-C ) :   0.9643 B(  8-C ,  9-O ) :   1.9533
B(  8-C , 10-O ) :   1.1307 B( 10-O , 18-H ) :   0.7984

Dispersion correction           -0.008809496
FINAL SINGLE POINT ENERGY     -1454.385123240567

DIPOLE MOMENT
-------------

Method             : SCF
Type of density    : Electron Density
Multiplicity       :   1
Irrep              :   0
Energy             : -1454.3904570250181223 Eh
Relativity type    :
Basis              : AO
                                X                 Y                 Z
Electronic contribution:     -2.900013534       6.787446478      -2.828813133
Nuclear contribution   :      4.710259433      -6.508665480       3.049719475
                        -----------------------------------------
Total Dipole Moment    :      1.810245899       0.278780998       0.220906343
                        -----------------------------------------
Magnitude (a.u.)       :      1.844860069
Magnitude (Debye)      :      4.689261633

Rotational constants in cm-1:             0.031709             0.016431             0.011273
Rotational constants in MHz :           950.622010           492.597323           337.964077

                             ****ORCA TERMINATED NORMALLY****
TOTAL RUN TIME: 0 days 0 hours 0 minutes 49 seconds 535 msec
