                         Program Version 6.0.0  -   RELEASE  -
|  1> ! r2scan-3c def2/J RI DEFGRID2 scfconv6 printgap
|  2> %output
|  3>     printlevel normal
|  4> end
|  5> %cpcm
|  6>     smd true
|  7>     smdsolvent "water"
|  8> end
|  9> * xyz 0 1
| 10> C 1.5017834749 -2.407725057 0.9940460318
| 11> O 1.0949953357 -1.7653293725 -0.2183579577
| 12> C 0.7068146585 -0.4549515118 -0.0857806619
| 13> C 1.6600421561 0.5577704491 0.0173772991
| 14> C 1.280488516 1.8874184797 0.1087425786
| 15> C -0.0592367703 2.2212094209 0.0903957392
| 16> C -1.0216258161 1.2273783354 -0.0095281119
| 17> C -0.6605573889 -0.1220546455 -0.0946800494
| 18> C -1.7107048775 -1.1894478463 -0.1564461401
| 19> O -2.8034698454 -1.0519956866 0.3502010979
| 20> O -1.4099606251 -2.308652567 -0.7913780944
| 21> Cl -2.6805971077 1.7016312477 -0.0654455626
| 22> Cl 3.3419472414 0.1487405576 -0.0189485863
| 23> H 0.6440963469 -2.5297093859 1.6602300953
| 24> H 2.2820125281 -1.8399339183 1.5004401685
| 25> H 1.8847598829 -3.3786363932 0.6932917348
| 26> H 2.0340312638 2.6539902781 0.1829721576
| 27> H -0.3692579929 3.2505358519 0.1485257943
| 28> H -0.4596381316 -2.3657436548 -1.0451050643
| 29> *
| 30>
| 31>                          ****END OF INPUT****

CARTESIAN COORDINATES (ANGSTROEM)
---------------------------------
  C      1.501783   -2.407725    0.994046
  O      1.094995   -1.765329   -0.218358
  C      0.706815   -0.454952   -0.085781
  C      1.660042    0.557770    0.017377
  C      1.280489    1.887418    0.108743
  C     -0.059237    2.221209    0.090396
  C     -1.021626    1.227378   -0.009528
  C     -0.660557   -0.122055   -0.094680
  C     -1.710705   -1.189448   -0.156446
  O     -2.803470   -1.051996    0.350201
  O     -1.409961   -2.308653   -0.791378
  Cl    -2.680597    1.701631   -0.065446
  Cl     3.341947    0.148741   -0.018949
  H      0.644096   -2.529709    1.660230
  H      2.282013   -1.839934    1.500440
  H      1.884760   -3.378636    0.693292
  H      2.034031    2.653990    0.182972
  H     -0.369258    3.250536    0.148526
  H     -0.459638   -2.365744   -1.045105

 Total Charge           Charge          ....    0
 Multiplicity           Mult            ....    1
 Number of Electrons    NEL             ....  112
 Basis Dimension        Dim             ....  308

ORBITAL ENERGIES
----------------

  NO   OCC          E(Eh)            E(eV)
   0   2.0000    -101.234800     -2754.7390
   1   2.0000    -101.228870     -2754.5776
   2   2.0000     -19.003617      -517.1147
   3   2.0000     -19.003158      -517.1022
   4   2.0000     -18.949492      -515.6419
   5   2.0000     -10.183707      -277.1128
   6   2.0000     -10.132332      -275.7148
   7   2.0000     -10.122997      -275.4607
   8   2.0000     -10.116007      -275.2706
   9   2.0000     -10.083852      -274.3956
  10   2.0000     -10.081097      -274.3206
  11   2.0000     -10.066865      -273.9333
  12   2.0000     -10.060673      -273.7648
  13   2.0000      -9.390601      -255.5312
  14   2.0000      -9.385071      -255.3808
  15   2.0000      -7.136949      -194.2062
  16   2.0000      -7.131455      -194.0567
  17   2.0000      -7.126894      -193.9327
  18   2.0000      -7.126239      -193.9148
  19   2.0000      -7.121567      -193.7877
  20   2.0000      -7.120371      -193.7552
  21   2.0000      -1.084697       -29.5161
  22   2.0000      -1.049286       -28.5525
  23   2.0000      -0.996462       -27.1151
  24   2.0000      -0.886437       -24.1212
  25   2.0000      -0.856686       -23.3116
  26   2.0000      -0.803242       -21.8573
  27   2.0000      -0.759143       -20.6573
  28   2.0000      -0.710932       -19.3454
  29   2.0000      -0.671631       -18.2760
  30   2.0000      -0.633566       -17.2402
  31   2.0000      -0.598783       -16.2937
  32   2.0000      -0.577635       -15.7183
  33   2.0000      -0.530488       -14.4353
  34   2.0000      -0.500251       -13.6125
  35   2.0000      -0.497075       -13.5261
  36   2.0000      -0.458906       -12.4875
  37   2.0000      -0.454537       -12.3686
  38   2.0000      -0.438158       -11.9229
  39   2.0000      -0.433819       -11.8048
  40   2.0000      -0.425954       -11.5908
  41   2.0000      -0.416302       -11.3282
  42   2.0000      -0.389303       -10.5935
  43   2.0000      -0.384246       -10.4559
  44   2.0000      -0.375746       -10.2246
  45   2.0000      -0.365113        -9.9352
  46   2.0000      -0.352184        -9.5834
  47   2.0000      -0.334735        -9.1086
  48   2.0000      -0.312888        -8.5141
  49   2.0000      -0.302770        -8.2388
  50   2.0000      -0.298867        -8.1326
  51   2.0000      -0.293647        -7.9905
  52   2.0000      -0.272351        -7.4110
  53   2.0000      -0.259122        -7.0511
  54   2.0000      -0.253410        -6.8956
  55   2.0000      -0.232457        -6.3255
  56   0.0000      -0.089924        -2.4470
  57   0.0000      -0.057699        -1.5701
  58   0.0000      -0.013505        -0.3675
  59   0.0000      -0.000554        -0.0151
  60   0.0000       0.011172         0.3040

MULLIKEN ATOMIC CHARGES
-----------------------
   0 C :   -0.268219
   1 O :   -0.332763
   2 C :    0.300538
   3 C :    0.015758
   4 C :   -0.180599
   5 C :   -0.256110
   6 C :    0.073891
   7 C :    0.036325
   8 C :    0.316597
   9 O :   -0.453489
  10 O :   -0.356112
  11 Cl:   -0.109766
  12 Cl:   -0.120944
  13 H :    0.172884
  14 H :    0.169052
  15 H :    0.182252
  16 H :    0.206228
  17 H :    0.203399
  18 H :    0.401079
Sum of atomic charges:   -0.0000000

LOEWDIN ATOMIC CHARGES
----------------------
   0 C :   -0.035383
   1 O :   -0.740203
   2 C :    0.196370
   3 C :   -0.141257
   4 C :   -0.127941
   5 C :   -0.156270
   6 C :   -0.127374
   7 C :   -0.024948
   8 C :    0.373781
   9 O :   -0.480939
  10 O :   -0.374213
  11 Cl:    0.198055
  12 Cl:    0.168525
  13 H :    0.177855
  14 H :    0.176882
  15 H :    0.191013
  16 H :    0.199336
  17 H :    0.196758
  18 H :    0.329952

  Mayer bond orders larger than 0.100000
B(  0-C ,  1-O ) :   0.8375 B(  0-C , 13-H ) :   0.9529 B(  0-C , 14-H ) :   0.9471
B(  0-C , 15-H ) :   0.9608 B(  1-O ,  2-C ) :   1.0545 B(  2-C ,  3-C ) :   1.3036
B(  2-C ,  7-C ) :   1.2967 B(  3-C ,  4-C ) :   1.2696 B(  3-C , 12-Cl) :   1.0616
B(  4-C ,  5-C ) :   1.3503 B(  4-C , 16-H ) :   0.9388 B(  5-C ,  6-C ) :   1.3150
B(  5-C , 17-H ) :   0.9397 B(  6-C ,  7-C ) :   1.1580 B(  6-C , 11-Cl) :   1.0471
B(  7-C ,  8-C ) :   0.9767 B(  8-C ,  9-O ) :   1.9022 B(  8-C , 10-O ) :   1.1605
B( 10-O , 18-H ) :   0.7784

Dispersion correction           -0.008809496
FINAL SINGLE POINT ENERGY     -1454.397683218655

DIPOLE MOMENT
-------------

Method             : SCF
Type of density    : Electron Density
Multiplicity       :   1
Irrep              :   0
Energy             : -1454.4030170031064699 Eh
Relativity type    :
Basis              : AO
                                X                 Y                 Z
Electronic contribution:     -2.076898624       6.925032080      -2.836008157
Nuclear contribution   :      4.710259433      -6.508665480       3.049719475
                        -----------------------------------------
Total Dipole Moment    :      2.633360809       0.416366600       0.213711319
                        -----------------------------------------
Magnitude (a.u.)       :      2.674625735
Magnitude (Debye)      :      6.798358344

Rotational constants in cm-1:             0.031709             0.016431             0.011273
Rotational constants in MHz :           950.622010           492.597323           337.964077

                             ****ORCA TERMINATED NORMALLY****
TOTAL RUN TIME: 0 days 0 hours 1 minutes 8 seconds 490 msec
