                         Program Version 6.0.0  -   RELEASE  -
|  1> ! r2scan-3c def2/J RI DEFGRID2 scfconv6 printgap
|  2> %output
|  3>     printlevel normal
|  4> end
|  5> * xyz 0 1
|  6> C -2.7626277519 0.3037368034 -0.0055939417
|  7> C -1.3461692328 0.0381937559 0.4871272508
|  8> C -0.3357159902 0.1103212435 -0.6683235326
|  9> C 1.0432754045 -0.1664468717 -0.1404413403
| 10> O 1.6025701388 -1.2423508706 -0.18926663
| 11> O 1.5916884061 0.8944371506 0.4294792238
| 12> H -2.8314279791 1.2923273461 -0.4519979687
| 13> H -3.4631531372 0.2489474811 0.8232013826
| 14> H -3.0517131491 -0.4328694972 -0.7508777411
| 15> H -1.0735763527 0.776655899 1.2431659142
| 16> H -1.2930311805 -0.9520493043 0.9445933245
| 17> H -0.5809732122 -0.6356094713 -1.4236045324
| 18> H -0.3543095459 1.108685859 -1.1042808195
| 19> H 2.4741046952 0.7107870464 0.8061481104
| 20> *
| 21>
| 22>                          ****END OF INPUT****

CARTESIAN COORDINATES (ANGSTROEM)
---------------------------------
  C     -2.762628    0.303737   -0.005594
  C     -1.346169    0.038194    0.487127
  C     -0.335716    0.110321   -0.668324
  C      1.043275   -0.166447   -0.140441
  O      1.602570   -1.242351   -0.189267
  O      1.591688    0.894437    0.429479
  H     -2.831428    1.292327   -0.451998
  H     -3.463153    0.248947    0.823201
  H     -3.051713   -0.432869   -0.750878
  H     -1.073576    0.776656    1.243166
  H     -1.293031   -0.952049    0.944593
  H     -0.580973   -0.635609   -1.423605
  H     -0.354310    1.108686   -1.104281
  H      2.474105    0.710787    0.806148

 Total Charge           Charge          ....    0
 Multiplicity           Mult            ....    1
 Number of Electrons    NEL             ....   48
 Basis Dimension        Dim             ....  164

ORBITAL ENERGIES
----------------

  NO   OCC          E(Eh)            E(eV)
   0   2.0000     -19.003306      -517.1062
   1   2.0000     -18.932113      -515.1690
   2   2.0000     -10.160079      -276.4698
   3   2.0000     -10.046338      -273.3748
   4   2.0000     -10.043046      -273.2852
   5   2.0000     -10.026625      -272.8383
   6   2.0000      -1.077732       -29.3266
   7   2.0000      -0.976945       -26.5840
   8   2.0000      -0.776247       -21.1227
   9   2.0000      -0.692811       -18.8524
  10   2.0000      -0.602097       -16.3839
  11   2.0000      -0.566140       -15.4054
  12   2.0000      -0.466763       -12.7013
  13   2.0000      -0.449162       -12.2223
  14   2.0000      -0.433306       -11.7909
  15   2.0000      -0.427393       -11.6300
  16   2.0000      -0.385743       -10.4966
  17   2.0000      -0.368108       -10.0167
  18   2.0000      -0.361410        -9.8345
  19   2.0000      -0.330334        -8.9888
  20   2.0000      -0.321670        -8.7531
  21   2.0000      -0.314209        -8.5501
  22   2.0000      -0.289416        -7.8754
  23   2.0000      -0.236909        -6.4466
  24   0.0000      -0.019944        -0.5427
  25   0.0000       0.056063         1.5255
  26   0.0000       0.100743         2.7414
  27   0.0000       0.112129         3.0512
  28   0.0000       0.129594         3.5264

MULLIKEN ATOMIC CHARGES
-----------------------
   0 C :   -0.466282
   1 C :   -0.238505
   2 C :   -0.294746
   3 C :    0.362904
   4 O :   -0.401143
   5 O :   -0.352474
   6 H :    0.144383
   7 H :    0.151902
   8 H :    0.145979
   9 H :    0.150894
  10 H :    0.153178
  11 H :    0.162268
  12 H :    0.152145
  13 H :    0.329497
Sum of atomic charges:    0.0000000

LOEWDIN ATOMIC CHARGES
----------------------
   0 C :   -0.418629
   1 C :   -0.287620
   2 C :   -0.235433
   3 C :    0.334947
   4 O :   -0.421071
   5 O :   -0.404383
   6 H :    0.151034
   7 H :    0.153865
   8 H :    0.151790
   9 H :    0.159909
  10 H :    0.160524
  11 H :    0.178514
  12 H :    0.176818
  13 H :    0.299733

  Mayer bond orders larger than 0.100000
B(  0-C ,  1-C ) :   0.8962 B(  0-C ,  6-H ) :   0.9839 B(  0-C ,  7-H ) :   0.9717
B(  0-C ,  8-H ) :   0.9815 B(  1-C ,  2-C ) :   0.9265 B(  1-C ,  9-H ) :   0.9643
B(  1-C , 10-H ) :   0.9592 B(  2-C ,  3-C ) :   0.9877 B(  2-C , 11-H ) :   0.9657
B(  2-C , 12-H ) :   0.9617 B(  3-C ,  4-O ) :   1.9376 B(  3-C ,  5-O ) :   1.0252
B(  5-O , 13-H ) :   0.8591

Dispersion correction           -0.003044637
FINAL SINGLE POINT ENERGY      -307.647479514566

DIPOLE MOMENT
-------------

Method             : SCF
Type of density    : Electron Density
Multiplicity       :   1
Irrep              :   0
Energy             :  -307.6520514014454193 Eh
Relativity type    :
Basis              : AO
                                X                 Y                 Z
Electronic contribution:      9.125350181      -1.259244893       0.107278439
Nuclear contribution   :     -9.497601952       1.980827908       0.084577195
                        -----------------------------------------
Total Dipole Moment    :     -0.372251772       0.721583016       0.191855634
                        -----------------------------------------
Magnitude (a.u.)       :      0.834303311
Magnitude (Debye)      :      2.120630487

Rotational constants in cm-1:             0.272427             0.063068             0.056773
Rotational constants in MHz :          8167.159525          1890.716928          1701.999773

                             ****ORCA TERMINATED NORMALLY****
TOTAL RUN TIME: 0 days 0 hours 0 minutes 19 seconds 350 msec
