                         Program Version 6.0.0  -   RELEASE  -
|  1> ! r2scan-3c def2/J RI DEFGRID2 scfconv6 printgap
|  2> %output
|  3>     printlevel normal
|  4> end
|  5> %cpcm
|  6>     smd true
|  7>     smdsolvent "water"
|  8> end
|  9> * xyz 0 1
| 10> C -2.7626277519 0.3037368034 -0.0055939417
| 11> C -1.3461692328 0.0381937559 0.4871272508
| 12> C -0.3357159902 0.1103212435 -0.6683235326
| 13> C 1.0432754045 -0.1664468717 -0.1404413403
| 14> O 1.6025701388 -1.2423508706 -0.18926663
| 15> O 1.5916884061 0.8944371506 0.4294792238
| 16> H -2.8314279791 1.2923273461 -0.4519979687
| 17> H -3.4631531372 0.2489474811 0.8232013826
| 18> H -3.0517131491 -0.4328694972 -0.7508777411
| 19> H -1.0735763527 0.776655899 1.2431659142
| 20> H -1.2930311805 -0.9520493043 0.9445933245
| 21> H -0.5809732122 -0.6356094713 -1.4236045324
| 22> H -0.3543095459 1.108685859 -1.1042808195
| 23> H 2.4741046952 0.7107870464 0.8061481104
| 24> *
| 25>
| 26>                          ****END OF INPUT****

CARTESIAN COORDINATES (ANGSTROEM)
---------------------------------
  C     -2.762628    0.303737   -0.005594
  C     -1.346169    0.038194    0.487127
  C     -0.335716    0.110321   -0.668324
  C      1.043275   -0.166447   -0.140441
  O      1.602570   -1.242351   -0.189267
  O      1.591688    0.894437    0.429479
  H     -2.831428    1.292327   -0.451998
  H     -3.463153    0.248947    0.823201
  H     -3.051713   -0.432869   -0.750878
  H     -1.073576    0.776656    1.243166
  H     -1.293031   -0.952049    0.944593
  H     -0.580973   -0.635609   -1.423605
  H     -0.354310    1.108686   -1.104281
  H      2.474105    0.710787    0.806148

 Total Charge           Charge          ....    0
 Multiplicity           Mult            ....    1
 Number of Electrons    NEL             ....   48
 Basis Dimension        Dim             ....  164

ORBITAL ENERGIES
----------------

  NO   OCC          E(Eh)            E(eV)
   0   2.0000     -19.000992      -517.0433
   1   2.0000     -18.943539      -515.4799
   2   2.0000     -10.166574      -276.6465
   3   2.0000     -10.036474      -273.1063
   4   2.0000     -10.031289      -272.9653
   5   2.0000     -10.012330      -272.4493
   6   2.0000      -1.078482       -29.3470
   7   2.0000      -0.985672       -26.8215
   8   2.0000      -0.765970       -20.8431
   9   2.0000      -0.682950       -18.5840
  10   2.0000      -0.592920       -16.1342
  11   2.0000      -0.555306       -15.1106
  12   2.0000      -0.469081       -12.7644
  13   2.0000      -0.451328       -12.2813
  14   2.0000      -0.428300       -11.6546
  15   2.0000      -0.425311       -11.5733
  16   2.0000      -0.378780       -10.3071
  17   2.0000      -0.360405        -9.8071
  18   2.0000      -0.355370        -9.6701
  19   2.0000      -0.322897        -8.7865
  20   2.0000      -0.311059        -8.4643
  21   2.0000      -0.303727        -8.2648
  22   2.0000      -0.294039        -8.0012
  23   2.0000      -0.249350        -6.7852
  24   0.0000      -0.024210        -0.6588
  25   0.0000       0.075710         2.0602
  26   0.0000       0.113966         3.1012
  27   0.0000       0.128878         3.5070
  28   0.0000       0.140586         3.8255

MULLIKEN ATOMIC CHARGES
-----------------------
   0 C :   -0.510492
   1 C :   -0.227942
   2 C :   -0.317336
   3 C :    0.396612
   4 O :   -0.491795
   5 O :   -0.375138
   6 H :    0.158405
   7 H :    0.162847
   8 H :    0.158440
   9 H :    0.158936
  10 H :    0.158118
  11 H :    0.174528
  12 H :    0.175958
  13 H :    0.378859
Sum of atomic charges:    0.0000000

LOEWDIN ATOMIC CHARGES
----------------------
   0 C :   -0.424464
   1 C :   -0.285213
   2 C :   -0.234827
   3 C :    0.345840
   4 O :   -0.487558
   5 O :   -0.394245
   6 H :    0.155001
   7 H :    0.156690
   8 H :    0.155003
   9 H :    0.162424
  10 H :    0.161673
  11 H :    0.182804
  12 H :    0.186640
  13 H :    0.320232

  Mayer bond orders larger than 0.100000
B(  0-C ,  1-C ) :   0.8882 B(  0-C ,  6-H ) :   0.9812 B(  0-C ,  7-H ) :   0.9689
B(  0-C ,  8-H ) :   0.9794 B(  1-C ,  2-C ) :   0.9162 B(  1-C ,  9-H ) :   0.9629
B(  1-C , 10-H ) :   0.9584 B(  2-C ,  3-C ) :   0.9883 B(  2-C , 11-H ) :   0.9638
B(  2-C , 12-H ) :   0.9530 B(  3-C ,  4-O ) :   1.8622 B(  3-C ,  5-O ) :   1.0646
B(  5-O , 13-H ) :   0.8348

Dispersion correction           -0.003044637
FINAL SINGLE POINT ENERGY      -307.657632685605

DIPOLE MOMENT
-------------

Method             : SCF
Type of density    : Electron Density
Multiplicity       :   1
Irrep              :   0
Energy             :  -307.6622045724835743 Eh
Relativity type    :
Basis              : AO
                                X                 Y                 Z
Electronic contribution:      9.041569308      -0.962168354       0.161223004
Nuclear contribution   :     -9.497601952       1.980827908       0.084577195
                        -----------------------------------------
Total Dipole Moment    :     -0.456032644       1.018659555       0.245800199
                        -----------------------------------------
Magnitude (a.u.)       :      1.142825795
Magnitude (Debye)      :      2.904832320

Rotational constants in cm-1:             0.272427             0.063068             0.056773
Rotational constants in MHz :          8167.159525          1890.716928          1701.999773

                             ****ORCA TERMINATED NORMALLY****
TOTAL RUN TIME: 0 days 0 hours 0 minutes 20 seconds 512 msec
