                         Program Version 6.0.0  -   RELEASE  -
|  1> ! pbe def2-sv(p) def2/J RI DEFGRID1 loosescf d4 GCP(DFT/SV(P)) printgap
|  2> %output
|  3>     printlevel normal
|  4> end
|  5> * xyz 0 1
|  6> C 2.7088778091 -0.3897056615 0.2450384869
|  7> C 1.3704319876 -0.612983992 -0.4494521605
|  8> C 0.2465250296 0.1894740899 0.2143635788
|  9> H 0.2638625711 -0.003114571 1.2992056816
| 10> C -1.1470852618 -0.2022202433 -0.3298931956
| 11> C -1.5647018581 -1.5808284392 0.1783407065
| 12> C -2.2068563714 0.8260858928 0.0715440416
| 13> O 0.5461094927 1.5571842315 -0.0214305241
| 14> H 3.4989733075 -0.9232124228 -0.2766236655
| 15> H 2.6686804085 -0.7450237454 1.272425239
| 16> H 2.948785628 0.670447588 0.2527439227
| 17> H 1.4403075471 -0.2862847981 -1.488471138
| 18> H 1.1235065456 -1.6732545243 -0.4343738501
| 19> H -1.0842088972 -0.2243289101 -1.4231281212
| 20> H -2.5512186873 -1.8319608704 -0.2030910833
| 21> H -0.8729733575 -2.3538596363 -0.1428134434
| 22> H -1.6055325996 -1.5846709877 1.2655394794
| 23> H -2.2445755812 0.9317162699 1.1543628079
| 24> H -3.1850474984 0.4993248418 -0.2722459006
| 25> H -2.0006415853 1.793789068 -0.3783575111
| 26> H -0.0044414061 2.106659318 0.5498932425
| 27> *
| 28>
| 29>                          ****END OF INPUT****

CARTESIAN COORDINATES (ANGSTROEM)
---------------------------------
  C      2.708878   -0.389706    0.245038
  C      1.370432   -0.612984   -0.449452
  C      0.246525    0.189474    0.214364
  H      0.263863   -0.003115    1.299206
  C     -1.147085   -0.202220   -0.329893
  C     -1.564702   -1.580828    0.178341
  C     -2.206856    0.826086    0.071544
  O      0.546109    1.557184   -0.021431
  H      3.498973   -0.923212   -0.276624
  H      2.668680   -0.745024    1.272425
  H      2.948786    0.670448    0.252744
  H      1.440308   -0.286285   -1.488471
  H      1.123507   -1.673255   -0.434374
  H     -1.084209   -0.224329   -1.423128
  H     -2.551219   -1.831961   -0.203091
  H     -0.872973   -2.353860   -0.142813
  H     -1.605533   -1.584671    1.265539
  H     -2.244576    0.931716    1.154363
  H     -3.185047    0.499325   -0.272246
  H     -2.000642    1.793789   -0.378358
  H     -0.004441    2.106659    0.549893

 Total Charge           Charge          ....    0
 Multiplicity           Mult            ....    1
 Number of Electrons    NEL             ....   58
 Basis Dimension        Dim             ....  126

ORBITAL ENERGIES
----------------

  NO   OCC          E(Eh)            E(eV)
   0   2.0000     -18.739484      -509.9273
   1   2.0000      -9.932235      -270.2699
   2   2.0000      -9.891741      -269.1680
   3   2.0000      -9.877633      -268.7841
   4   2.0000      -9.876707      -268.7589
   5   2.0000      -9.874973      -268.7117
   6   2.0000      -9.864543      -268.4279
   7   2.0000      -0.917125       -24.9562
   8   2.0000      -0.725169       -19.7329
   9   2.0000      -0.684949       -18.6384
  10   2.0000      -0.613052       -16.6820
  11   2.0000      -0.596420       -16.2294
  12   2.0000      -0.521918       -14.2021
  13   2.0000      -0.502352       -13.6697
  14   2.0000      -0.471834       -12.8393
  15   2.0000      -0.407789       -11.0965
  16   2.0000      -0.402390       -10.9496
  17   2.0000      -0.376995       -10.2585
  18   2.0000      -0.368646       -10.0314
  19   2.0000      -0.355789        -9.6815
  20   2.0000      -0.343848        -9.3566
  21   2.0000      -0.336229        -9.1493
  22   2.0000      -0.310766        -8.4564
  23   2.0000      -0.300390        -8.1740
  24   2.0000      -0.294887        -8.0243
  25   2.0000      -0.292187        -7.9508
  26   2.0000      -0.284586        -7.7440
  27   2.0000      -0.261730        -7.1220
  28   2.0000      -0.211376        -5.7518
  29   0.0000       0.023570         0.6414
  30   0.0000       0.054029         1.4702
  31   0.0000       0.062552         1.7021
  32   0.0000       0.063702         1.7334
  33   0.0000       0.086306         2.3485

MULLIKEN ATOMIC CHARGES
-----------------------
   0 C :   -0.259023
   1 C :   -0.161812
   2 C :    0.024829
   3 H :    0.044122
   4 C :   -0.122308
   5 C :   -0.262611
   6 C :   -0.275701
   7 O :   -0.420424
   8 H :    0.098280
   9 H :    0.088116
  10 H :    0.109629
  11 H :    0.086991
  12 H :    0.086499
  13 H :    0.067095
  14 H :    0.100025
  15 H :    0.109610
  16 H :    0.092719
  17 H :    0.089499
  18 H :    0.102930
  19 H :    0.102094
  20 H :    0.299440
Sum of atomic charges:    0.0000000

LOEWDIN ATOMIC CHARGES
----------------------
   0 C :   -0.341521
   1 C :   -0.235857
   2 C :   -0.044260
   3 H :    0.092267
   4 C :   -0.168346
   5 C :   -0.330453
   6 C :   -0.340446
   7 O :   -0.325096
   8 H :    0.117097
   9 H :    0.113575
  10 H :    0.121940
  11 H :    0.121853
  12 H :    0.116940
  13 H :    0.117721
  14 H :    0.119670
  15 H :    0.116950
  16 H :    0.115973
  17 H :    0.113273
  18 H :    0.121698
  19 H :    0.115064
  20 H :    0.281958

  Mayer bond orders larger than 0.100000
B(  0-C ,  1-C ) :   1.1590 B(  0-C ,  8-H ) :   0.9531 B(  0-C ,  9-H ) :   0.9535
B(  0-C , 10-H ) :   0.9482 B(  1-C ,  2-C ) :   1.0884 B(  1-C , 11-H ) :   0.9087
B(  1-C , 12-H ) :   0.9182 B(  2-C ,  3-H ) :   0.9011 B(  2-C ,  4-C ) :   1.0040
B(  2-C ,  7-O ) :   1.0646 B(  4-C ,  5-C ) :   1.0943 B(  4-C ,  6-C ) :   1.1075
B(  4-C , 13-H ) :   0.8885 B(  5-C , 14-H ) :   0.9465 B(  5-C , 15-H ) :   0.9448
B(  5-C , 16-H ) :   0.9477 B(  6-C , 17-H ) :   0.9475 B(  6-C , 18-H ) :   0.9487
B(  6-C , 19-H ) :   0.9383 B(  7-O , 20-H ) :   0.8425

Dispersion correction           -0.016375892
FINAL SINGLE POINT ENERGY      -311.518509795216

DIPOLE MOMENT
-------------

Method             : SCF
Type of density    : Electron Density
Multiplicity       :   1
Irrep              :   0
Energy             :  -311.5986572330243689 Eh
Relativity type    :
Basis              : AO
                                X                 Y                 Z
Electronic contribution:      1.070453306       3.271290615      -0.787340358
Nuclear contribution   :     -1.497200869      -3.376582270       1.102085722
                        -----------------------------------------
Total Dipole Moment    :     -0.426747563      -0.105291655       0.314745364
                        -----------------------------------------
Magnitude (a.u.)       :      0.540614890
Magnitude (Debye)      :      1.374133846

Rotational constants in cm-1:             0.133403             0.056379             0.043056
Rotational constants in MHz :          3999.316057          1690.208944          1290.789180

                             ****ORCA TERMINATED NORMALLY****
TOTAL RUN TIME: 0 days 0 hours 0 minutes 9 seconds 170 msec
