                         Program Version 6.0.0  -   RELEASE  -
|  1> ! pbe def2-sv(p) def2/J RI DEFGRID1 loosescf d4 GCP(DFT/SV(P)) printgap
|  2> %output
|  3>     printlevel normal
|  4> end
|  5> * xyz 0 1
|  6> C -2.5962223271 0.5122774679 0.6276292608
|  7> C -1.7244823302 0.4088634581 -0.6272293752
|  8> C -0.4245626318 -0.2696631157 -0.2799515282
|  9> O -0.1762732744 -1.4392764557 -0.48904633
| 10> O 0.4107752064 0.5641939558 0.3247997742
| 11> C 1.6887230125 0.0668312962 0.7544969754
| 12> C 2.721113788 0.1812849064 -0.3566506566
| 13> H -2.0908622874 1.1013157334 1.3884589803
| 14> H -3.5392414026 0.9901158513 0.3799773817
| 15> H -2.8003953161 -0.4777878568 1.0284685467
| 16> H -1.508466331 1.4063308625 -1.0076668968
| 17> H -2.2290226195 -0.1832914639 -1.3897302697
| 18> H 1.9545495281 0.6905180945 1.6086405798
| 19> H 1.5712848448 -0.9756998076 1.0656090203
| 20> H 2.7880003295 1.2098948236 -0.7006220909
| 21> H 3.6889968566 -0.1359431136 0.0174790069
| 22> H 2.4399509095 -0.4547305692 -1.1930659016
| 23> *
| 24>
| 25>                          ****END OF INPUT****

CARTESIAN COORDINATES (ANGSTROEM)
---------------------------------
  C     -2.596222    0.512277    0.627629
  C     -1.724482    0.408863   -0.627229
  C     -0.424563   -0.269663   -0.279952
  O     -0.176273   -1.439276   -0.489046
  O      0.410775    0.564194    0.324800
  C      1.688723    0.066831    0.754497
  C      2.721114    0.181285   -0.356651
  H     -2.090862    1.101316    1.388459
  H     -3.539241    0.990116    0.379977
  H     -2.800395   -0.477788    1.028469
  H     -1.508466    1.406331   -1.007667
  H     -2.229023   -0.183291   -1.389730
  H      1.954550    0.690518    1.608641
  H      1.571285   -0.975700    1.065609
  H      2.788000    1.209895   -0.700622
  H      3.688997   -0.135943    0.017479
  H      2.439951   -0.454731   -1.193066

 Total Charge           Charge          ....    0
 Multiplicity           Mult            ....    1
 Number of Electrons    NEL             ....   56
 Basis Dimension        Dim             ....  118

ORBITAL ENERGIES
----------------

  NO   OCC          E(Eh)            E(eV)
   0   2.0000     -18.796931      -511.4905
   1   2.0000     -18.729801      -509.6638
   2   2.0000     -10.003843      -272.2184
   3   2.0000      -9.946184      -270.6494
   4   2.0000      -9.898238      -269.3447
   5   2.0000      -9.887649      -269.0566
   6   2.0000      -9.886469      -269.0245
   7   2.0000      -1.003675       -27.3114
   8   2.0000      -0.907072       -24.6827
   9   2.0000      -0.721716       -19.6389
  10   2.0000      -0.685942       -18.6654
  11   2.0000      -0.605951       -16.4888
  12   2.0000      -0.563875       -15.3438
  13   2.0000      -0.496787       -13.5183
  14   2.0000      -0.452430       -12.3112
  15   2.0000      -0.426214       -11.5979
  16   2.0000      -0.416767       -11.3408
  17   2.0000      -0.397743       -10.8231
  18   2.0000      -0.383697       -10.4409
  19   2.0000      -0.369502       -10.0547
  20   2.0000      -0.348969        -9.4959
  21   2.0000      -0.341318        -9.2877
  22   2.0000      -0.324588        -8.8325
  23   2.0000      -0.314514        -8.5584
  24   2.0000      -0.313717        -8.5367
  25   2.0000      -0.289527        -7.8784
  26   2.0000      -0.254410        -6.9228
  27   2.0000      -0.214369        -5.8333
  28   0.0000      -0.018922        -0.5149
  29   0.0000       0.045485         1.2377
  30   0.0000       0.056884         1.5479
  31   0.0000       0.080972         2.2034
  32   0.0000       0.087922         2.3925

MULLIKEN ATOMIC CHARGES
-----------------------
   0 C :   -0.304783
   1 C :   -0.128921
   2 C :    0.097635
   3 O :   -0.212275
   4 O :   -0.243845
   5 C :   -0.012391
   6 C :   -0.302887
   7 H :    0.114041
   8 H :    0.115560
   9 H :    0.115503
  10 H :    0.101777
  11 H :    0.103519
  12 H :    0.100033
  13 H :    0.106932
  14 H :    0.112371
  15 H :    0.111573
  16 H :    0.126158
Sum of atomic charges:   -0.0000000

LOEWDIN ATOMIC CHARGES
----------------------
   0 C :   -0.331295
   1 C :   -0.249116
   2 C :    0.036454
   3 O :   -0.173497
   4 O :   -0.069651
   5 C :   -0.113138
   6 C :   -0.355789
   7 H :    0.122637
   8 H :    0.123671
   9 H :    0.124827
  10 H :    0.132103
  11 H :    0.133598
  12 H :    0.116120
  13 H :    0.118913
  14 H :    0.123916
  15 H :    0.129836
  16 H :    0.130412

  Mayer bond orders larger than 0.100000
B(  0-C ,  1-C ) :   1.1394 B(  0-C ,  7-H ) :   0.9539 B(  0-C ,  8-H ) :   0.9523
B(  0-C ,  9-H ) :   0.9536 B(  1-C ,  2-C ) :   1.0280 B(  1-C , 10-H ) :   0.9061
B(  1-C , 11-H ) :   0.9126 B(  2-C ,  3-O ) :   2.0467 B(  2-C ,  4-O ) :   1.1976
B(  4-O ,  5-C ) :   0.9222 B(  5-C ,  6-C ) :   1.1741 B(  5-C , 12-H ) :   0.9369
B(  5-C , 13-H ) :   0.9125 B(  6-C , 14-H ) :   0.9493 B(  6-C , 15-H ) :   0.9446
B(  6-C , 16-H ) :   0.9468

Dispersion correction           -0.012028558
FINAL SINGLE POINT ENERGY      -346.244283440743

DIPOLE MOMENT
-------------

Method             : SCF
Type of density    : Electron Density
Multiplicity       :   1
Irrep              :   0
Energy             :  -346.3088434597010519 Eh
Relativity type    :
Basis              : AO
                                X                 Y                 Z
Electronic contribution:     -0.100940245      -2.291215238      -0.863140571
Nuclear contribution   :      0.261279961       2.961693795       1.121065445
                        -----------------------------------------
Total Dipole Moment    :      0.160339715       0.670478557       0.257924874
                        -----------------------------------------
Magnitude (a.u.)       :      0.736054047
Magnitude (Debye)      :      1.870900705

Rotational constants in cm-1:             0.192022             0.049822             0.045146
Rotational constants in MHz :          5756.662563          1493.629560          1353.452164

                             ****ORCA TERMINATED NORMALLY****
TOTAL RUN TIME: 0 days 0 hours 0 minutes 8 seconds 772 msec
