                         Program Version 6.0.0  -   RELEASE  -
|  1> ! pbe def2-sv(p) def2/J RI DEFGRID1 loosescf d4 GCP(DFT/SV(P)) printgap
|  2> %output
|  3>     printlevel normal
|  4> end
|  5> * xyz 0 1
|  6> C 1.4833429573 0.1548363425 -1.1744000331
|  7> C 1.1160530159 -0.2329381749 0.2537919794
|  8> H 0.9954067843 -1.3257593318 0.3082973705
|  9> C -0.1474006563 0.4538913739 0.7946939054
| 10> C -1.5047738557 0.0949852587 0.1640812147
| 11> C -1.7794591491 0.8307654938 -1.1465086593
| 12> C -1.6867179528 -1.4107956158 -0.0165243062
| 13> O 2.2339099878 0.132884083 1.0589404791
| 14> H 0.8381143778 -0.3426770934 -1.889769708
| 15> H 1.4138611936 1.23119985 -1.3030179525
| 16> H 2.5110482419 -0.1482451956 -1.3605506269
| 17> H -0.2077853929 0.2039081961 1.858764127
| 18> H 0.0030143987 1.5339346085 0.7243903686
| 19> H -2.2609599656 0.436111102 0.8823999802
| 20> H -1.622871025 1.8998189979 -1.0252123035
| 21> H -2.8124053876 0.6698760935 -1.4477299727
| 22> H -1.1369667495 0.476855276 -1.9457633014
| 23> H -1.0263920435 -1.7919695117 -0.7911516698
| 24> H -1.4774388518 -1.9383676192 0.9110943824
| 25> H -2.7113847859 -1.6276885205 -0.309121323
| 26> H 2.0517159866 -0.0844181498 1.9826201713
| 27> *
| 28>
| 29>                          ****END OF INPUT****

CARTESIAN COORDINATES (ANGSTROEM)
---------------------------------
  C      1.483343    0.154836   -1.174400
  C      1.116053   -0.232938    0.253792
  H      0.995407   -1.325759    0.308297
  C     -0.147401    0.453891    0.794694
  C     -1.504774    0.094985    0.164081
  C     -1.779459    0.830765   -1.146509
  C     -1.686718   -1.410796   -0.016524
  O      2.233910    0.132884    1.058940
  H      0.838114   -0.342677   -1.889770
  H      1.413861    1.231200   -1.303018
  H      2.511048   -0.148245   -1.360551
  H     -0.207785    0.203908    1.858764
  H      0.003014    1.533935    0.724390
  H     -2.260960    0.436111    0.882400
  H     -1.622871    1.899819   -1.025212
  H     -2.812405    0.669876   -1.447730
  H     -1.136967    0.476855   -1.945763
  H     -1.026392   -1.791970   -0.791152
  H     -1.477439   -1.938368    0.911094
  H     -2.711385   -1.627689   -0.309121
  H      2.051716   -0.084418    1.982620

 Total Charge           Charge          ....    0
 Multiplicity           Mult            ....    1
 Number of Electrons    NEL             ....   58
 Basis Dimension        Dim             ....  126

ORBITAL ENERGIES
----------------

  NO   OCC          E(Eh)            E(eV)
   0   2.0000     -18.733319      -509.7595
   1   2.0000      -9.933966      -270.3169
   2   2.0000      -9.897280      -269.3187
   3   2.0000      -9.881386      -268.8862
   4   2.0000      -9.875149      -268.7165
   5   2.0000      -9.871834      -268.6263
   6   2.0000      -9.869180      -268.5540
   7   2.0000      -0.910392       -24.7730
   8   2.0000      -0.732156       -19.9230
   9   2.0000      -0.671051       -18.2602
  10   2.0000      -0.615396       -16.7458
  11   2.0000      -0.611805       -16.6481
  12   2.0000      -0.531310       -14.4577
  13   2.0000      -0.492087       -13.3904
  14   2.0000      -0.458147       -12.4668
  15   2.0000      -0.418195       -11.3797
  16   2.0000      -0.399143       -10.8612
  17   2.0000      -0.387251       -10.5376
  18   2.0000      -0.373437       -10.1617
  19   2.0000      -0.346784        -9.4365
  20   2.0000      -0.345243        -9.3945
  21   2.0000      -0.332077        -9.0363
  22   2.0000      -0.318616        -8.6700
  23   2.0000      -0.313406        -8.5282
  24   2.0000      -0.294161        -8.0045
  25   2.0000      -0.286241        -7.7890
  26   2.0000      -0.278883        -7.5888
  27   2.0000      -0.262230        -7.1356
  28   2.0000      -0.205838        -5.6011
  29   0.0000       0.022220         0.6046
  30   0.0000       0.044576         1.2130
  31   0.0000       0.058583         1.5941
  32   0.0000       0.070052         1.9062
  33   0.0000       0.087570         2.3829

MULLIKEN ATOMIC CHARGES
-----------------------
   0 C :   -0.242504
   1 C :    0.006306
   2 H :    0.061072
   3 C :   -0.139739
   4 C :   -0.162980
   5 C :   -0.248058
   6 C :   -0.258939
   7 O :   -0.432056
   8 H :    0.112319
   9 H :    0.096406
  10 H :    0.108447
  11 H :    0.061099
  12 H :    0.081435
  13 H :    0.069096
  14 H :    0.096983
  15 H :    0.097356
  16 H :    0.098731
  17 H :    0.107261
  18 H :    0.097721
  19 H :    0.099247
  20 H :    0.290795
Sum of atomic charges:   -0.0000000

LOEWDIN ATOMIC CHARGES
----------------------
   0 C :   -0.341296
   1 C :   -0.054411
   2 H :    0.095565
   3 C :   -0.232756
   4 C :   -0.156531
   5 C :   -0.331864
   6 C :   -0.332669
   7 O :   -0.337889
   8 H :    0.119520
   9 H :    0.121304
  10 H :    0.127084
  11 H :    0.108359
  12 H :    0.117402
  13 H :    0.117130
  14 H :    0.117391
  15 H :    0.117808
  16 H :    0.116211
  17 H :    0.116475
  18 H :    0.116300
  19 H :    0.118978
  20 H :    0.277888

  Mayer bond orders larger than 0.100000
B(  0-C ,  1-C ) :   1.1272 B(  0-C ,  8-H ) :   0.9322 B(  0-C ,  9-H ) :   0.9409
B(  0-C , 10-H ) :   0.9375 B(  1-C ,  2-H ) :   0.9034 B(  1-C ,  3-C ) :   1.0845
B(  1-C ,  7-O ) :   1.0374 B(  3-C ,  4-C ) :   1.0610 B(  3-C , 11-H ) :   0.9092
B(  3-C , 12-H ) :   0.9078 B(  4-C ,  5-C ) :   1.1213 B(  4-C ,  6-C ) :   1.1114
B(  4-C , 13-H ) :   0.8948 B(  5-C , 14-H ) :   0.9488 B(  5-C , 15-H ) :   0.9489
B(  5-C , 16-H ) :   0.9405 B(  6-C , 17-H ) :   0.9395 B(  6-C , 18-H ) :   0.9505
B(  6-C , 19-H ) :   0.9480 B(  7-O , 20-H ) :   0.8526

Dispersion correction           -0.016918591
FINAL SINGLE POINT ENERGY      -311.514575038379

DIPOLE MOMENT
-------------

Method             : SCF
Type of density    : Electron Density
Multiplicity       :   1
Irrep              :   0
Energy             :  -311.5937494622994564 Eh
Relativity type    :
Basis              : AO
                                X                 Y                 Z
Electronic contribution:      4.557982393       0.522957332       3.435538215
Nuclear contribution   :     -5.073311780      -0.755521127      -3.178497270
                        -----------------------------------------
Total Dipole Moment    :     -0.515329387      -0.232563794       0.257040945
                        -----------------------------------------
Magnitude (a.u.)       :      0.621063880
Magnitude (Debye)      :      1.578618927

Rotational constants in cm-1:             0.131036             0.052337             0.047548
Rotational constants in MHz :          3928.367622          1569.009876          1425.458135

                             ****ORCA TERMINATED NORMALLY****
TOTAL RUN TIME: 0 days 0 hours 0 minutes 9 seconds 566 msec
