                         Program Version 6.0.0  -   RELEASE  -
|  1> ! r2scan-3c def2/J RI DEFGRID2 scfconv6 printgap
|  2> %output
|  3>     printlevel normal
|  4> end
|  5> * xyz 0 1
|  6> C -2.1698618227 1.0857466266 0.5505938109
|  7> C -2.0857626314 -0.2926708883 -0.0936872058
|  8> C -0.8275592571 -0.4361979123 -0.9559632341
|  9> C 0.4143041068 -0.4154015839 -0.1036672914
| 10> O 0.6100108026 -1.1202578131 0.8642392762
| 11> O 1.2930792534 0.4825625495 -0.5371983978
| 12> C 2.5295553332 0.6021734672 0.1710621168
| 13> H -1.3194922257 1.2494602992 1.2099891734
| 14> H -2.1708785125 1.8636145647 -0.2091643723
| 15> H -3.0794355432 1.1741004302 1.138540724
| 16> H -2.9624984329 -0.4587631038 -0.719963225
| 17> H -2.0658601001 -1.0603154328 0.6821887227
| 18> H -0.7596212526 0.366174181 -1.689543874
| 19> H -0.8507262139 -1.3970684557 -1.4731350942
| 20> H 3.0004971301 1.5034869676 -0.2083226462
| 21> H 3.1515858728 -0.2726737949 -0.0207732661
| 22> H 2.3408074704 0.6761602976 1.2427903593
| 23> *
| 24>
| 25>                          ****END OF INPUT****

CARTESIAN COORDINATES (ANGSTROEM)
---------------------------------
  C     -2.169862    1.085747    0.550594
  C     -2.085763   -0.292671   -0.093687
  C     -0.827559   -0.436198   -0.955963
  C      0.414304   -0.415402   -0.103667
  O      0.610011   -1.120258    0.864239
  O      1.293079    0.482563   -0.537198
  C      2.529555    0.602173    0.171062
  H     -1.319492    1.249460    1.209989
  H     -2.170879    1.863615   -0.209164
  H     -3.079436    1.174100    1.138541
  H     -2.962498   -0.458763   -0.719963
  H     -2.065860   -1.060315    0.682189
  H     -0.759621    0.366174   -1.689544
  H     -0.850726   -1.397068   -1.473135
  H      3.000497    1.503487   -0.208323
  H      3.151586   -0.272674   -0.020773
  H      2.340807    0.676160    1.242790

 Total Charge           Charge          ....    0
 Multiplicity           Mult            ....    1
 Number of Electrons    NEL             ....   56
 Basis Dimension        Dim             ....  193

ORBITAL ENERGIES
----------------

  NO   OCC          E(Eh)            E(eV)
   0   2.0000     -19.000659      -517.0342
   1   2.0000     -18.929450      -515.0965
   2   2.0000     -10.152546      -276.2648
   3   2.0000     -10.087093      -274.4838
   4   2.0000     -10.041939      -273.2551
   5   2.0000     -10.034501      -273.0526
   6   2.0000     -10.019900      -272.6554
   7   2.0000      -1.073864       -29.2213
   8   2.0000      -0.976743       -26.5785
   9   2.0000      -0.771935       -21.0054
  10   2.0000      -0.711494       -19.3607
  11   2.0000      -0.660833       -17.9822
  12   2.0000      -0.574574       -15.6349
  13   2.0000      -0.527336       -14.3495
  14   2.0000      -0.472572       -12.8593
  15   2.0000      -0.458868       -12.4864
  16   2.0000      -0.444477       -12.0948
  17   2.0000      -0.419883       -11.4256
  18   2.0000      -0.413041       -11.2394
  19   2.0000      -0.376393       -10.2422
  20   2.0000      -0.371769       -10.1163
  21   2.0000      -0.357956        -9.7405
  22   2.0000      -0.328470        -8.9381
  23   2.0000      -0.311440        -8.4747
  24   2.0000      -0.310757        -8.4561
  25   2.0000      -0.309236        -8.4147
  26   2.0000      -0.275094        -7.4857
  27   2.0000      -0.237755        -6.4697
  28   0.0000      -0.017076        -0.4647
  29   0.0000       0.065229         1.7750
  30   0.0000       0.090715         2.4685
  31   0.0000       0.111681         3.0390
  32   0.0000       0.126167         3.4332

MULLIKEN ATOMIC CHARGES
-----------------------
   0 C :   -0.492551
   1 C :   -0.215496
   2 C :   -0.293950
   3 C :    0.338499
   4 O :   -0.419795
   5 O :   -0.181479
   6 C :   -0.296215
   7 H :    0.155763
   8 H :    0.145953
   9 H :    0.148724
  10 H :    0.144137
  11 H :    0.161511
  12 H :    0.163975
  13 H :    0.166075
  14 H :    0.150512
  15 H :    0.156448
  16 H :    0.167888
Sum of atomic charges:    0.0000000

LOEWDIN ATOMIC CHARGES
----------------------
   0 C :   -0.416534
   1 C :   -0.293454
   2 C :   -0.232410
   3 C :    0.349982
   4 O :   -0.428866
   5 O :   -0.603706
   6 C :   -0.045566
   7 H :    0.155643
   8 H :    0.150510
   9 H :    0.152993
  10 H :    0.152969
  11 H :    0.167810
  12 H :    0.177423
  13 H :    0.182061
  14 H :    0.176174
  15 H :    0.174458
  16 H :    0.180514

  Mayer bond orders larger than 0.100000
B(  0-C ,  1-C ) :   0.9063 B(  0-C ,  7-H ) :   0.9733 B(  0-C ,  8-H ) :   0.9818
B(  0-C ,  9-H ) :   0.9687 B(  1-C ,  2-C ) :   0.8881 B(  1-C , 10-H ) :   0.9654
B(  1-C , 11-H ) :   0.9664 B(  2-C ,  3-C ) :   0.9447 B(  2-C , 12-H ) :   1.0030
B(  2-C , 13-H ) :   0.9339 B(  3-C ,  4-O ) :   1.8182 B(  3-C ,  5-O ) :   1.0545
B(  5-O ,  6-C ) :   0.8515 B(  6-C , 14-H ) :   0.9692 B(  6-C , 15-H ) :   0.9607
B(  6-C , 16-H ) :   0.9638

Dispersion correction           -0.004118025
FINAL SINGLE POINT ENERGY      -346.932228603715

DIPOLE MOMENT
-------------

Method             : SCF
Type of density    : Electron Density
Multiplicity       :   1
Irrep              :   0
Energy             :  -346.9387836657887192 Eh
Relativity type    :
Basis              : AO
                                X                 Y                 Z
Electronic contribution:      4.466525500      -2.880212140      -0.448468501
Nuclear contribution   :     -4.395826203       3.409391786      -0.039614266
                        -----------------------------------------
Total Dipole Moment    :      0.070699297       0.529179645      -0.488082768
                        -----------------------------------------
Magnitude (a.u.)       :      0.723363170
Magnitude (Debye)      :      1.838643059

Rotational constants in cm-1:             0.164174             0.051718             0.048961
Rotational constants in MHz :          4921.819820          1550.474167          1467.812035

                             ****ORCA TERMINATED NORMALLY****
TOTAL RUN TIME: 0 days 0 hours 0 minutes 26 seconds 262 msec
