                         Program Version 6.0.0  -   RELEASE  -
|  1> ! r2scan-3c def2/J RI DEFGRID2 scfconv6 printgap
|  2> %output
|  3>     printlevel normal
|  4> end
|  5> %cpcm
|  6>     smd true
|  7>     smdsolvent "water"
|  8> end
|  9> * xyz 0 1
| 10> C -2.1698618227 1.0857466266 0.5505938109
| 11> C -2.0857626314 -0.2926708883 -0.0936872058
| 12> C -0.8275592571 -0.4361979123 -0.9559632341
| 13> C 0.4143041068 -0.4154015839 -0.1036672914
| 14> O 0.6100108026 -1.1202578131 0.8642392762
| 15> O 1.2930792534 0.4825625495 -0.5371983978
| 16> C 2.5295553332 0.6021734672 0.1710621168
| 17> H -1.3194922257 1.2494602992 1.2099891734
| 18> H -2.1708785125 1.8636145647 -0.2091643723
| 19> H -3.0794355432 1.1741004302 1.138540724
| 20> H -2.9624984329 -0.4587631038 -0.719963225
| 21> H -2.0658601001 -1.0603154328 0.6821887227
| 22> H -0.7596212526 0.366174181 -1.689543874
| 23> H -0.8507262139 -1.3970684557 -1.4731350942
| 24> H 3.0004971301 1.5034869676 -0.2083226462
| 25> H 3.1515858728 -0.2726737949 -0.0207732661
| 26> H 2.3408074704 0.6761602976 1.2427903593
| 27> *
| 28>
| 29>                          ****END OF INPUT****

CARTESIAN COORDINATES (ANGSTROEM)
---------------------------------
  C     -2.169862    1.085747    0.550594
  C     -2.085763   -0.292671   -0.093687
  C     -0.827559   -0.436198   -0.955963
  C      0.414304   -0.415402   -0.103667
  O      0.610011   -1.120258    0.864239
  O      1.293079    0.482563   -0.537198
  C      2.529555    0.602173    0.171062
  H     -1.319492    1.249460    1.209989
  H     -2.170879    1.863615   -0.209164
  H     -3.079436    1.174100    1.138541
  H     -2.962498   -0.458763   -0.719963
  H     -2.065860   -1.060315    0.682189
  H     -0.759621    0.366174   -1.689544
  H     -0.850726   -1.397068   -1.473135
  H      3.000497    1.503487   -0.208323
  H      3.151586   -0.272674   -0.020773
  H      2.340807    0.676160    1.242790

 Total Charge           Charge          ....    0
 Multiplicity           Mult            ....    1
 Number of Electrons    NEL             ....   56
 Basis Dimension        Dim             ....  193

ORBITAL ENERGIES
----------------

  NO   OCC          E(Eh)            E(eV)
   0   2.0000     -19.005464      -517.1650
   1   2.0000     -18.944682      -515.5110
   2   2.0000     -10.162521      -276.5363
   3   2.0000     -10.076328      -274.1908
   4   2.0000     -10.035711      -273.0856
   5   2.0000     -10.028046      -272.8770
   6   2.0000     -10.011520      -272.4273
   7   2.0000      -1.080315       -29.3969
   8   2.0000      -0.989688       -26.9308
   9   2.0000      -0.767163       -20.8756
  10   2.0000      -0.706711       -19.2306
  11   2.0000      -0.654054       -17.7977
  12   2.0000      -0.568353       -15.4657
  13   2.0000      -0.525712       -14.3054
  14   2.0000      -0.473134       -12.8746
  15   2.0000      -0.460022       -12.5178
  16   2.0000      -0.451133       -12.2760
  17   2.0000      -0.414512       -11.2795
  18   2.0000      -0.411327       -11.1928
  19   2.0000      -0.371643       -10.1129
  20   2.0000      -0.365825        -9.9546
  21   2.0000      -0.358509        -9.7555
  22   2.0000      -0.327677        -8.9165
  23   2.0000      -0.305969        -8.3258
  24   2.0000      -0.305510        -8.3134
  25   2.0000      -0.303452        -8.2573
  26   2.0000      -0.282199        -7.6790
  27   2.0000      -0.253745        -6.9048
  28   0.0000      -0.024292        -0.6610
  29   0.0000       0.069947         1.9033
  30   0.0000       0.098335         2.6758
  31   0.0000       0.122806         3.3417
  32   0.0000       0.133501         3.6328

MULLIKEN ATOMIC CHARGES
-----------------------
   0 C :   -0.528416
   1 C :   -0.224490
   2 C :   -0.310034
   3 C :    0.382675
   4 O :   -0.505339
   5 O :   -0.198587
   6 C :   -0.329612
   7 H :    0.161987
   8 H :    0.161898
   9 H :    0.161384
  10 H :    0.163348
  11 H :    0.154713
  12 H :    0.179607
  13 H :    0.195332
  14 H :    0.178182
  15 H :    0.179550
  16 H :    0.177802
Sum of atomic charges:    0.0000000

LOEWDIN ATOMIC CHARGES
----------------------
   0 C :   -0.423735
   1 C :   -0.292956
   2 C :   -0.229428
   3 C :    0.360239
   4 O :   -0.489743
   5 O :   -0.605566
   6 C :   -0.042859
   7 H :    0.156097
   8 H :    0.155768
   9 H :    0.156218
  10 H :    0.160488
  11 H :    0.163596
  12 H :    0.185028
  13 H :    0.192461
  14 H :    0.188298
  15 H :    0.181976
  16 H :    0.184118

  Mayer bond orders larger than 0.100000
B(  0-C ,  1-C ) :   0.9000 B(  0-C ,  7-H ) :   0.9710 B(  0-C ,  8-H ) :   0.9781
B(  0-C ,  9-H ) :   0.9658 B(  1-C ,  2-C ) :   0.8738 B(  1-C , 10-H ) :   0.9613
B(  1-C , 11-H ) :   0.9713 B(  2-C ,  3-C ) :   0.9479 B(  2-C , 12-H ) :   0.9927
B(  2-C , 13-H ) :   0.9266 B(  3-C ,  4-O ) :   1.7522 B(  3-C ,  5-O ) :   1.0786
B(  5-O ,  6-C ) :   0.8327 B(  6-C , 14-H ) :   0.9594 B(  6-C , 15-H ) :   0.9544
B(  6-C , 16-H ) :   0.9590

Dispersion correction           -0.004118025
FINAL SINGLE POINT ENERGY      -346.937308448635

DIPOLE MOMENT
-------------

Method             : SCF
Type of density    : Electron Density
Multiplicity       :   1
Irrep              :   0
Energy             :  -346.9438635107090931 Eh
Relativity type    :
Basis              : AO
                                X                 Y                 Z
Electronic contribution:      4.471217596      -2.660314677      -0.720937254
Nuclear contribution   :     -4.395826203       3.409391786      -0.039614266
                        -----------------------------------------
Total Dipole Moment    :      0.075391393       0.749077109      -0.760551520
                        -----------------------------------------
Magnitude (a.u.)       :      1.070158396
Magnitude (Debye)      :      2.720126470

Rotational constants in cm-1:             0.164174             0.051718             0.048961
Rotational constants in MHz :          4921.819820          1550.474167          1467.812035

                             ****ORCA TERMINATED NORMALLY****
TOTAL RUN TIME: 0 days 0 hours 0 minutes 30 seconds 23 msec
