                         Program Version 6.0.0  -   RELEASE  -
|  1> ! pbe def2-sv(p) def2/J RI DEFGRID1 loosescf d4 GCP(DFT/SV(P)) printgap
|  2> %output
|  3>     printlevel normal
|  4> end
|  5> * xyz 0 1
|  6> C 1.5775461316 -0.3470596739 -1.1174628153
|  7> C 1.3133936772 -0.1138524409 0.3692684948
|  8> H 2.1165702713 -0.6212238291 0.9363445271
|  9> C -0.0001554401 -0.7087913872 0.9033387748
| 10> C -1.3422711641 -0.3468536107 0.2416341431
| 11> C -1.5115425746 1.1532031771 0.0187112022
| 12> C -1.6181520897 -1.1223370537 -1.0470618193
| 13> O 1.3492395332 1.2665814626 0.697077766
| 14> H 1.4090604193 -1.3903062836 -1.3648659365
| 15> H 0.9276000563 0.277203369 -1.7234002046
| 16> H 2.6103143163 -0.0981929167 -1.3551808833
| 17> H 0.10523047 -1.795524551 0.8910838248
| 18> H -0.0544438403 -0.3936661717 1.9486675599
| 19> H -2.106851792 -0.6591911868 0.9652501711
| 20> H -2.5310599564 1.3722696404 -0.2921062024
| 21> H -0.8333457458 1.5132886258 -0.7490713135
| 22> H -1.298397733 1.6990330101 0.9339490748
| 23> H -1.4485231567 -2.1861642494 -0.8974607117
| 24> H -2.6564140151 -0.9818158115 -1.3405732367
| 25> H -0.9911983873 -0.782761769 -1.8643634669
| 26> H 2.1763499801 1.6461105813 0.3726708579
| 27> *
| 28>
| 29>                          ****END OF INPUT****

CARTESIAN COORDINATES (ANGSTROEM)
---------------------------------
  C      1.577546   -0.347060   -1.117463
  C      1.313394   -0.113852    0.369268
  H      2.116570   -0.621224    0.936345
  C     -0.000155   -0.708791    0.903339
  C     -1.342271   -0.346854    0.241634
  C     -1.511543    1.153203    0.018711
  C     -1.618152   -1.122337   -1.047062
  O      1.349240    1.266581    0.697078
  H      1.409060   -1.390306   -1.364866
  H      0.927600    0.277203   -1.723400
  H      2.610314   -0.098193   -1.355181
  H      0.105230   -1.795525    0.891084
  H     -0.054444   -0.393666    1.948668
  H     -2.106852   -0.659191    0.965250
  H     -2.531060    1.372270   -0.292106
  H     -0.833346    1.513289   -0.749071
  H     -1.298398    1.699033    0.933949
  H     -1.448523   -2.186164   -0.897461
  H     -2.656414   -0.981816   -1.340573
  H     -0.991198   -0.782762   -1.864363
  H      2.176350    1.646111    0.372671

 Total Charge           Charge          ....    0
 Multiplicity           Mult            ....    1
 Number of Electrons    NEL             ....   58
 Basis Dimension        Dim             ....  126

ORBITAL ENERGIES
----------------

  NO   OCC          E(Eh)            E(eV)
   0   2.0000     -18.737691      -509.8785
   1   2.0000      -9.936891      -270.3965
   2   2.0000      -9.887691      -269.0577
   3   2.0000      -9.877146      -268.7708
   4   2.0000      -9.876448      -268.7518
   5   2.0000      -9.866233      -268.4739
   6   2.0000      -9.857443      -268.2347
   7   2.0000      -0.915953       -24.9244
   8   2.0000      -0.723608       -19.6904
   9   2.0000      -0.671822       -18.2812
  10   2.0000      -0.616384       -16.7727
  11   2.0000      -0.599780       -16.3209
  12   2.0000      -0.536019       -14.5858
  13   2.0000      -0.477580       -12.9956
  14   2.0000      -0.457206       -12.4412
  15   2.0000      -0.417749       -11.3675
  16   2.0000      -0.386001       -10.5036
  17   2.0000      -0.376784       -10.2528
  18   2.0000      -0.370733       -10.0882
  19   2.0000      -0.366833        -9.9820
  20   2.0000      -0.339225        -9.2308
  21   2.0000      -0.328720        -8.9449
  22   2.0000      -0.316549        -8.6137
  23   2.0000      -0.310499        -8.4491
  24   2.0000      -0.289140        -7.8679
  25   2.0000      -0.277886        -7.5617
  26   2.0000      -0.271456        -7.3867
  27   2.0000      -0.253681        -6.9030
  28   2.0000      -0.208090        -5.6624
  29   0.0000       0.018785         0.5112
  30   0.0000       0.051376         1.3980
  31   0.0000       0.066461         1.8085
  32   0.0000       0.078996         2.1496
  33   0.0000       0.082518         2.2454

MULLIKEN ATOMIC CHARGES
-----------------------
   0 C :   -0.275512
   1 C :    0.015645
   2 H :    0.054613
   3 C :   -0.114249
   4 C :   -0.186805
   5 C :   -0.219211
   6 C :   -0.249011
   7 O :   -0.425709
   8 H :    0.102339
   9 H :    0.122630
  10 H :    0.091221
  11 H :    0.076519
  12 H :    0.085737
  13 H :    0.066885
  14 H :    0.086003
  15 H :    0.094928
  16 H :    0.100900
  17 H :    0.090088
  18 H :    0.096160
  19 H :    0.094556
  20 H :    0.292273
Sum of atomic charges:    0.0000000

LOEWDIN ATOMIC CHARGES
----------------------
   0 C :   -0.357027
   1 C :   -0.055140
   2 H :    0.095632
   3 C :   -0.222058
   4 C :   -0.155068
   5 C :   -0.331302
   6 C :   -0.333807
   7 O :   -0.329188
   8 H :    0.125427
   9 H :    0.121636
  10 H :    0.114068
  11 H :    0.117092
  12 H :    0.123123
  13 H :    0.115973
  14 H :    0.110889
  15 H :    0.112965
  16 H :    0.120190
  17 H :    0.113450
  18 H :    0.117411
  19 H :    0.114736
  20 H :    0.280998

  Mayer bond orders larger than 0.100000
B(  0-C ,  1-C ) :   1.1227 B(  0-C ,  8-H ) :   0.9340 B(  0-C ,  9-H ) :   0.9288
B(  0-C , 10-H ) :   0.9397 B(  1-C ,  2-H ) :   0.9024 B(  1-C ,  3-C ) :   1.0915
B(  1-C ,  7-O ) :   1.0378 B(  3-C ,  4-C ) :   1.0957 B(  3-C , 11-H ) :   0.9131
B(  3-C , 12-H ) :   0.9039 B(  4-C ,  5-C ) :   1.1253 B(  4-C ,  6-C ) :   1.1173
B(  4-C , 13-H ) :   0.8979 B(  5-C , 14-H ) :   0.9461 B(  5-C , 15-H ) :   0.9366
B(  5-C , 16-H ) :   0.9468 B(  6-C , 17-H ) :   0.9492 B(  6-C , 18-H ) :   0.9488
B(  6-C , 19-H ) :   0.9414 B(  7-O , 20-H ) :   0.8521

Dispersion correction           -0.017399938
FINAL SINGLE POINT ENERGY      -311.512732369405

DIPOLE MOMENT
-------------

Method             : SCF
Type of density    : Electron Density
Multiplicity       :   1
Irrep              :   0
Energy             :  -311.5921265402353129 Eh
Relativity type    :
Basis              : AO
                                X                 Y                 Z
Electronic contribution:      2.885454118       2.042894063       3.067825161
Nuclear contribution   :     -2.395849741      -2.233678784      -3.309868101
                        -----------------------------------------
Total Dipole Moment    :      0.489604377      -0.190784721      -0.242042940
                        -----------------------------------------
Magnitude (a.u.)       :      0.578529205
Magnitude (Debye)      :      1.470504376

Rotational constants in cm-1:             0.113817             0.064378             0.054272
Rotational constants in MHz :          3412.149788          1930.004592          1627.045352

                             ****ORCA TERMINATED NORMALLY****
TOTAL RUN TIME: 0 days 0 hours 0 minutes 9 seconds 522 msec
