                         Program Version 6.0.0  -   RELEASE  -
|  1> ! r2scan-3c def2/J RI DEFGRID2 scfconv6 printgap
|  2> %output
|  3>     printlevel normal
|  4> end
|  5> * xyz 0 1
|  6> C 1.4785702831 -1.451628409 -0.0426153414
|  7> C 1.2060678162 -0.0266301566 0.4354775352
|  8> C 1.7419919445 0.9867877979 -0.5746693455
|  9> C -0.2783955007 0.2041631799 0.7520257945
| 10> C -1.2271199978 0.0455601092 -0.4372151757
| 11> O -2.5837846036 0.1818370092 -0.0588895769
| 12> H 2.5501362992 -1.623929215 -0.1093216576
| 13> H 1.0475475528 -1.6198667579 -1.0261056739
| 14> H 1.0567485673 -2.1761116063 0.6497184943
| 15> H 1.7477166592 0.1199478604 1.3777018927
| 16> H 1.5223824642 2.0026099009 -0.2549729046
| 17> H 1.3006475742 0.8265438335 -1.55493077
| 18> H 2.8202550944 0.8835466086 -0.6691542
| 19> H -0.3940237059 1.2132958698 1.1571477969
| 20> H -0.5908720505 -0.5013597746 1.525774901
| 21> H -0.9877221051 0.7729195005 -1.2230198301
| 22> H -1.1543362404 -0.9591559207 -0.8572703056
| 23> H -2.7139989268 1.055949939 0.3342618564
| 24> *
| 25>
| 26>                          ****END OF INPUT****

CARTESIAN COORDINATES (ANGSTROEM)
---------------------------------
  C      1.478570   -1.451628   -0.042615
  C      1.206068   -0.026630    0.435478
  C      1.741992    0.986788   -0.574669
  C     -0.278396    0.204163    0.752026
  C     -1.227120    0.045560   -0.437215
  O     -2.583785    0.181837   -0.058890
  H      2.550136   -1.623929   -0.109322
  H      1.047548   -1.619867   -1.026106
  H      1.056749   -2.176112    0.649718
  H      1.747717    0.119948    1.377702
  H      1.522382    2.002610   -0.254973
  H      1.300648    0.826544   -1.554931
  H      2.820255    0.883547   -0.669154
  H     -0.394024    1.213296    1.157148
  H     -0.590872   -0.501360    1.525775
  H     -0.987722    0.772920   -1.223020
  H     -1.154336   -0.959156   -0.857270
  H     -2.713999    1.055950    0.334262

 Total Charge           Charge          ....    0
 Multiplicity           Mult            ....    1
 Number of Electrons    NEL             ....   50
 Basis Dimension        Dim             ....  179

ORBITAL ENERGIES
----------------

  NO   OCC          E(Eh)            E(eV)
   0   2.0000     -18.944511      -515.5063
   1   2.0000     -10.071563      -274.0612
   2   2.0000     -10.038512      -273.1618
   3   2.0000     -10.025334      -272.8032
   4   2.0000     -10.018571      -272.6192
   5   2.0000     -10.017876      -272.6003
   6   2.0000      -0.980774       -26.6882
   7   2.0000      -0.779837       -21.2204
   8   2.0000      -0.688207       -18.7271
   9   2.0000      -0.653556       -17.7842
  10   2.0000      -0.603694       -16.4274
  11   2.0000      -0.523260       -14.2386
  12   2.0000      -0.471721       -12.8362
  13   2.0000      -0.439012       -11.9461
  14   2.0000      -0.412593       -11.2272
  15   2.0000      -0.410203       -11.1622
  16   2.0000      -0.380697       -10.3593
  17   2.0000      -0.369063       -10.0427
  18   2.0000      -0.353616        -9.6224
  19   2.0000      -0.332799        -9.0559
  20   2.0000      -0.315059        -8.5732
  21   2.0000      -0.299085        -8.1385
  22   2.0000      -0.296626        -8.0716
  23   2.0000      -0.281281        -7.6540
  24   2.0000      -0.230799        -6.2804
  25   0.0000       0.061593         1.6760
  26   0.0000       0.075009         2.0411
  27   0.0000       0.111129         3.0240
  28   0.0000       0.123150         3.3511
  29   0.0000       0.132495         3.6054

MULLIKEN ATOMIC CHARGES
-----------------------
   0 C :   -0.500501
   1 C :   -0.031920
   2 C :   -0.503538
   3 C :   -0.237453
   4 C :   -0.212288
   5 O :   -0.416338
   6 H :    0.147461
   7 H :    0.151661
   8 H :    0.149831
   9 H :    0.146425
  10 H :    0.145989
  11 H :    0.154069
  12 H :    0.146555
  13 H :    0.129156
  14 H :    0.157513
  15 H :    0.136792
  16 H :    0.145382
  17 H :    0.291205
Sum of atomic charges:   -0.0000000

LOEWDIN ATOMIC CHARGES
----------------------
   0 C :   -0.417188
   1 C :   -0.246675
   2 C :   -0.419185
   3 C :   -0.294778
   4 C :    0.001959
   5 O :   -0.619347
   6 H :    0.154201
   7 H :    0.152088
   8 H :    0.155447
   9 H :    0.156297
  10 H :    0.153570
  11 H :    0.152199
  12 H :    0.153938
  13 H :    0.154705
  14 H :    0.164796
  15 H :    0.156633
  16 H :    0.177231
  17 H :    0.264111

  Mayer bond orders larger than 0.100000
B(  0-C ,  1-C ) :   0.9179 B(  0-C ,  6-H ) :   0.9708 B(  0-C ,  7-H ) :   0.9819
B(  0-C ,  8-H ) :   0.9722 B(  1-C ,  2-C ) :   0.9125 B(  1-C ,  3-C ) :   0.9017
B(  1-C ,  9-H ) :   0.9580 B(  2-C , 10-H ) :   0.9736 B(  2-C , 11-H ) :   0.9820
B(  2-C , 12-H ) :   0.9694 B(  3-C ,  4-C ) :   0.8786 B(  3-C , 13-H ) :   0.9670
B(  3-C , 14-H ) :   0.9718 B(  4-C ,  5-O ) :   0.9469 B(  4-C , 15-H ) :   0.9803
B(  4-C , 16-H ) :   0.9741 B(  5-O , 17-H ) :   0.8968

Dispersion correction           -0.004388176
FINAL SINGLE POINT ENERGY      -272.896780546918

DIPOLE MOMENT
-------------

Method             : SCF
Type of density    : Electron Density
Multiplicity       :   1
Irrep              :   0
Energy             :  -272.9022913375297321 Eh
Relativity type    :
Basis              : AO
                                X                 Y                 Z
Electronic contribution:     -5.253667596       0.414406235       0.766406755
Nuclear contribution   :      5.782474047      -0.002564331      -0.610840170
                        -----------------------------------------
Total Dipole Moment    :      0.528806451       0.411841904       0.155566586
                        -----------------------------------------
Magnitude (a.u.)       :      0.688077742
Magnitude (Debye)      :      1.748954627

Rotational constants in cm-1:             0.200609             0.062744             0.056291
Rotational constants in MHz :          6014.094468          1881.028378          1687.549407

                             ****ORCA TERMINATED NORMALLY****
TOTAL RUN TIME: 0 days 0 hours 0 minutes 23 seconds 728 msec
