                         Program Version 6.0.0  -   RELEASE  -
|  1> ! r2scan-3c def2/J RI DEFGRID2 scfconv6 printgap
|  2> %output
|  3>     printlevel normal
|  4> end
|  5> %cpcm
|  6>     smd true
|  7>     smdsolvent "water"
|  8> end
|  9> * xyz 0 1
| 10> C 1.4785702831 -1.451628409 -0.0426153414
| 11> C 1.2060678162 -0.0266301566 0.4354775352
| 12> C 1.7419919445 0.9867877979 -0.5746693455
| 13> C -0.2783955007 0.2041631799 0.7520257945
| 14> C -1.2271199978 0.0455601092 -0.4372151757
| 15> O -2.5837846036 0.1818370092 -0.0588895769
| 16> H 2.5501362992 -1.623929215 -0.1093216576
| 17> H 1.0475475528 -1.6198667579 -1.0261056739
| 18> H 1.0567485673 -2.1761116063 0.6497184943
| 19> H 1.7477166592 0.1199478604 1.3777018927
| 20> H 1.5223824642 2.0026099009 -0.2549729046
| 21> H 1.3006475742 0.8265438335 -1.55493077
| 22> H 2.8202550944 0.8835466086 -0.6691542
| 23> H -0.3940237059 1.2132958698 1.1571477969
| 24> H -0.5908720505 -0.5013597746 1.525774901
| 25> H -0.9877221051 0.7729195005 -1.2230198301
| 26> H -1.1543362404 -0.9591559207 -0.8572703056
| 27> H -2.7139989268 1.055949939 0.3342618564
| 28> *
| 29>
| 30>                          ****END OF INPUT****

CARTESIAN COORDINATES (ANGSTROEM)
---------------------------------
  C      1.478570   -1.451628   -0.042615
  C      1.206068   -0.026630    0.435478
  C      1.741992    0.986788   -0.574669
  C     -0.278396    0.204163    0.752026
  C     -1.227120    0.045560   -0.437215
  O     -2.583785    0.181837   -0.058890
  H      2.550136   -1.623929   -0.109322
  H      1.047548   -1.619867   -1.026106
  H      1.056749   -2.176112    0.649718
  H      1.747717    0.119948    1.377702
  H      1.522382    2.002610   -0.254973
  H      1.300648    0.826544   -1.554931
  H      2.820255    0.883547   -0.669154
  H     -0.394024    1.213296    1.157148
  H     -0.590872   -0.501360    1.525775
  H     -0.987722    0.772920   -1.223020
  H     -1.154336   -0.959156   -0.857270
  H     -2.713999    1.055950    0.334262

 Total Charge           Charge          ....    0
 Multiplicity           Mult            ....    1
 Number of Electrons    NEL             ....   50
 Basis Dimension        Dim             ....  179

ORBITAL ENERGIES
----------------

  NO   OCC          E(Eh)            E(eV)
   0   2.0000     -18.948967      -515.6276
   1   2.0000     -10.065306      -273.8909
   2   2.0000     -10.027363      -272.8584
   3   2.0000     -10.014877      -272.5187
   4   2.0000     -10.006163      -272.2815
   5   2.0000     -10.006136      -272.2808
   6   2.0000      -0.983939       -26.7744
   7   2.0000      -0.768867       -20.9219
   8   2.0000      -0.679884       -18.5006
   9   2.0000      -0.642146       -17.4737
  10   2.0000      -0.596450       -16.2302
  11   2.0000      -0.513906       -13.9841
  12   2.0000      -0.466972       -12.7070
  13   2.0000      -0.430461       -11.7134
  14   2.0000      -0.403833       -10.9889
  15   2.0000      -0.400654       -10.9023
  16   2.0000      -0.373363       -10.1597
  17   2.0000      -0.363360        -9.8875
  18   2.0000      -0.343544        -9.3483
  19   2.0000      -0.324942        -8.8421
  20   2.0000      -0.306898        -8.3511
  21   2.0000      -0.289168        -7.8687
  22   2.0000      -0.286277        -7.7900
  23   2.0000      -0.276741        -7.5305
  24   2.0000      -0.234383        -6.3779
  25   0.0000       0.074392         2.0243
  26   0.0000       0.088497         2.4081
  27   0.0000       0.122686         3.3384
  28   0.0000       0.133347         3.6286
  29   0.0000       0.143667         3.9094

MULLIKEN ATOMIC CHARGES
-----------------------
   0 C :   -0.542868
   1 C :   -0.015190
   2 C :   -0.545201
   3 C :   -0.258994
   4 C :   -0.204470
   5 O :   -0.509458
   6 H :    0.157924
   7 H :    0.164470
   8 H :    0.157930
   9 H :    0.153945
  10 H :    0.157856
  11 H :    0.165416
  12 H :    0.156728
  13 H :    0.153307
  14 H :    0.155233
  15 H :    0.148153
  16 H :    0.156838
  17 H :    0.348382
Sum of atomic charges:   -0.0000000

LOEWDIN ATOMIC CHARGES
----------------------
   0 C :   -0.425944
   1 C :   -0.242921
   2 C :   -0.426726
   3 C :   -0.294901
   4 C :    0.001536
   5 O :   -0.659479
   6 H :    0.156151
   7 H :    0.155446
   8 H :    0.156871
   9 H :    0.158951
  10 H :    0.156685
  11 H :    0.155308
  12 H :    0.155738
  13 H :    0.162730
  14 H :    0.163597
  15 H :    0.164138
  16 H :    0.179791
  17 H :    0.283030

  Mayer bond orders larger than 0.100000
B(  0-C ,  1-C ) :   0.9085 B(  0-C ,  6-H ) :   0.9693 B(  0-C ,  7-H ) :   0.9789
B(  0-C ,  8-H ) :   0.9708 B(  1-C ,  2-C ) :   0.9084 B(  1-C ,  3-C ) :   0.9016
B(  1-C ,  9-H ) :   0.9587 B(  2-C , 10-H ) :   0.9706 B(  2-C , 11-H ) :   0.9791
B(  2-C , 12-H ) :   0.9688 B(  3-C ,  4-C ) :   0.8904 B(  3-C , 13-H ) :   0.9660
B(  3-C , 14-H ) :   0.9696 B(  4-C ,  5-O ) :   0.9326 B(  4-C , 15-H ) :   0.9712
B(  4-C , 16-H ) :   0.9713 B(  5-O , 17-H ) :   0.8690

Dispersion correction           -0.004388176
FINAL SINGLE POINT ENERGY      -272.903443124631

DIPOLE MOMENT
-------------

Method             : SCF
Type of density    : Electron Density
Multiplicity       :   1
Irrep              :   0
Energy             :  -272.9089539152425914 Eh
Relativity type    :
Basis              : AO
                                X                 Y                 Z
Electronic contribution:     -5.092985147       0.615283480       0.800493737
Nuclear contribution   :      5.782474047      -0.002564331      -0.610840170
                        -----------------------------------------
Total Dipole Moment    :      0.689488900       0.612719148       0.189653567
                        -----------------------------------------
Magnitude (a.u.)       :      0.941694310
Magnitude (Debye)      :      2.393596714

Rotational constants in cm-1:             0.200609             0.062744             0.056291
Rotational constants in MHz :          6014.094468          1881.028378          1687.549407

                             ****ORCA TERMINATED NORMALLY****
TOTAL RUN TIME: 0 days 0 hours 0 minutes 27 seconds 450 msec
