                         Program Version 6.0.0  -   RELEASE  -
|  1> ! r2scan-3c def2/J RI DEFGRID2 scfconv6 printgap
|  2> %output
|  3>     printlevel normal
|  4> end
|  5> %cpcm
|  6>     smd true
|  7>     smdsolvent "water"
|  8> end
|  9> * xyz 0 1
| 10> C -2.2526882385 1.091862493 0.2688833639
| 11> C -1.8277509914 -0.3604777809 0.0866974743
| 12> C -0.558841021 -0.5664759627 -0.7472369773
| 13> C 0.7807777267 -0.1491519559 -0.0871336654
| 14> C 1.0872901839 1.3360425496 -0.2971181399
| 15> C 1.9138920471 -0.975102259 -0.7143657877
| 16> O 0.7543151024 -0.3605317361 1.3204847131
| 17> H -3.2580302231 1.1335176117 0.6827039554
| 18> H -2.2506028505 1.6178704646 -0.6830834648
| 19> H -1.5878827894 1.6048924592 0.9579952157
| 20> H -1.6920894986 -0.8119596254 1.0709036838
| 21> H -2.6351244483 -0.8987584016 -0.4162717584
| 22> H -0.4989895109 -1.6327583594 -0.9814779149
| 23> H -0.6559171543 -0.0292439589 -1.6914560236
| 24> H 1.1332295349 1.562860249 -1.3576753606
| 25> H 2.0451606322 1.5721970468 0.1600445221
| 26> H 0.3296180127 1.9553160372 0.1683986285
| 27> H 1.7543776598 -2.0387901555 -0.5471650915
| 28> H 2.866462318 -0.6934679788 -0.2715306701
| 29> H 1.9577642884 -0.7963074048 -1.784719376
| 30> H 0.7345927291 -1.3113340716 1.4913440488
| 31> *
| 32>
| 33>                          ****END OF INPUT****

CARTESIAN COORDINATES (ANGSTROEM)
---------------------------------
  C     -2.252688    1.091862    0.268883
  C     -1.827751   -0.360478    0.086697
  C     -0.558841   -0.566476   -0.747237
  C      0.780778   -0.149152   -0.087134
  C      1.087290    1.336043   -0.297118
  C      1.913892   -0.975102   -0.714366
  O      0.754315   -0.360532    1.320485
  H     -3.258030    1.133518    0.682704
  H     -2.250603    1.617870   -0.683083
  H     -1.587883    1.604892    0.957995
  H     -1.692089   -0.811960    1.070904
  H     -2.635124   -0.898758   -0.416272
  H     -0.498990   -1.632758   -0.981478
  H     -0.655917   -0.029244   -1.691456
  H      1.133230    1.562860   -1.357675
  H      2.045161    1.572197    0.160045
  H      0.329618    1.955316    0.168399
  H      1.754378   -2.038790   -0.547165
  H      2.866462   -0.693468   -0.271531
  H      1.957764   -0.796307   -1.784719
  H      0.734593   -1.311334    1.491344

 Total Charge           Charge          ....    0
 Multiplicity           Mult            ....    1
 Number of Electrons    NEL             ....   58
 Basis Dimension        Dim             ....  208

ORBITAL ENERGIES
----------------

  NO   OCC          E(Eh)            E(eV)
   0   2.0000     -18.946327      -515.5558
   1   2.0000     -10.082784      -274.3665
   2   2.0000     -10.015306      -272.5303
   3   2.0000     -10.012606      -272.4568
   4   2.0000     -10.007757      -272.3249
   5   2.0000     -10.007059      -272.3059
   6   2.0000     -10.005921      -272.2750
   7   2.0000      -0.984857       -26.7993
   8   2.0000      -0.759048       -20.6548
   9   2.0000      -0.719362       -19.5748
  10   2.0000      -0.651215       -17.7204
  11   2.0000      -0.638723       -17.3805
  12   2.0000      -0.554877       -15.0990
  13   2.0000      -0.527829       -14.3630
  14   2.0000      -0.446020       -12.1368
  15   2.0000      -0.429323       -11.6825
  16   2.0000      -0.418236       -11.3808
  17   2.0000      -0.390182       -10.6174
  18   2.0000      -0.384751       -10.4696
  19   2.0000      -0.355892        -9.6843
  20   2.0000      -0.347738        -9.4624
  21   2.0000      -0.344322        -9.3695
  22   2.0000      -0.337370        -9.1803
  23   2.0000      -0.323056        -8.7908
  24   2.0000      -0.301490        -8.2040
  25   2.0000      -0.290767        -7.9122
  26   2.0000      -0.283256        -7.7078
  27   2.0000      -0.272106        -7.4044
  28   2.0000      -0.234352        -6.3770
  29   0.0000       0.070205         1.9104
  30   0.0000       0.115930         3.1546
  31   0.0000       0.117808         3.2057
  32   0.0000       0.126314         3.4372
  33   0.0000       0.131764         3.5855

MULLIKEN ATOMIC CHARGES
-----------------------
   0 C :   -0.554153
   1 C :   -0.230590
   2 C :   -0.293997
   3 C :    0.208033
   4 C :   -0.548787
   5 C :   -0.524380
   6 O :   -0.496642
   7 H :    0.154003
   8 H :    0.159745
   9 H :    0.162305
  10 H :    0.151810
  11 H :    0.150391
  12 H :    0.158497
  13 H :    0.163623
  14 H :    0.177445
  15 H :    0.162775
  16 H :    0.162576
  17 H :    0.164464
  18 H :    0.164771
  19 H :    0.167771
  20 H :    0.340340
Sum of atomic charges:    0.0000000

LOEWDIN ATOMIC CHARGES
----------------------
   0 C :   -0.434796
   1 C :   -0.309703
   2 C :   -0.280753
   3 C :    0.064316
   4 C :   -0.383129
   5 C :   -0.395071
   6 O :   -0.639203
   7 H :    0.151940
   8 H :    0.152669
   9 H :    0.150917
  10 H :    0.159676
  11 H :    0.153960
  12 H :    0.166241
  13 H :    0.168407
  14 H :    0.167112
  15 H :    0.163435
  16 H :    0.164682
  17 H :    0.161771
  18 H :    0.162015
  19 H :    0.166870
  20 H :    0.288642

  Mayer bond orders larger than 0.100000
B(  0-C ,  1-C ) :   0.8609 B(  0-C ,  7-H ) :   0.9672 B(  0-C ,  8-H ) :   0.9796
B(  0-C ,  9-H ) :   0.9812 B(  1-C ,  2-C ) :   0.8883 B(  1-C , 10-H ) :   0.9954
B(  1-C , 11-H ) :   0.9694 B(  2-C ,  3-C ) :   0.8873 B(  2-C , 12-H ) :   0.9693
B(  2-C , 13-H ) :   0.9692 B(  3-C ,  4-C ) :   0.9391 B(  3-C ,  5-C ) :   0.9423
B(  3-C ,  6-O ) :   0.8400 B(  4-C , 14-H ) :   0.9762 B(  4-C , 15-H ) :   0.9731
B(  4-C , 16-H ) :   0.9557 B(  5-C , 17-H ) :   0.9670 B(  5-C , 18-H ) :   0.9746
B(  5-C , 19-H ) :   0.9717 B(  6-O , 20-H ) :   0.8767

Dispersion correction           -0.005775853
FINAL SINGLE POINT ENERGY      -312.208438401943

DIPOLE MOMENT
-------------

Method             : SCF
Type of density    : Electron Density
Multiplicity       :   1
Irrep              :   0
Energy             :  -312.2137575125960893 Eh
Relativity type    :
Basis              : AO
                                X                 Y                 Z
Electronic contribution:      1.611748432      -1.796420547       2.351249618
Nuclear contribution   :     -1.637563362       1.152375063      -2.984392911
                        -----------------------------------------
Total Dipole Moment    :     -0.025814930      -0.644045484      -0.633143293
                        -----------------------------------------
Magnitude (a.u.)       :      0.903510612
Magnitude (Debye)      :      2.296541465

Rotational constants in cm-1:             0.130568             0.057034             0.053837
Rotational constants in MHz :          3914.317082          1709.824836          1613.982955

                             ****ORCA TERMINATED NORMALLY****
TOTAL RUN TIME: 0 days 0 hours 0 minutes 30 seconds 151 msec
