                         Program Version 6.0.0  -   RELEASE  -
|  1> ! pbe def2-sv(p) def2/J RI DEFGRID1 loosescf d4 GCP(DFT/SV(P)) printgap
|  2> %output
|  3>     printlevel normal
|  4> end
|  5> * xyz 0 1
|  6> C 2.1056417334 -1.102285451 -0.0336157312
|  7> C 1.221102624 0.0977769163 0.3094008459
|  8> C 1.9172593094 1.4121326099 -0.0478394774
|  9> O -7.49513e-05 0.0034454243 -0.4153674882
| 10> C -1.2214217984 -0.0968007502 0.3084567588
| 11> C -2.1100764859 1.0996913455 -0.036051046
| 12> C -1.9124209306 -1.4138901802 -0.0487502524
| 13> H 1.6065643171 -2.0282014785 0.2410732477
| 14> H 2.2971113804 -1.1167760017 -1.1030507375
| 15> H 3.0488776632 -1.0353541777 0.5000297043
| 16> H 1.0057027286 0.0879716831 1.3886827854
| 17> H 1.2827338306 2.2558379947 0.2121148718
| 18> H 2.1100070498 1.4411715325 -1.1166502298
| 19> H 2.8568584398 1.4951752411 0.489875571
| 20> H -1.0069409743 -0.0854094498 1.3879627148
| 21> H -3.0535467284 1.0298199642 0.4966737164
| 22> H -1.6144410276 2.0274374298 0.23843442
| 23> H -2.3005546816 1.1129442196 -1.1056097982
| 24> H -2.1007280766 -1.4454831213 -1.1183983842
| 25> H -2.8542166561 -1.4979995532 0.4850807624
| 26> H -1.2772438905 -2.2556014663 0.2156573427
| 27> *
| 28>
| 29>                          ****END OF INPUT****

CARTESIAN COORDINATES (ANGSTROEM)
---------------------------------
  C      2.105642   -1.102285   -0.033616
  C      1.221103    0.097777    0.309401
  C      1.917259    1.412133   -0.047839
  O     -0.000075    0.003445   -0.415367
  C     -1.221422   -0.096801    0.308457
  C     -2.110076    1.099691   -0.036051
  C     -1.912421   -1.413890   -0.048750
  H      1.606564   -2.028201    0.241073
  H      2.297111   -1.116776   -1.103051
  H      3.048878   -1.035354    0.500030
  H      1.005703    0.087972    1.388683
  H      1.282734    2.255838    0.212115
  H      2.110007    1.441172   -1.116650
  H      2.856858    1.495175    0.489876
  H     -1.006941   -0.085409    1.387963
  H     -3.053547    1.029820    0.496674
  H     -1.614441    2.027437    0.238434
  H     -2.300555    1.112944   -1.105610
  H     -2.100728   -1.445483   -1.118398
  H     -2.854217   -1.498000    0.485081
  H     -1.277244   -2.255601    0.215657

 Total Charge           Charge          ....    0
 Multiplicity           Mult            ....    1
 Number of Electrons    NEL             ....   58
 Basis Dimension        Dim             ....  126

ORBITAL ENERGIES
----------------

  NO   OCC          E(Eh)            E(eV)
   0   2.0000     -18.737563      -509.8750
   1   2.0000      -9.936990      -270.3992
   2   2.0000      -9.936980      -270.3990
   3   2.0000      -9.869965      -268.5754
   4   2.0000      -9.869947      -268.5749
   5   2.0000      -9.869930      -268.5745
   6   2.0000      -9.869899      -268.5736
   7   2.0000      -0.921085       -25.0640
   8   2.0000      -0.717285       -19.5183
   9   2.0000      -0.667757       -18.1706
  10   2.0000      -0.614224       -16.7139
  11   2.0000      -0.608492       -16.5579
  12   2.0000      -0.534175       -14.5356
  13   2.0000      -0.507694       -13.8151
  14   2.0000      -0.447100       -12.1662
  15   2.0000      -0.412822       -11.2334
  16   2.0000      -0.389229       -10.5914
  17   2.0000      -0.384728       -10.4690
  18   2.0000      -0.363301        -9.8859
  19   2.0000      -0.353310        -9.6140
  20   2.0000      -0.340493        -9.2653
  21   2.0000      -0.338614        -9.2141
  22   2.0000      -0.329628        -8.9696
  23   2.0000      -0.325622        -8.8606
  24   2.0000      -0.312960        -8.5161
  25   2.0000      -0.296974        -8.0811
  26   2.0000      -0.280757        -7.6398
  27   2.0000      -0.254517        -6.9258
  28   2.0000      -0.193188        -5.2569
  29   0.0000       0.029743         0.8093
  30   0.0000       0.058554         1.5933
  31   0.0000       0.062896         1.7115
  32   0.0000       0.071352         1.9416
  33   0.0000       0.077974         2.1218

MULLIKEN ATOMIC CHARGES
-----------------------
   0 C :   -0.239102
   1 C :   -0.007489
   2 C :   -0.238201
   3 O :   -0.333087
   4 C :   -0.007403
   5 C :   -0.238965
   6 C :   -0.238452
   7 H :    0.100139
   8 H :    0.101599
   9 H :    0.092725
  10 H :    0.062843
  11 H :    0.099892
  12 H :    0.101548
  13 H :    0.092572
  14 H :    0.062850
  15 H :    0.092733
  16 H :    0.100092
  17 H :    0.101601
  18 H :    0.101593
  19 H :    0.092554
  20 H :    0.099958
Sum of atomic charges:   -0.0000000

LOEWDIN ATOMIC CHARGES
----------------------
   0 C :   -0.345137
   1 C :   -0.046286
   2 C :   -0.344794
   3 O :   -0.163635
   4 C :   -0.046245
   5 C :   -0.345067
   6 C :   -0.344887
   7 H :    0.117960
   8 H :    0.122577
   9 H :    0.119468
  10 H :    0.098024
  11 H :    0.117999
  12 H :    0.122535
  13 H :    0.119458
  14 H :    0.098023
  15 H :    0.119455
  16 H :    0.118002
  17 H :    0.122589
  18 H :    0.122565
  19 H :    0.119456
  20 H :    0.117944

  Mayer bond orders larger than 0.100000
B(  0-C ,  1-C ) :   1.1205 B(  0-C ,  7-H ) :   0.9467 B(  0-C ,  8-H ) :   0.9450
B(  0-C ,  9-H ) :   0.9432 B(  1-C ,  2-C ) :   1.1209 B(  1-C ,  3-O ) :   0.9857
B(  1-C , 10-H ) :   0.8981 B(  2-C , 11-H ) :   0.9466 B(  2-C , 12-H ) :   0.9451
B(  2-C , 13-H ) :   0.9433 B(  3-O ,  4-C ) :   0.9856 B(  4-C ,  5-C ) :   1.1205
B(  4-C ,  6-C ) :   1.1209 B(  4-C , 14-H ) :   0.8980 B(  5-C , 15-H ) :   0.9432
B(  5-C , 16-H ) :   0.9467 B(  5-C , 17-H ) :   0.9451 B(  6-C , 18-H ) :   0.9451
B(  6-C , 19-H ) :   0.9433 B(  6-C , 20-H ) :   0.9466

Dispersion correction           -0.015521936
FINAL SINGLE POINT ENERGY      -311.520944350817

DIPOLE MOMENT
-------------

Method             : SCF
Type of density    : Electron Density
Multiplicity       :   1
Irrep              :   0
Energy             :  -311.5989343030025225 Eh
Relativity type    :
Basis              : AO
                                X                 Y                 Z
Electronic contribution:     -0.000306379       0.011919630      -0.704229421
Nuclear contribution   :      0.000170923      -0.013521451       1.130773499
                        -----------------------------------------
Total Dipole Moment    :     -0.000135456      -0.001601822       0.426544079
                        -----------------------------------------
Magnitude (a.u.)       :      0.426547108
Magnitude (Debye)      :      1.084196585

Rotational constants in cm-1:             0.136749             0.053970             0.041598
Rotational constants in MHz :          4099.628454          1617.969753          1247.072742

                             ****ORCA TERMINATED NORMALLY****
TOTAL RUN TIME: 0 days 0 hours 0 minutes 7 seconds 421 msec
