                         Program Version 6.0.0  -   RELEASE  -
|  1> ! r2scan-3c def2/J RI DEFGRID2 scfconv6 printgap
|  2> %output
|  3>     printlevel normal
|  4> end
|  5> * xyz 0 1
|  6> C -0.3345119406 -2.7092461587 -0.1445244796
|  7> C 0.4825701202 -1.4625441461 -0.02799066
|  8> C 1.8524447866 -1.4136459028 -0.3316344148
|  9> N 2.5610753736 -0.3064836631 -0.2071487673
| 10> C 1.9437960392 0.8068297606 0.2192797482
| 11> N 0.6265444178 0.8722586238 0.4956567953
| 12> C -0.0578315875 -0.2436685742 0.3607413176
| 13> O -1.4068872124 -0.1318068272 0.6859876371
| 14> C -2.2789694795 -0.1065250524 -0.3634714441
| 15> O -1.9088051454 -0.2097860738 -1.5240473936
| 16> N -3.5470302723 0.0353536779 0.0243524355
| 17> C -4.6049876039 0.0686891048 -0.9632710052
| 18> C -3.9675874055 0.1621165384 1.403074119
| 19> N 2.6747415835 1.9149027849 0.3736677454
| 20> C 4.0873707463 1.9416834457 0.0805021656
| 21> C 2.0959976989 3.161813446 0.8095647421
| 22> C 2.5830845035 -2.6229269086 -0.8153623451
| 23> H 0.2324180696 -3.5724270892 0.1940104837
| 24> H -1.239778895 -2.6228486797 0.4530976446
| 25> H -0.6270666546 -2.8681849922 -1.1832832803
| 26> H -5.1298651543 1.0226043523 -0.9099289132
| 27> H -5.3080506024 -0.7429788746 -0.7758253261
| 28> H -4.1628289858 -0.0493640581 -1.9494885267
| 29> H -4.5726287618 -0.701569897 1.6828957581
| 30> H -4.5653882811 1.066998087 1.5124891246
| 31> H -3.0984005939 0.2221693723 2.0500377729
| 32> H 4.4001642996 0.9495234007 -0.2280226753
| 33> H 4.6408542159 2.2444140749 0.9706057817
| 34> H 4.2857828411 2.6558302118 -0.7205523271
| 35> H 2.5887434821 3.4963690546 1.7239325137
| 36> H 1.0376181104 3.0123159141 0.9970025788
| 37> H 2.2272335074 3.9218296709 0.0371312992
| 38> H 3.6030798142 -2.3503145533 -1.0647813724
| 39> H 2.5937226442 -3.3861921343 -0.0398917985
| 40> H 2.0849797806 -3.0327019296 -1.6907228207
| 41> *
| 42>
| 43>                          ****END OF INPUT****

CARTESIAN COORDINATES (ANGSTROEM)
---------------------------------
  C     -0.334512   -2.709246   -0.144524
  C      0.482570   -1.462544   -0.027991
  C      1.852445   -1.413646   -0.331634
  N      2.561075   -0.306484   -0.207149
  C      1.943796    0.806830    0.219280
  N      0.626544    0.872259    0.495657
  C     -0.057832   -0.243669    0.360741
  O     -1.406887   -0.131807    0.685988
  C     -2.278969   -0.106525   -0.363471
  O     -1.908805   -0.209786   -1.524047
  N     -3.547030    0.035354    0.024352
  C     -4.604988    0.068689   -0.963271
  C     -3.967587    0.162117    1.403074
  N      2.674742    1.914903    0.373668
  C      4.087371    1.941683    0.080502
  C      2.095998    3.161813    0.809565
  C      2.583085   -2.622927   -0.815362
  H      0.232418   -3.572427    0.194010
  H     -1.239779   -2.622849    0.453098
  H     -0.627067   -2.868185   -1.183283
  H     -5.129865    1.022604   -0.909929
  H     -5.308051   -0.742979   -0.775825
  H     -4.162829   -0.049364   -1.949489
  H     -4.572629   -0.701570    1.682896
  H     -4.565388    1.066998    1.512489
  H     -3.098401    0.222169    2.050038
  H      4.400164    0.949523   -0.228023
  H      4.640854    2.244414    0.970606
  H      4.285783    2.655830   -0.720552
  H      2.588743    3.496369    1.723933
  H      1.037618    3.012316    0.997003
  H      2.227234    3.921830    0.037131
  H      3.603080   -2.350315   -1.064781
  H      2.593723   -3.386192   -0.039892
  H      2.084980   -3.032702   -1.690723

 Total Charge           Charge          ....    0
 Multiplicity           Mult            ....    1
 Number of Electrons    NEL             ....  128
 Basis Dimension        Dim             ....  443

ORBITAL ENERGIES
----------------

  NO   OCC          E(Eh)            E(eV)
   0   2.0000     -18.995032      -516.8811
   1   2.0000     -18.907546      -514.5005
   2   2.0000     -14.198254      -386.3541
   3   2.0000     -14.184073      -385.9683
   4   2.0000     -14.139863      -384.7652
   5   2.0000     -14.134372      -384.6158
   6   2.0000     -10.168455      -276.6977
   7   2.0000     -10.122509      -275.4475
   8   2.0000     -10.118929      -275.3500
   9   2.0000     -10.074548      -274.1424
  10   2.0000     -10.067222      -273.9430
  11   2.0000     -10.063347      -273.8376
  12   2.0000     -10.051581      -273.5174
  13   2.0000     -10.051170      -273.5062
  14   2.0000     -10.030174      -272.9349
  15   2.0000     -10.023138      -272.7434
  16   2.0000     -10.023056      -272.7412
  17   2.0000      -1.076379       -29.2898
  18   2.0000      -0.979238       -26.6464
  19   2.0000      -0.961899       -26.1746
  20   2.0000      -0.915576       -24.9141
  21   2.0000      -0.893696       -24.3187
  22   2.0000      -0.844887       -22.9905
  23   2.0000      -0.768329       -20.9073
  24   2.0000      -0.706037       -19.2123
  25   2.0000      -0.699459       -19.0332
  26   2.0000      -0.692227       -18.8365
  27   2.0000      -0.682296       -18.5662
  28   2.0000      -0.673065       -18.3150
  29   2.0000      -0.623874       -16.9765
  30   2.0000      -0.601273       -16.3615
  31   2.0000      -0.553601       -15.0643
  32   2.0000      -0.528692       -14.3864
  33   2.0000      -0.504646       -13.7321
  34   2.0000      -0.503208       -13.6930
  35   2.0000      -0.473990       -12.8979
  36   2.0000      -0.457145       -12.4395
  37   2.0000      -0.453093       -12.3293
  38   2.0000      -0.443941       -12.0802
  39   2.0000      -0.420754       -11.4493
  40   2.0000      -0.414993       -11.2925
  41   2.0000      -0.410568       -11.1721
  42   2.0000      -0.393621       -10.7110
  43   2.0000      -0.388395       -10.5688
  44   2.0000      -0.383384       -10.4324
  45   2.0000      -0.378800       -10.3077
  46   2.0000      -0.374419       -10.1885
  47   2.0000      -0.372763       -10.1434
  48   2.0000      -0.369820       -10.0633
  49   2.0000      -0.366070        -9.9613
  50   2.0000      -0.361441        -9.8353
  51   2.0000      -0.356845        -9.7102
  52   2.0000      -0.353081        -9.6078
  53   2.0000      -0.350721        -9.5436
  54   2.0000      -0.344473        -9.3736
  55   2.0000      -0.338511        -9.2114
  56   2.0000      -0.278365        -7.5747
  57   2.0000      -0.268968        -7.3190
  58   2.0000      -0.266663        -7.2563
  59   2.0000      -0.258488        -7.0338
  60   2.0000      -0.233789        -6.3617
  61   2.0000      -0.218932        -5.9574
  62   2.0000      -0.205625        -5.5953
  63   2.0000      -0.177117        -4.8196
  64   0.0000      -0.040087        -1.0908
  65   0.0000      -0.007707        -0.2097
  66   0.0000       0.030202         0.8218
  67   0.0000       0.060556         1.6478
  68   0.0000       0.078858         2.1458

MULLIKEN ATOMIC CHARGES
-----------------------
   0 C :   -0.622276
   1 C :    0.034919
   2 C :    0.256265
   3 N :   -0.244032
   4 C :    0.067611
   5 N :   -0.264808
   6 C :    0.151608
   7 O :   -0.128388
   8 C :    0.250452
   9 O :   -0.485457
  10 N :    0.079046
  11 C :   -0.385584
  12 C :   -0.379550
  13 N :    0.158979
  14 C :   -0.381596
  15 C :   -0.384394
  16 C :   -0.656941
  17 H :    0.144913
  18 H :    0.164532
  19 H :    0.200345
  20 H :    0.144186
  21 H :    0.141051
  22 H :    0.201475
  23 H :    0.146949
  24 H :    0.142766
  25 H :    0.186566
  26 H :    0.198344
  27 H :    0.138792
  28 H :    0.140751
  29 H :    0.139108
  30 H :    0.198380
  31 H :    0.140568
  32 H :    0.176354
  33 H :    0.166183
  34 H :    0.162884
Sum of atomic charges:   -0.0000000

LOEWDIN ATOMIC CHARGES
----------------------
   0 C :   -0.373301
   1 C :   -0.064230
   2 C :    0.178522
   3 N :   -0.568568
   4 C :    0.435237
   5 N :   -0.478202
   6 C :    0.395564
   7 O :   -0.468179
   8 C :    0.476383
   9 O :   -0.422904
  10 N :   -0.785697
  11 C :   -0.097686
  12 C :   -0.096910
  13 N :   -0.793571
  14 C :   -0.104889
  15 C :   -0.103897
  16 C :   -0.355333
  17 H :    0.159199
  18 H :    0.171871
  19 H :    0.173549
  20 H :    0.172734
  21 H :    0.172179
  22 H :    0.209596
  23 H :    0.171365
  24 H :    0.173650
  25 H :    0.205874
  26 H :    0.210529
  27 H :    0.170440
  28 H :    0.170807
  29 H :    0.170479
  30 H :    0.210644
  31 H :    0.171201
  32 H :    0.175413
  33 H :    0.168478
  34 H :    0.169653

  Mayer bond orders larger than 0.100000
B(  0-C ,  1-C ) :   0.6713 B(  0-C , 17-H ) :   0.9651 B(  0-C , 18-H ) :   0.9997
B(  0-C , 19-H ) :   0.9864 B(  1-C ,  2-C ) :   1.3347 B(  1-C ,  6-C ) :   1.3861
B(  2-C ,  3-N ) :   1.3530 B(  2-C , 16-C ) :   0.7577 B(  3-N ,  4-C ) :   1.3449
B(  4-C ,  5-N ) :   1.3508 B(  4-C ,  6-C ) :   0.1006 B(  4-C , 13-N ) :   1.3276
B(  5-N ,  6-C ) :   1.5560 B(  6-C ,  7-O ) :   1.0649 B(  7-O ,  8-C ) :   1.0129
B(  8-C ,  9-O ) :   1.7959 B(  8-C , 10-N ) :   1.3286 B( 10-N , 11-C ) :   0.9188
B( 10-N , 12-C ) :   0.9029 B( 11-C , 20-H ) :   0.9565 B( 11-C , 21-H ) :   0.9542
B( 11-C , 22-H ) :   0.9550 B( 12-C , 23-H ) :   0.9572 B( 12-C , 24-H ) :   0.9571
B( 12-C , 25-H ) :   0.9576 B( 13-N , 14-C ) :   0.9127 B( 13-N , 15-C ) :   0.9115
B( 14-C , 26-H ) :   0.9539 B( 14-C , 27-H ) :   0.9578 B( 14-C , 28-H ) :   0.9562
B( 15-C , 29-H ) :   0.9581 B( 15-C , 30-H ) :   0.9551 B( 15-C , 31-H ) :   0.9552
B( 16-C , 32-H ) :   1.0125 B( 16-C , 33-H ) :   0.9794 B( 16-C , 34-H ) :   0.9637

Dispersion correction           -0.013604270
FINAL SINGLE POINT ENERGY      -799.295895887848

DIPOLE MOMENT
-------------

Method             : SCF
Type of density    : Electron Density
Multiplicity       :   1
Irrep              :   0
Energy             :  -799.3199494980237887 Eh
Relativity type    :
Basis              : AO
                                X                 Y                 Z
Electronic contribution:      0.476120580       0.713879587      -0.268197047
Nuclear contribution   :     -0.983429262      -0.680372065       0.984593085
                        -----------------------------------------
Total Dipole Moment    :     -0.507308682       0.033507522       0.716396039
                        -----------------------------------------
Magnitude (a.u.)       :      0.878469201
Magnitude (Debye)      :      2.232891258

Rotational constants in cm-1:             0.025168             0.009621             0.007621
Rotational constants in MHz :           754.523025           288.422807           228.482183

                             ****ORCA TERMINATED NORMALLY****
TOTAL RUN TIME: 0 days 0 hours 1 minutes 25 seconds 81 msec
