                         Program Version 6.0.0  -   RELEASE  -
|  1> ! r2scan-3c def2/J RI DEFGRID2 scfconv6 printgap
|  2> %output
|  3>     printlevel normal
|  4> end
|  5> %cpcm
|  6>     smd true
|  7>     smdsolvent "water"
|  8> end
|  9> * xyz 0 1
| 10> C -0.3345119406 -2.7092461587 -0.1445244796
| 11> C 0.4825701202 -1.4625441461 -0.02799066
| 12> C 1.8524447866 -1.4136459028 -0.3316344148
| 13> N 2.5610753736 -0.3064836631 -0.2071487673
| 14> C 1.9437960392 0.8068297606 0.2192797482
| 15> N 0.6265444178 0.8722586238 0.4956567953
| 16> C -0.0578315875 -0.2436685742 0.3607413176
| 17> O -1.4068872124 -0.1318068272 0.6859876371
| 18> C -2.2789694795 -0.1065250524 -0.3634714441
| 19> O -1.9088051454 -0.2097860738 -1.5240473936
| 20> N -3.5470302723 0.0353536779 0.0243524355
| 21> C -4.6049876039 0.0686891048 -0.9632710052
| 22> C -3.9675874055 0.1621165384 1.403074119
| 23> N 2.6747415835 1.9149027849 0.3736677454
| 24> C 4.0873707463 1.9416834457 0.0805021656
| 25> C 2.0959976989 3.161813446 0.8095647421
| 26> C 2.5830845035 -2.6229269086 -0.8153623451
| 27> H 0.2324180696 -3.5724270892 0.1940104837
| 28> H -1.239778895 -2.6228486797 0.4530976446
| 29> H -0.6270666546 -2.8681849922 -1.1832832803
| 30> H -5.1298651543 1.0226043523 -0.9099289132
| 31> H -5.3080506024 -0.7429788746 -0.7758253261
| 32> H -4.1628289858 -0.0493640581 -1.9494885267
| 33> H -4.5726287618 -0.701569897 1.6828957581
| 34> H -4.5653882811 1.066998087 1.5124891246
| 35> H -3.0984005939 0.2221693723 2.0500377729
| 36> H 4.4001642996 0.9495234007 -0.2280226753
| 37> H 4.6408542159 2.2444140749 0.9706057817
| 38> H 4.2857828411 2.6558302118 -0.7205523271
| 39> H 2.5887434821 3.4963690546 1.7239325137
| 40> H 1.0376181104 3.0123159141 0.9970025788
| 41> H 2.2272335074 3.9218296709 0.0371312992
| 42> H 3.6030798142 -2.3503145533 -1.0647813724
| 43> H 2.5937226442 -3.3861921343 -0.0398917985
| 44> H 2.0849797806 -3.0327019296 -1.6907228207
| 45> *
| 46>
| 47>                          ****END OF INPUT****

CARTESIAN COORDINATES (ANGSTROEM)
---------------------------------
  C     -0.334512   -2.709246   -0.144524
  C      0.482570   -1.462544   -0.027991
  C      1.852445   -1.413646   -0.331634
  N      2.561075   -0.306484   -0.207149
  C      1.943796    0.806830    0.219280
  N      0.626544    0.872259    0.495657
  C     -0.057832   -0.243669    0.360741
  O     -1.406887   -0.131807    0.685988
  C     -2.278969   -0.106525   -0.363471
  O     -1.908805   -0.209786   -1.524047
  N     -3.547030    0.035354    0.024352
  C     -4.604988    0.068689   -0.963271
  C     -3.967587    0.162117    1.403074
  N      2.674742    1.914903    0.373668
  C      4.087371    1.941683    0.080502
  C      2.095998    3.161813    0.809565
  C      2.583085   -2.622927   -0.815362
  H      0.232418   -3.572427    0.194010
  H     -1.239779   -2.622849    0.453098
  H     -0.627067   -2.868185   -1.183283
  H     -5.129865    1.022604   -0.909929
  H     -5.308051   -0.742979   -0.775825
  H     -4.162829   -0.049364   -1.949489
  H     -4.572629   -0.701570    1.682896
  H     -4.565388    1.066998    1.512489
  H     -3.098401    0.222169    2.050038
  H      4.400164    0.949523   -0.228023
  H      4.640854    2.244414    0.970606
  H      4.285783    2.655830   -0.720552
  H      2.588743    3.496369    1.723933
  H      1.037618    3.012316    0.997003
  H      2.227234    3.921830    0.037131
  H      3.603080   -2.350315   -1.064781
  H      2.593723   -3.386192   -0.039892
  H      2.084980   -3.032702   -1.690723

 Total Charge           Charge          ....    0
 Multiplicity           Mult            ....    1
 Number of Electrons    NEL             ....  128
 Basis Dimension        Dim             ....  443

ORBITAL ENERGIES
----------------

  NO   OCC          E(Eh)            E(eV)
   0   2.0000     -19.009629      -517.2783
   1   2.0000     -18.931141      -515.1425
   2   2.0000     -14.202010      -386.4563
   3   2.0000     -14.188708      -386.0944
   4   2.0000     -14.153428      -385.1344
   5   2.0000     -14.145559      -384.9202
   6   2.0000     -10.184571      -277.1363
   7   2.0000     -10.134532      -275.7746
   8   2.0000     -10.128722      -275.6165
   9   2.0000     -10.083317      -274.3810
  10   2.0000     -10.054512      -273.5972
  11   2.0000     -10.053837      -273.5788
  12   2.0000     -10.047242      -273.3994
  13   2.0000     -10.046493      -273.3790
  14   2.0000     -10.038455      -273.1602
  15   2.0000     -10.022642      -272.7300
  16   2.0000     -10.020326      -272.6669
  17   2.0000      -1.092061       -29.7165
  18   2.0000      -0.997800       -27.1515
  19   2.0000      -0.972741       -26.4696
  20   2.0000      -0.920176       -25.0393
  21   2.0000      -0.899848       -24.4861
  22   2.0000      -0.857147       -23.3242
  23   2.0000      -0.774819       -21.0839
  24   2.0000      -0.708093       -19.2682
  25   2.0000      -0.700718       -19.0675
  26   2.0000      -0.687054       -18.6957
  27   2.0000      -0.680705       -18.5229
  28   2.0000      -0.673338       -18.3225
  29   2.0000      -0.626700       -17.0534
  30   2.0000      -0.607217       -16.5232
  31   2.0000      -0.558313       -15.1925
  32   2.0000      -0.534469       -14.5436
  33   2.0000      -0.511464       -13.9176
  34   2.0000      -0.503696       -13.7063
  35   2.0000      -0.480658       -13.0794
  36   2.0000      -0.462888       -12.5958
  37   2.0000      -0.455241       -12.3877
  38   2.0000      -0.446372       -12.1464
  39   2.0000      -0.420963       -11.4550
  40   2.0000      -0.416178       -11.3248
  41   2.0000      -0.415572       -11.3083
  42   2.0000      -0.399983       -10.8841
  43   2.0000      -0.393236       -10.7005
  44   2.0000      -0.390262       -10.6196
  45   2.0000      -0.372691       -10.1414
  46   2.0000      -0.371448       -10.1076
  47   2.0000      -0.370446       -10.0804
  48   2.0000      -0.365428        -9.9438
  49   2.0000      -0.364037        -9.9060
  50   2.0000      -0.359915        -9.7938
  51   2.0000      -0.357402        -9.7254
  52   2.0000      -0.352831        -9.6010
  53   2.0000      -0.350250        -9.5308
  54   2.0000      -0.344069        -9.3626
  55   2.0000      -0.340629        -9.2690
  56   2.0000      -0.295768        -8.0482
  57   2.0000      -0.281956        -7.6724
  58   2.0000      -0.280608        -7.6357
  59   2.0000      -0.264909        -7.2085
  60   2.0000      -0.259140        -7.0516
  61   2.0000      -0.223921        -6.0932
  62   2.0000      -0.218940        -5.9577
  63   2.0000      -0.183866        -5.0033
  64   0.0000      -0.052078        -1.4171
  65   0.0000      -0.017123        -0.4659
  66   0.0000       0.015747         0.4285
  67   0.0000       0.056228         1.5300
  68   0.0000       0.075181         2.0458

MULLIKEN ATOMIC CHARGES
-----------------------
   0 C :   -0.646666
   1 C :    0.002353
   2 C :    0.259811
   3 N :   -0.278036
   4 C :    0.070532
   5 N :   -0.289620
   6 C :    0.128567
   7 O :   -0.133044
   8 C :    0.270524
   9 O :   -0.572345
  10 N :    0.086149
  11 C :   -0.407140
  12 C :   -0.403670
  13 N :    0.159547
  14 C :   -0.411222
  15 C :   -0.413860
  16 C :   -0.670777
  17 H :    0.173518
  18 H :    0.186282
  19 H :    0.204250
  20 H :    0.174114
  21 H :    0.172364
  22 H :    0.190071
  23 H :    0.174336
  24 H :    0.171086
  25 H :    0.189458
  26 H :    0.193718
  27 H :    0.166226
  28 H :    0.166796
  29 H :    0.166988
  30 H :    0.192062
  31 H :    0.167018
  32 H :    0.181792
  33 H :    0.194885
  34 H :    0.183930
Sum of atomic charges:   -0.0000000

LOEWDIN ATOMIC CHARGES
----------------------
   0 C :   -0.375452
   1 C :   -0.070968
   2 C :    0.183176
   3 N :   -0.589741
   4 C :    0.429413
   5 N :   -0.508795
   6 C :    0.382550
   7 O :   -0.472201
   8 C :    0.475624
   9 O :   -0.493390
  10 N :   -0.770568
  11 C :   -0.093721
  12 C :   -0.091105
  13 N :   -0.790340
  14 C :   -0.104240
  15 C :   -0.103396
  16 C :   -0.356703
  17 H :    0.170725
  18 H :    0.177682
  19 H :    0.174451
  20 H :    0.185391
  21 H :    0.185723
  22 H :    0.203990
  23 H :    0.184359
  24 H :    0.186108
  25 H :    0.206136
  26 H :    0.206909
  27 H :    0.181622
  28 H :    0.181138
  29 H :    0.181945
  30 H :    0.206364
  31 H :    0.181586
  32 H :    0.176189
  33 H :    0.180904
  34 H :    0.178634

  Mayer bond orders larger than 0.100000
B(  0-C ,  1-C ) :   0.6941 B(  0-C , 17-H ) :   0.9580 B(  0-C , 18-H ) :   0.9942
B(  0-C , 19-H ) :   0.9765 B(  1-C ,  2-C ) :   1.3121 B(  1-C ,  6-C ) :   1.3913
B(  2-C ,  3-N ) :   1.3567 B(  2-C , 16-C ) :   0.7839 B(  3-N ,  4-C ) :   1.3431
B(  4-C ,  5-N ) :   1.3393 B(  4-C , 13-N ) :   1.3529 B(  5-N ,  6-C ) :   1.5560
B(  6-C ,  7-O ) :   1.0484 B(  7-O ,  8-C ) :   1.0172 B(  8-C ,  9-O ) :   1.7229
B(  8-C , 10-N ) :   1.3849 B( 10-N , 11-C ) :   0.9083 B( 10-N , 12-C ) :   0.8939
B( 11-C , 20-H ) :   0.9474 B( 11-C , 21-H ) :   0.9456 B( 11-C , 22-H ) :   0.9560
B( 12-C , 23-H ) :   0.9473 B( 12-C , 24-H ) :   0.9487 B( 12-C , 25-H ) :   0.9538
B( 13-N , 14-C ) :   0.9002 B( 13-N , 15-C ) :   0.8990 B( 14-C , 26-H ) :   0.9554
B( 14-C , 27-H ) :   0.9501 B( 14-C , 28-H ) :   0.9490 B( 15-C , 29-H ) :   0.9502
B( 15-C , 30-H ) :   0.9571 B( 15-C , 31-H ) :   0.9483 B( 16-C , 32-H ) :   1.0082
B( 16-C , 33-H ) :   0.9623 B( 16-C , 34-H ) :   0.9517

Dispersion correction           -0.013604270
FINAL SINGLE POINT ENERGY      -799.310037131057

DIPOLE MOMENT
-------------

Method             : SCF
Type of density    : Electron Density
Multiplicity       :   1
Irrep              :   0
Energy             :  -799.3340907412323304 Eh
Relativity type    :
Basis              : AO
                                X                 Y                 Z
Electronic contribution:      0.263590706       0.651942221       0.175715981
Nuclear contribution   :     -0.983429262      -0.680372065       0.984593085
                        -----------------------------------------
Total Dipole Moment    :     -0.719838555      -0.028429844       1.160309066
                        -----------------------------------------
Magnitude (a.u.)       :      1.365757274
Magnitude (Debye)      :      3.471479108

Rotational constants in cm-1:             0.025168             0.009621             0.007621
Rotational constants in MHz :           754.523025           288.422807           228.482183

                             ****ORCA TERMINATED NORMALLY****
TOTAL RUN TIME: 0 days 0 hours 1 minutes 47 seconds 182 msec
