                         Program Version 6.0.0  -   RELEASE  -
|  1> ! pbe def2-sv(p) def2/J RI DEFGRID1 loosescf d4 GCP(DFT/SV(P)) printgap
|  2> %output
|  3>     printlevel normal
|  4> end
|  5> * xyz 0 1
|  6> C -2.3610502746 -0.1292411399 -1.2425477864
|  7> C -1.9485309845 0.1387218601 0.2028898827
|  8> C -1.9256301054 -1.1546284254 1.0141643223
|  9> C -0.5847685242 0.8289641238 0.2515009595
| 10> O 0.4078290355 -0.0308325732 -0.3226499438
| 11> C 1.675124867 0.1648826599 0.0129453351
| 12> O 2.0368627982 1.0346346333 0.7803037319
| 13> C 2.5854611153 -0.8093663245 -0.673452529
| 14> H -1.6320636463 -0.7761992113 -1.7228932134
| 15> H -2.4215281043 0.8009842304 -1.8016647134
| 16> H -3.3324395297 -0.6147007852 -1.2716364376
| 17> H -2.6635055935 0.8316991208 0.6574750063
| 18> H -1.6347026173 -0.9568911789 2.0432720542
| 19> H -1.2154351576 -1.8543454984 0.5810155514
| 20> H -2.9095542171 -1.6149720921 1.0149425063
| 21> H -0.5990355495 1.7621593185 -0.321378145
| 22> H -0.2900270896 1.0616679879 1.2804735996
| 23> H 2.5944245359 -0.5905003948 -1.738309937
| 24> H 2.2084967231 -1.8186428141 -0.5379340804
| 25> H 3.5882739926 -0.7164739706 -0.2702842393
| 26> *
| 27>
| 28>                          ****END OF INPUT****

CARTESIAN COORDINATES (ANGSTROEM)
---------------------------------
  C     -2.361050   -0.129241   -1.242548
  C     -1.948531    0.138722    0.202890
  C     -1.925630   -1.154628    1.014164
  C     -0.584769    0.828964    0.251501
  O      0.407829   -0.030833   -0.322650
  C      1.675125    0.164883    0.012945
  O      2.036863    1.034635    0.780304
  C      2.585461   -0.809366   -0.673453
  H     -1.632064   -0.776199   -1.722893
  H     -2.421528    0.800984   -1.801665
  H     -3.332440   -0.614701   -1.271636
  H     -2.663506    0.831699    0.657475
  H     -1.634703   -0.956891    2.043272
  H     -1.215435   -1.854345    0.581016
  H     -2.909554   -1.614972    1.014943
  H     -0.599036    1.762159   -0.321378
  H     -0.290027    1.061668    1.280474
  H      2.594425   -0.590500   -1.738310
  H      2.208497   -1.818643   -0.537934
  H      3.588274   -0.716474   -0.270284

 Total Charge           Charge          ....    0
 Multiplicity           Mult            ....    1
 Number of Electrons    NEL             ....   64
 Basis Dimension        Dim             ....  136

ORBITAL ENERGIES
----------------

  NO   OCC          E(Eh)            E(eV)
   0   2.0000     -18.798229      -511.5258
   1   2.0000     -18.732299      -509.7318
   2   2.0000     -10.005886      -272.2740
   3   2.0000      -9.940176      -270.4859
   4   2.0000      -9.905202      -269.5343
   5   2.0000      -9.891837      -269.1706
   6   2.0000      -9.878215      -268.7999
   7   2.0000      -9.877519      -268.7810
   8   2.0000      -1.005468       -27.3602
   9   2.0000      -0.907846       -24.7038
  10   2.0000      -0.739062       -20.1109
  11   2.0000      -0.683126       -18.5888
  12   2.0000      -0.622602       -16.9419
  13   2.0000      -0.616484       -16.7754
  14   2.0000      -0.537372       -14.6226
  15   2.0000      -0.486107       -13.2276
  16   2.0000      -0.443454       -12.0670
  17   2.0000      -0.440287       -11.9808
  18   2.0000      -0.414398       -11.2763
  19   2.0000      -0.401496       -10.9253
  20   2.0000      -0.394405       -10.7323
  21   2.0000      -0.383223       -10.4280
  22   2.0000      -0.359890        -9.7931
  23   2.0000      -0.354322        -9.6416
  24   2.0000      -0.340105        -9.2547
  25   2.0000      -0.326022        -8.8715
  26   2.0000      -0.318088        -8.6556
  27   2.0000      -0.298974        -8.1355
  28   2.0000      -0.296891        -8.0788
  29   2.0000      -0.284167        -7.7326
  30   2.0000      -0.255050        -6.9403
  31   2.0000      -0.216640        -5.8951
  32   0.0000      -0.018351        -0.4994
  33   0.0000       0.028871         0.7856
  34   0.0000       0.050155         1.3648
  35   0.0000       0.075872         2.0646
  36   0.0000       0.079250         2.1565

MULLIKEN ATOMIC CHARGES
-----------------------
   0 C :   -0.252574
   1 C :   -0.173822
   2 C :   -0.256374
   3 C :    0.022916
   4 O :   -0.246249
   5 C :    0.081877
   6 O :   -0.212424
   7 C :   -0.244377
   8 H :    0.107345
   9 H :    0.097158
  10 H :    0.101648
  11 H :    0.081253
  12 H :    0.100701
  13 H :    0.106255
  14 H :    0.103030
  15 H :    0.096837
  16 H :    0.106543
  17 H :    0.131087
  18 H :    0.125047
  19 H :    0.124123
Sum of atomic charges:    0.0000000

LOEWDIN ATOMIC CHARGES
----------------------
   0 C :   -0.332125
   1 C :   -0.168818
   2 C :   -0.331943
   3 C :   -0.095576
   4 O :   -0.067839
   5 C :    0.028689
   6 O :   -0.170524
   7 C :   -0.358959
   8 H :    0.120835
   9 H :    0.117644
  10 H :    0.118792
  11 H :    0.123176
  12 H :    0.119080
  13 H :    0.119729
  14 H :    0.119806
  15 H :    0.113392
  16 H :    0.116898
  17 H :    0.146558
  18 H :    0.141475
  19 H :    0.139711

  Mayer bond orders larger than 0.100000
B(  0-C ,  1-C ) :   1.1028 B(  0-C ,  8-H ) :   0.9486 B(  0-C ,  9-H ) :   0.9512
B(  0-C , 10-H ) :   0.9527 B(  1-C ,  2-C ) :   1.1036 B(  1-C ,  3-C ) :   1.0646
B(  1-C , 11-H ) :   0.8966 B(  2-C , 12-H ) :   0.9513 B(  2-C , 13-H ) :   0.9493
B(  2-C , 14-H ) :   0.9525 B(  3-C ,  4-O ) :   0.9166 B(  3-C , 15-H ) :   0.9311
B(  3-C , 16-H ) :   0.9153 B(  4-O ,  5-C ) :   1.1792 B(  5-C ,  6-O ) :   2.0633
B(  5-C ,  7-C ) :   1.0862 B(  7-C , 17-H ) :   0.9281 B(  7-C , 18-H ) :   0.9306
B(  7-C , 19-H ) :   0.9421

Dispersion correction           -0.015414225
FINAL SINGLE POINT ENERGY      -385.457965907620

DIPOLE MOMENT
-------------

Method             : SCF
Type of density    : Electron Density
Multiplicity       :   1
Irrep              :   0
Energy             :  -385.5328822657741625 Eh
Relativity type    :
Basis              : AO
                                X                 Y                 Z
Electronic contribution:      7.218363302       3.759403970       1.537529944
Nuclear contribution   :     -7.757190770      -4.193933242      -1.951094602
                        -----------------------------------------
Total Dipole Moment    :     -0.538827469      -0.434529272      -0.413564658
                        -----------------------------------------
Magnitude (a.u.)       :      0.806341401
Magnitude (Debye)      :      2.049556961

Rotational constants in cm-1:             0.126693             0.035959             0.034540
Rotational constants in MHz :          3798.156378          1078.028134          1035.468344

                             ****ORCA TERMINATED NORMALLY****
TOTAL RUN TIME: 0 days 0 hours 0 minutes 11 seconds 541 msec
