                         Program Version 6.0.0  -   RELEASE  -
|  1> ! r2scan-3c def2/J RI DEFGRID2 scfconv6 printgap
|  2> %output
|  3>     printlevel normal
|  4> end
|  5> * xyz 0 1
|  6> C -2.0421309343 -0.0187232347 0.7566814417
|  7> C -1.4256340358 -0.678114467 -0.4714708738
|  8> C -0.2563285459 0.1431317176 -1.0256320212
|  9> C 0.9041208669 0.2547655315 -0.0679225776
| 10> O 1.3488108388 1.3342502125 0.275447423
| 11> C 1.484322964 -1.0384386715 0.4251925882
| 12> H -2.8615852073 -0.6202555332 1.1415179652
| 13> H -2.4271963778 0.9671724116 0.5061289823
| 14> H -1.3017223099 0.1032027971 1.5449871443
| 15> H -2.18447825 -0.7640710364 -1.2507137265
| 16> H -1.0882887743 -1.6839323359 -0.2222047924
| 17> H 0.1167891327 -0.3303210711 -1.9361709001
| 18> H -0.594797894 1.1511306467 -1.2739460769
| 19> H 0.8510395994 -1.4217964243 1.2230772139
| 20> H 2.4780354929 -0.8673443924 0.8304396476
| 21> H 1.5177991392 -1.7764562774 -0.3697152667
| 22> *
| 23>
| 24>                          ****END OF INPUT****

CARTESIAN COORDINATES (ANGSTROEM)
---------------------------------
  C     -2.042131   -0.018723    0.756681
  C     -1.425634   -0.678114   -0.471471
  C     -0.256329    0.143132   -1.025632
  C      0.904121    0.254766   -0.067923
  O      1.348811    1.334250    0.275447
  C      1.484323   -1.038439    0.425193
  H     -2.861585   -0.620256    1.141518
  H     -2.427196    0.967172    0.506129
  H     -1.301722    0.103203    1.544987
  H     -2.184478   -0.764071   -1.250714
  H     -1.088289   -1.683932   -0.222205
  H      0.116789   -0.330321   -1.936171
  H     -0.594798    1.151131   -1.273946
  H      0.851040   -1.421796    1.223077
  H      2.478035   -0.867344    0.830440
  H      1.517799   -1.776456   -0.369715

 Total Charge           Charge          ....    0
 Multiplicity           Mult            ....    1
 Number of Electrons    NEL             ....   48
 Basis Dimension        Dim             ....  169

ORBITAL ENERGIES
----------------

  NO   OCC          E(Eh)            E(eV)
   0   2.0000     -18.935392      -515.2582
   1   2.0000     -10.117711      -275.3169
   2   2.0000     -10.042966      -273.2830
   3   2.0000     -10.037437      -273.1325
   4   2.0000     -10.034687      -273.0577
   5   2.0000     -10.025296      -272.8022
   6   2.0000      -1.000660       -27.2293
   7   2.0000      -0.777795       -21.1649
   8   2.0000      -0.716401       -19.4943
   9   2.0000      -0.667732       -18.1699
  10   2.0000      -0.579070       -15.7573
  11   2.0000      -0.498008       -13.5515
  12   2.0000      -0.446069       -12.1381
  13   2.0000      -0.442442       -12.0394
  14   2.0000      -0.417149       -11.3512
  15   2.0000      -0.402449       -10.9512
  16   2.0000      -0.393484       -10.7072
  17   2.0000      -0.367835       -10.0093
  18   2.0000      -0.348938        -9.4951
  19   2.0000      -0.337507        -9.1840
  20   2.0000      -0.325605        -8.8602
  21   2.0000      -0.314621        -8.5613
  22   2.0000      -0.309180        -8.4132
  23   2.0000      -0.210762        -5.7351
  24   0.0000      -0.045719        -1.2441
  25   0.0000       0.072989         1.9861
  26   0.0000       0.109533         2.9805
  27   0.0000       0.115400         3.1402
  28   0.0000       0.126448         3.4408

MULLIKEN ATOMIC CHARGES
-----------------------
   0 C :   -0.454584
   1 C :   -0.263144
   2 C :   -0.275600
   3 C :    0.262919
   4 O :   -0.339337
   5 C :   -0.515697
   6 H :    0.148488
   7 H :    0.151647
   8 H :    0.148542
   9 H :    0.149035
  10 H :    0.147062
  11 H :    0.158269
  12 H :    0.167095
  13 H :    0.175540
  14 H :    0.178760
  15 H :    0.161005
Sum of atomic charges:   -0.0000000

LOEWDIN ATOMIC CHARGES
----------------------
   0 C :   -0.416477
   1 C :   -0.303538
   2 C :   -0.281905
   3 C :    0.209917
   4 O :   -0.462366
   5 C :   -0.390816
   6 H :    0.152303
   7 H :    0.155415
   8 H :    0.153563
   9 H :    0.156047
  10 H :    0.153871
  11 H :    0.174221
  12 H :    0.177739
  13 H :    0.178391
  14 H :    0.177144
  15 H :    0.166492

  Mayer bond orders larger than 0.100000
B(  0-C ,  1-C ) :   0.9066 B(  0-C ,  6-H ) :   0.9680 B(  0-C ,  7-H ) :   0.9771
B(  0-C ,  8-H ) :   0.9724 B(  1-C ,  2-C ) :   0.8740 B(  1-C ,  9-H ) :   0.9599
B(  1-C , 10-H ) :   0.9708 B(  2-C ,  3-C ) :   0.8956 B(  2-C , 11-H ) :   0.9438
B(  2-C , 12-H ) :   0.9906 B(  3-C ,  4-O ) :   1.9620 B(  3-C ,  5-C ) :   0.9008
B(  5-C , 13-H ) :   0.9380 B(  5-C , 14-H ) :   0.9700 B(  5-C , 15-H ) :   0.9588

Dispersion correction           -0.003915288
FINAL SINGLE POINT ENERGY      -271.703164203804

DIPOLE MOMENT
-------------

Method             : SCF
Type of density    : Electron Density
Multiplicity       :   1
Irrep              :   0
Energy             :  -271.7066294515651634 Eh
Relativity type    :
Basis              : AO
                                X                 Y                 Z
Electronic contribution:      4.593461847       3.833697426      -0.495537084
Nuclear contribution   :     -5.134640071      -4.898686512       0.185539128
                        -----------------------------------------
Total Dipole Moment    :     -0.541178224      -1.064989086      -0.309997956
                        -----------------------------------------
Magnitude (a.u.)       :      1.234169500
Magnitude (Debye)      :      3.137009568

Rotational constants in cm-1:             0.176885             0.078456             0.072481
Rotational constants in MHz :          5302.883413          2352.061032          2172.922565

                             ****ORCA TERMINATED NORMALLY****
TOTAL RUN TIME: 0 days 0 hours 0 minutes 22 seconds 947 msec
