                         Program Version 6.0.0  -   RELEASE  -
|  1> ! r2scan-3c def2/J RI DEFGRID2 scfconv6 printgap
|  2> %output
|  3>     printlevel normal
|  4> end
|  5> %cpcm
|  6>     smd true
|  7>     smdsolvent "water"
|  8> end
|  9> * xyz 0 1
| 10> C -2.0421309343 -0.0187232347 0.7566814417
| 11> C -1.4256340358 -0.678114467 -0.4714708738
| 12> C -0.2563285459 0.1431317176 -1.0256320212
| 13> C 0.9041208669 0.2547655315 -0.0679225776
| 14> O 1.3488108388 1.3342502125 0.275447423
| 15> C 1.484322964 -1.0384386715 0.4251925882
| 16> H -2.8615852073 -0.6202555332 1.1415179652
| 17> H -2.4271963778 0.9671724116 0.5061289823
| 18> H -1.3017223099 0.1032027971 1.5449871443
| 19> H -2.18447825 -0.7640710364 -1.2507137265
| 20> H -1.0882887743 -1.6839323359 -0.2222047924
| 21> H 0.1167891327 -0.3303210711 -1.9361709001
| 22> H -0.594797894 1.1511306467 -1.2739460769
| 23> H 0.8510395994 -1.4217964243 1.2230772139
| 24> H 2.4780354929 -0.8673443924 0.8304396476
| 25> H 1.5177991392 -1.7764562774 -0.3697152667
| 26> *
| 27>
| 28>                          ****END OF INPUT****

CARTESIAN COORDINATES (ANGSTROEM)
---------------------------------
  C     -2.042131   -0.018723    0.756681
  C     -1.425634   -0.678114   -0.471471
  C     -0.256329    0.143132   -1.025632
  C      0.904121    0.254766   -0.067923
  O      1.348811    1.334250    0.275447
  C      1.484323   -1.038439    0.425193
  H     -2.861585   -0.620256    1.141518
  H     -2.427196    0.967172    0.506129
  H     -1.301722    0.103203    1.544987
  H     -2.184478   -0.764071   -1.250714
  H     -1.088289   -1.683932   -0.222205
  H      0.116789   -0.330321   -1.936171
  H     -0.594798    1.151131   -1.273946
  H      0.851040   -1.421796    1.223077
  H      2.478035   -0.867344    0.830440
  H      1.517799   -1.776456   -0.369715

 Total Charge           Charge          ....    0
 Multiplicity           Mult            ....    1
 Number of Electrons    NEL             ....   48
 Basis Dimension        Dim             ....  169

ORBITAL ENERGIES
----------------

  NO   OCC          E(Eh)            E(eV)
   0   2.0000     -18.945755      -515.5402
   1   2.0000     -10.124424      -275.4996
   2   2.0000     -10.027837      -272.8713
   3   2.0000     -10.027645      -272.8661
   4   2.0000     -10.022320      -272.7212
   5   2.0000     -10.011377      -272.4234
   6   2.0000      -1.013744       -27.5854
   7   2.0000      -0.766624       -20.8609
   8   2.0000      -0.706090       -19.2137
   9   2.0000      -0.656820       -17.8730
  10   2.0000      -0.567423       -15.4404
  11   2.0000      -0.492983       -13.4148
  12   2.0000      -0.440926       -11.9982
  13   2.0000      -0.435334       -11.8460
  14   2.0000      -0.415407       -11.3038
  15   2.0000      -0.393680       -10.7126
  16   2.0000      -0.382426       -10.4063
  17   2.0000      -0.363526        -9.8920
  18   2.0000      -0.339028        -9.2254
  19   2.0000      -0.335895        -9.1402
  20   2.0000      -0.313785        -8.5385
  21   2.0000      -0.304199        -8.2777
  22   2.0000      -0.299510        -8.1501
  23   2.0000      -0.221958        -6.0398
  24   0.0000      -0.048466        -1.3188
  25   0.0000       0.087170         2.3720
  26   0.0000       0.119244         3.2448
  27   0.0000       0.130734         3.5575
  28   0.0000       0.140310         3.8180

MULLIKEN ATOMIC CHARGES
-----------------------
   0 C :   -0.505818
   1 C :   -0.257520
   2 C :   -0.283167
   3 C :    0.300589
   4 O :   -0.451415
   5 C :   -0.544919
   6 H :    0.160694
   7 H :    0.161088
   8 H :    0.159072
   9 H :    0.162339
  10 H :    0.164518
  11 H :    0.188229
  12 H :    0.166414
  13 H :    0.207912
  14 H :    0.180064
  15 H :    0.191920
Sum of atomic charges:   -0.0000000

LOEWDIN ATOMIC CHARGES
----------------------
   0 C :   -0.425439
   1 C :   -0.298403
   2 C :   -0.278456
   3 C :    0.227921
   4 O :   -0.543036
   5 C :   -0.388010
   6 H :    0.156096
   7 H :    0.155789
   8 H :    0.155064
   9 H :    0.161014
  10 H :    0.161023
  11 H :    0.188490
  12 H :    0.176989
  13 H :    0.192815
  14 H :    0.177198
  15 H :    0.180947

  Mayer bond orders larger than 0.100000
B(  0-C ,  1-C ) :   0.8865 B(  0-C ,  6-H ) :   0.9649 B(  0-C ,  7-H ) :   0.9769
B(  0-C ,  8-H ) :   0.9715 B(  1-C ,  2-C ) :   0.8732 B(  1-C ,  9-H ) :   0.9586
B(  1-C , 10-H ) :   0.9689 B(  2-C ,  3-C ) :   0.9166 B(  2-C , 11-H ) :   0.9290
B(  2-C , 12-H ) :   0.9883 B(  3-C ,  4-O ) :   1.8801 B(  3-C ,  5-C ) :   0.9261
B(  5-C , 13-H ) :   0.9230 B(  5-C , 14-H ) :   0.9652 B(  5-C , 15-H ) :   0.9456

Dispersion correction           -0.003915288
FINAL SINGLE POINT ENERGY      -271.710449671631

DIPOLE MOMENT
-------------

Method             : SCF
Type of density    : Electron Density
Multiplicity       :   1
Irrep              :   0
Energy             :  -271.7139149193922663 Eh
Relativity type    :
Basis              : AO
                                X                 Y                 Z
Electronic contribution:      4.398847699       3.304864058      -0.656604878
Nuclear contribution   :     -5.134640071      -4.898686512       0.185539128
                        -----------------------------------------
Total Dipole Moment    :     -0.735792372      -1.593822453      -0.471065749
                        -----------------------------------------
Magnitude (a.u.)       :      1.817570732
Magnitude (Debye)      :      4.619897653

Rotational constants in cm-1:             0.176885             0.078456             0.072481
Rotational constants in MHz :          5302.883413          2352.061032          2172.922565

                             ****ORCA TERMINATED NORMALLY****
TOTAL RUN TIME: 0 days 0 hours 0 minutes 26 seconds 364 msec
