                         Program Version 6.0.0  -   RELEASE  -
|  1> ! r2scan-3c def2/J RI DEFGRID2 scfconv6 printgap
|  2> %output
|  3>     printlevel normal
|  4> end
|  5> * xyz 0 1
|  6> C -2.8344651974 0.1457659795 0.0548437596
|  7> C -2.315583251 -1.1254783131 0.2380825989
|  8> C -0.9496454372 -1.3299986495 0.1834506567
|  9> C -0.0734991941 -0.2748930985 -0.0572638121
| 10> C -0.6059620184 0.9940944179 -0.2433680818
| 11> C -1.9747476146 1.2021679013 -0.185553715
| 12> C 1.4001427181 -0.5686979539 -0.124337067
| 13> C 2.3194447004 0.6423277563 0.0096302542
| 14> O 3.6491443107 0.1643937971 0.0987857428
| 15> H -3.9004161 0.3103201196 0.0992367458
| 16> H -2.9767756609 -1.9582806249 0.4260292861
| 17> H -0.550348723 -2.3233971128 0.328886718
| 18> H 0.0429083673 1.8338882456 -0.4356793605
| 19> H -2.3692049496 2.197017172 -0.3306922325
| 20> H 1.6644987563 -1.2706228127 0.6705262482
| 21> H 1.6258438264 -1.0660935082 -1.0722711296
| 22> H 2.2169351856 1.2985937054 -0.8642240413
| 23> H 2.0576123758 1.2072060736 0.9148309817
| 24> H 4.2556613941 0.9121597278 0.1790646274
| 25> *
| 26>
| 27>                          ****END OF INPUT****

CARTESIAN COORDINATES (ANGSTROEM)
---------------------------------
  C     -2.834465    0.145766    0.054844
  C     -2.315583   -1.125478    0.238083
  C     -0.949645   -1.329999    0.183451
  C     -0.073499   -0.274893   -0.057264
  C     -0.605962    0.994094   -0.243368
  C     -1.974748    1.202168   -0.185554
  C      1.400143   -0.568698   -0.124337
  C      2.319445    0.642328    0.009630
  O      3.649144    0.164394    0.098786
  H     -3.900416    0.310320    0.099237
  H     -2.976776   -1.958281    0.426029
  H     -0.550349   -2.323397    0.328887
  H      0.042908    1.833888   -0.435679
  H     -2.369205    2.197017   -0.330692
  H      1.664499   -1.270623    0.670526
  H      1.625844   -1.066094   -1.072271
  H      2.216935    1.298594   -0.864224
  H      2.057612    1.207206    0.914831
  H      4.255661    0.912160    0.179065

 Total Charge           Charge          ....    0
 Multiplicity           Mult            ....    1
 Number of Electrons    NEL             ....   66
 Basis Dimension        Dim             ....  226

ORBITAL ENERGIES
----------------

  NO   OCC          E(Eh)            E(eV)
   0   2.0000     -18.951819      -515.7052
   1   2.0000     -10.081299      -274.3261
   2   2.0000     -10.045125      -273.3417
   3   2.0000     -10.034659      -273.0570
   4   2.0000     -10.033846      -273.0348
   5   2.0000     -10.033547      -273.0267
   6   2.0000     -10.032551      -272.9996
   7   2.0000     -10.031370      -272.9674
   8   2.0000     -10.030990      -272.9571
   9   2.0000      -0.987854       -26.8809
  10   2.0000      -0.829411       -22.5694
  11   2.0000      -0.754893       -20.5417
  12   2.0000      -0.715638       -19.4735
  13   2.0000      -0.686707       -18.6862
  14   2.0000      -0.603146       -16.4124
  15   2.0000      -0.572808       -15.5869
  16   2.0000      -0.544635       -14.8203
  17   2.0000      -0.497755       -13.5446
  18   2.0000      -0.469665       -12.7802
  19   2.0000      -0.444754       -12.1024
  20   2.0000      -0.426248       -11.5988
  21   2.0000      -0.420662       -11.4468
  22   2.0000      -0.388836       -10.5808
  23   2.0000      -0.374011       -10.1774
  24   2.0000      -0.368986       -10.0406
  25   2.0000      -0.358964        -9.7679
  26   2.0000      -0.328758        -8.9460
  27   2.0000      -0.317427        -8.6376
  28   2.0000      -0.309473        -8.4212
  29   2.0000      -0.292520        -7.9599
  30   2.0000      -0.242499        -6.5987
  31   2.0000      -0.235160        -6.3990
  32   2.0000      -0.226362        -6.1596
  33   0.0000      -0.031995        -0.8706
  34   0.0000      -0.027691        -0.7535
  35   0.0000       0.055082         1.4989
  36   0.0000       0.082379         2.2417
  37   0.0000       0.107379         2.9219

MULLIKEN ATOMIC CHARGES
-----------------------
   0 C :   -0.149543
   1 C :   -0.152863
   2 C :   -0.201126
   3 C :    0.119011
   4 C :   -0.178729
   5 C :   -0.168628
   6 C :   -0.290088
   7 C :   -0.171272
   8 O :   -0.426596
   9 H :    0.145926
  10 H :    0.145118
  11 H :    0.146258
  12 H :    0.139067
  13 H :    0.144418
  14 H :    0.167556
  15 H :    0.174732
  16 H :    0.117852
  17 H :    0.146356
  18 H :    0.292551
Sum of atomic charges:   -0.0000000

LOEWDIN ATOMIC CHARGES
----------------------
   0 C :   -0.173093
   1 C :   -0.160508
   2 C :   -0.159809
   3 C :   -0.084803
   4 C :   -0.168951
   5 C :   -0.161508
   6 C :   -0.250095
   7 C :    0.011320
   8 O :   -0.625451
   9 H :    0.166326
  10 H :    0.166831
  11 H :    0.169764
  12 H :    0.168702
  13 H :    0.166333
  14 H :    0.177185
  15 H :    0.176128
  16 H :    0.155509
  17 H :    0.159220
  18 H :    0.266898

  Mayer bond orders larger than 0.100000
B(  0-C ,  1-C ) :   1.4133 B(  0-C ,  5-C ) :   1.4289 B(  0-C ,  9-H ) :   0.9476
B(  1-C ,  2-C ) :   1.4402 B(  1-C , 10-H ) :   0.9482 B(  2-C ,  3-C ) :   1.3813
B(  2-C , 11-H ) :   0.9571 B(  3-C ,  4-C ) :   1.4393 B(  3-C ,  6-C ) :   0.8283
B(  4-C ,  5-C ) :   1.4262 B(  4-C , 12-H ) :   0.9454 B(  5-C , 13-H ) :   0.9490
B(  6-C ,  7-C ) :   0.8833 B(  6-C , 14-H ) :   1.0197 B(  6-C , 15-H ) :   0.9521
B(  7-C ,  8-O ) :   0.9561 B(  7-C , 16-H ) :   0.9297 B(  7-C , 17-H ) :   0.9916
B(  8-O , 18-H ) :   0.9001

Dispersion correction           -0.005983199
FINAL SINGLE POINT ENERGY      -385.986815388350

DIPOLE MOMENT
-------------

Method             : SCF
Type of density    : Electron Density
Multiplicity       :   1
Irrep              :   0
Energy             :  -385.9880144700372284 Eh
Relativity type    :
Basis              : AO
                                X                 Y                 Z
Electronic contribution:     -1.984583699      -0.574760716       0.077584117
Nuclear contribution   :      1.993007433       1.072690751      -0.077616254
                        -----------------------------------------
Total Dipole Moment    :      0.008423734       0.497930035      -0.000032138
                        -----------------------------------------
Magnitude (a.u.)       :      0.498001285
Magnitude (Debye)      :      1.265818670

Rotational constants in cm-1:             0.160291             0.028380             0.024440
Rotational constants in MHz :          4805.416778           850.801774           732.702174

                             ****ORCA TERMINATED NORMALLY****
TOTAL RUN TIME: 0 days 0 hours 0 minutes 24 seconds 780 msec
