                         Program Version 6.0.0  -   RELEASE  -
|  1> ! pbe def2-sv(p) def2/J RI DEFGRID1 loosescf d4 GCP(DFT/SV(P)) printgap
|  2> %output
|  3>     printlevel normal
|  4> end
|  5> * xyz 0 1
|  6> C -2.1575227177 -0.7767046285 0.3790207777
|  7> C -1.2383782496 -0.2102816502 -0.6860278706
|  8> S 8.94687e-05 0.9505445113 -0.0009689526
|  9> C 1.238393139 -0.208933734 0.6865970976
| 10> C 2.1573025318 -0.7774535929 -0.3775502527
| 11> H -1.5979124892 -1.3552370898 1.1108169831
| 12> H -2.6716494248 0.0290949388 0.8972381491
| 13> H -2.896720448 -1.4274568236 -0.0822475834
| 14> H -1.7968796236 0.383956008 -1.4076605038
| 15> H -0.6957312448 -0.9930585965 -1.2133988928
| 16> H 1.7970561315 0.3868803688 1.4068041199
| 17> H 0.6957651252 -0.990606633 1.2156468647
| 18> H 2.6713368107 0.0272204248 -0.8976435268
| 19> H 2.8965905922 -1.4271065634 0.0850227405
| 20> H 1.5977447113 -1.357631335 -1.108059776
| 21> *
| 22>
| 23>                          ****END OF INPUT****

CARTESIAN COORDINATES (ANGSTROEM)
---------------------------------
  C     -2.157523   -0.776705    0.379021
  C     -1.238378   -0.210282   -0.686028
  S      0.000089    0.950545   -0.000969
  C      1.238393   -0.208934    0.686597
  C      2.157303   -0.777454   -0.377550
  H     -1.597912   -1.355237    1.110817
  H     -2.671649    0.029095    0.897238
  H     -2.896720   -1.427457   -0.082248
  H     -1.796880    0.383956   -1.407661
  H     -0.695731   -0.993059   -1.213399
  H      1.797056    0.386880    1.406804
  H      0.695765   -0.990607    1.215647
  H      2.671337    0.027220   -0.897644
  H      2.896591   -1.427107    0.085023
  H      1.597745   -1.357631   -1.108060

 Total Charge           Charge          ....    0
 Multiplicity           Mult            ....    1
 Number of Electrons    NEL             ....   50
 Basis Dimension        Dim             ....   94

ORBITAL ENERGIES
----------------

  NO   OCC          E(Eh)            E(eV)
   0   2.0000     -88.006441     -2394.7770
   1   2.0000      -9.912416      -269.7306
   2   2.0000      -9.912333      -269.7283
   3   2.0000      -9.880154      -268.8527
   4   2.0000      -9.880144      -268.8524
   5   2.0000      -7.650492      -208.1805
   6   2.0000      -5.679279      -154.5410
   7   2.0000      -5.675149      -154.4287
   8   2.0000      -5.666644      -154.1972
   9   2.0000      -0.735621       -20.0173
  10   2.0000      -0.686896       -18.6914
  11   2.0000      -0.616040       -16.7633
  12   2.0000      -0.559945       -15.2369
  13   2.0000      -0.502912       -13.6849
  14   2.0000      -0.426667       -11.6102
  15   2.0000      -0.411208       -11.1895
  16   2.0000      -0.384707       -10.4684
  17   2.0000      -0.366486        -9.9726
  18   2.0000      -0.351676        -9.5696
  19   2.0000      -0.337284        -9.1780
  20   2.0000      -0.322236        -8.7685
  21   2.0000      -0.315505        -8.5853
  22   2.0000      -0.293387        -7.9835
  23   2.0000      -0.257105        -6.9962
  24   2.0000      -0.176557        -4.8044
  25   0.0000       0.026134         0.7111
  26   0.0000       0.029723         0.8088
  27   0.0000       0.059369         1.6155
  28   0.0000       0.067145         1.8271
  29   0.0000       0.077776         2.1164

MULLIKEN ATOMIC CHARGES
-----------------------
   0 C :   -0.244727
   1 C :   -0.304878
   2 S :   -0.071663
   3 C :   -0.304860
   4 C :   -0.244758
   5 H :    0.109709
   6 H :    0.111114
   7 H :    0.103472
   8 H :    0.133605
   9 H :    0.127521
  10 H :    0.133613
  11 H :    0.127553
  12 H :    0.111122
  13 H :    0.103451
  14 H :    0.109726
Sum of atomic charges:   -0.0000000

LOEWDIN ATOMIC CHARGES
----------------------
   0 C :   -0.359090
   1 C :   -0.339637
   2 S :    0.184900
   3 C :   -0.339625
   4 C :   -0.359107
   5 H :    0.117682
   6 H :    0.122535
   7 H :    0.120741
   8 H :    0.126914
   9 H :    0.118402
  10 H :    0.126919
  11 H :    0.118413
  12 H :    0.122533
  13 H :    0.120734
  14 H :    0.117684

  Mayer bond orders larger than 0.100000
B(  0-C ,  1-C ) :   1.1154 B(  0-C ,  5-H ) :   0.9509 B(  0-C ,  6-H ) :   0.9526
B(  0-C ,  7-H ) :   0.9375 B(  1-C ,  2-S ) :   1.0455 B(  1-C ,  8-H ) :   0.9286
B(  1-C ,  9-H ) :   0.9188 B(  2-S ,  3-C ) :   1.0455 B(  3-C ,  4-C ) :   1.1154
B(  3-C , 10-H ) :   0.9286 B(  3-C , 11-H ) :   0.9187 B(  4-C , 12-H ) :   0.9526
B(  4-C , 13-H ) :   0.9375 B(  4-C , 14-H ) :   0.9509

Dispersion correction           -0.011306359
FINAL SINGLE POINT ENERGY      -555.917360084749

DIPOLE MOMENT
-------------

Method             : SCF
Type of density    : Electron Density
Multiplicity       :   1
Irrep              :   0
Energy             :  -555.9660550339820020 Eh
Relativity type    :
Basis              : AO
                                X                 Y                 Z
Electronic contribution:      0.000419244       5.730288227      -0.005526419
Nuclear contribution   :     -0.000377676      -6.335197165       0.006143046
                        -----------------------------------------
Total Dipole Moment    :      0.000041568      -0.604908938       0.000616627
                        -----------------------------------------
Magnitude (a.u.)       :      0.604909253
Magnitude (Debye)      :      1.537557130

Rotational constants in cm-1:             0.209500             0.077179             0.068190
Rotational constants in MHz :          6280.649753          2313.768449          2044.296172

                             ****ORCA TERMINATED NORMALLY****
TOTAL RUN TIME: 0 days 0 hours 0 minutes 6 seconds 688 msec
