                         Program Version 6.0.0  -   RELEASE  -
|  1> ! r2scan-3c def2/J RI DEFGRID2 scfconv6 printgap
|  2> %output
|  3>     printlevel normal
|  4> end
|  5> * xyz 0 1
|  6> C -1.3019884262 0.0546196029 0.5461797282
|  7> C 0.1001693616 0.6868619882 0.630454662
|  8> C 1.2073907849 -0.3809269839 0.6566340497
|  9> O 1.2361763524 -1.2246959048 -0.4653024601
| 10> O 0.3206656816 1.5394958532 -0.476426504
| 11> O -1.4876944947 -0.6682422938 -0.6510834377
| 12> H -2.0635524761 0.8419704354 0.630565967
| 13> H -1.4414271736 -0.6546947819 1.3635005927
| 14> H 0.173968819 1.2467121498 1.5726795849
| 15> H 1.0883301842 -0.9697623594 1.5777257024
| 16> H 2.1787560401 0.1191377484 0.6782440703
| 17> H 0.3306557011 -1.5420139038 -0.6313093063
| 18> H -0.1816498848 2.3579528412 -0.3639995735
| 19> H -1.2490781427 -0.0853945048 -1.3895586211
| 20> *
| 21>
| 22>                          ****END OF INPUT****

CARTESIAN COORDINATES (ANGSTROEM)
---------------------------------
  C     -1.301988    0.054620    0.546180
  C      0.100169    0.686862    0.630455
  C      1.207391   -0.380927    0.656634
  O      1.236176   -1.224696   -0.465302
  O      0.320666    1.539496   -0.476427
  O     -1.487694   -0.668242   -0.651083
  H     -2.063552    0.841970    0.630566
  H     -1.441427   -0.654695    1.363501
  H      0.173969    1.246712    1.572680
  H      1.088330   -0.969762    1.577726
  H      2.178756    0.119138    0.678244
  H      0.330656   -1.542014   -0.631309
  H     -0.181650    2.357953   -0.364000
  H     -1.249078   -0.085395   -1.389559

 Total Charge           Charge          ....    0
 Multiplicity           Mult            ....    1
 Number of Electrons    NEL             ....   50
 Basis Dimension        Dim             ....  169

ORBITAL ENERGIES
----------------

  NO   OCC          E(Eh)            E(eV)
   0   2.0000     -18.967008      -516.1185
   1   2.0000     -18.966495      -516.1046
   2   2.0000     -18.933201      -515.1986
   3   2.0000     -10.094876      -274.6955
   4   2.0000     -10.090488      -274.5761
   5   2.0000     -10.075666      -274.1728
   6   2.0000      -1.017702       -27.6931
   7   2.0000      -0.993022       -27.0215
   8   2.0000      -0.971016       -26.4227
   9   2.0000      -0.731688       -19.9102
  10   2.0000      -0.649200       -17.6656
  11   2.0000      -0.576249       -15.6805
  12   2.0000      -0.510100       -13.8805
  13   2.0000      -0.491905       -13.3854
  14   2.0000      -0.458399       -12.4737
  15   2.0000      -0.428921       -11.6715
  16   2.0000      -0.416410       -11.3311
  17   2.0000      -0.391820       -10.6620
  18   2.0000      -0.370221       -10.0742
  19   2.0000      -0.341192        -9.2843
  20   2.0000      -0.320561        -8.7229
  21   2.0000      -0.299464        -8.1488
  22   2.0000      -0.266393        -7.2489
  23   2.0000      -0.244076        -6.6416
  24   2.0000      -0.223736        -6.0882
  25   0.0000       0.030740         0.8365
  26   0.0000       0.068936         1.8758
  27   0.0000       0.097538         2.6541
  28   0.0000       0.105441         2.8692
  29   0.0000       0.118121         3.2142

MULLIKEN ATOMIC CHARGES
-----------------------
   0 C :   -0.174542
   1 C :    0.039343
   2 C :   -0.188451
   3 O :   -0.421283
   4 O :   -0.429999
   5 O :   -0.454384
   6 H :    0.134267
   7 H :    0.143233
   8 H :    0.135441
   9 H :    0.122968
  10 H :    0.145003
  11 H :    0.323925
  12 H :    0.297379
  13 H :    0.327099
Sum of atomic charges:    0.0000000

LOEWDIN ATOMIC CHARGES
----------------------
   0 C :    0.015257
   1 C :    0.059938
   2 C :    0.026034
   3 O :   -0.593998
   4 O :   -0.589444
   5 O :   -0.608055
   6 H :    0.161628
   7 H :    0.182987
   8 H :    0.173415
   9 H :    0.160574
  10 H :    0.184747
  11 H :    0.276872
  12 H :    0.271531
  13 H :    0.278513

  Mayer bond orders larger than 0.100000
B(  0-C ,  1-C ) :   0.9388 B(  0-C ,  5-O ) :   0.9481 B(  0-C ,  6-H ) :   0.9686
B(  0-C ,  7-H ) :   0.9685 B(  1-C ,  2-C ) :   0.9572 B(  1-C ,  4-O ) :   0.8991
B(  1-C ,  8-H ) :   0.9361 B(  2-C ,  3-O ) :   0.9985 B(  2-C ,  9-H ) :   0.9663
B(  2-C , 10-H ) :   0.9668 B(  3-O , 11-H ) :   0.8453 B(  4-O , 12-H ) :   0.8986
B(  5-O , 13-H ) :   0.8666

Dispersion correction           -0.003145417
FINAL SINGLE POINT ENERGY      -344.724169514063

DIPOLE MOMENT
-------------

Method             : SCF
Type of density    : Electron Density
Multiplicity       :   1
Irrep              :   0
Energy             :  -344.7323066804235623 Eh
Relativity type    :
Basis              : AO
                                X                 Y                 Z
Electronic contribution:      0.355042843      -0.282976185      -2.466655987
Nuclear contribution   :     -1.091003999       1.227424062       3.201642467
                        -----------------------------------------
Total Dipole Moment    :     -0.735961156       0.944447877       0.734986480
                        -----------------------------------------
Magnitude (a.u.)       :      1.404929088
Magnitude (Debye)      :      3.571045945

Rotational constants in cm-1:             0.136966             0.110886             0.082734
Rotational constants in MHz :          4106.146967          3324.284835          2480.315764

                             ****ORCA TERMINATED NORMALLY****
TOTAL RUN TIME: 0 days 0 hours 0 minutes 20 seconds 816 msec
