                         Program Version 6.0.0  -   RELEASE  -
|  1> ! r2scan-3c def2/J RI DEFGRID2 scfconv6 printgap
|  2> %output
|  3>     printlevel normal
|  4> end
|  5> %cpcm
|  6>     smd true
|  7>     smdsolvent "water"
|  8> end
|  9> * xyz 0 1
| 10> C -1.3019884262 0.0546196029 0.5461797282
| 11> C 0.1001693616 0.6868619882 0.630454662
| 12> C 1.2073907849 -0.3809269839 0.6566340497
| 13> O 1.2361763524 -1.2246959048 -0.4653024601
| 14> O 0.3206656816 1.5394958532 -0.476426504
| 15> O -1.4876944947 -0.6682422938 -0.6510834377
| 16> H -2.0635524761 0.8419704354 0.630565967
| 17> H -1.4414271736 -0.6546947819 1.3635005927
| 18> H 0.173968819 1.2467121498 1.5726795849
| 19> H 1.0883301842 -0.9697623594 1.5777257024
| 20> H 2.1787560401 0.1191377484 0.6782440703
| 21> H 0.3306557011 -1.5420139038 -0.6313093063
| 22> H -0.1816498848 2.3579528412 -0.3639995735
| 23> H -1.2490781427 -0.0853945048 -1.3895586211
| 24> *
| 25>
| 26>                          ****END OF INPUT****

CARTESIAN COORDINATES (ANGSTROEM)
---------------------------------
  C     -1.301988    0.054620    0.546180
  C      0.100169    0.686862    0.630455
  C      1.207391   -0.380927    0.656634
  O      1.236176   -1.224696   -0.465302
  O      0.320666    1.539496   -0.476427
  O     -1.487694   -0.668242   -0.651083
  H     -2.063552    0.841970    0.630566
  H     -1.441427   -0.654695    1.363501
  H      0.173969    1.246712    1.572680
  H      1.088330   -0.969762    1.577726
  H      2.178756    0.119138    0.678244
  H      0.330656   -1.542014   -0.631309
  H     -0.181650    2.357953   -0.364000
  H     -1.249078   -0.085395   -1.389559

 Total Charge           Charge          ....    0
 Multiplicity           Mult            ....    1
 Number of Electrons    NEL             ....   50
 Basis Dimension        Dim             ....  169

ORBITAL ENERGIES
----------------

  NO   OCC          E(Eh)            E(eV)
   0   2.0000     -18.959393      -515.9113
   1   2.0000     -18.956932      -515.8443
   2   2.0000     -18.947278      -515.5817
   3   2.0000     -10.081756      -274.3385
   4   2.0000     -10.073055      -274.1017
   5   2.0000     -10.071829      -274.0684
   6   2.0000      -1.010272       -27.4909
   7   2.0000      -0.984110       -26.7790
   8   2.0000      -0.980569       -26.6826
   9   2.0000      -0.720269       -19.5995
  10   2.0000      -0.640318       -17.4239
  11   2.0000      -0.569325       -15.4921
  12   2.0000      -0.498381       -13.5616
  13   2.0000      -0.485466       -13.2102
  14   2.0000      -0.450286       -12.2529
  15   2.0000      -0.421624       -11.4730
  16   2.0000      -0.406789       -11.0693
  17   2.0000      -0.389815       -10.6074
  18   2.0000      -0.369413       -10.0522
  19   2.0000      -0.341138        -9.2828
  20   2.0000      -0.315618        -8.5884
  21   2.0000      -0.298834        -8.1317
  22   2.0000      -0.260206        -7.0806
  23   2.0000      -0.247066        -6.7230
  24   2.0000      -0.226521        -6.1639
  25   0.0000       0.050292         1.3685
  26   0.0000       0.094546         2.5727
  27   0.0000       0.107430         2.9233
  28   0.0000       0.119247         3.2449
  29   0.0000       0.138659         3.7731

MULLIKEN ATOMIC CHARGES
-----------------------
   0 C :   -0.177900
   1 C :    0.054807
   2 C :   -0.201099
   3 O :   -0.505719
   4 O :   -0.501359
   5 O :   -0.512868
   6 H :    0.153593
   7 H :    0.161152
   8 H :    0.163870
   9 H :    0.145813
  10 H :    0.157370
  11 H :    0.356386
  12 H :    0.349543
  13 H :    0.356411
Sum of atomic charges:    0.0000000

LOEWDIN ATOMIC CHARGES
----------------------
   0 C :    0.020558
   1 C :    0.070813
   2 C :    0.022167
   3 O :   -0.640481
   4 O :   -0.616629
   5 O :   -0.633331
   6 H :    0.172752
   7 H :    0.190057
   8 H :    0.188961
   9 H :    0.172616
  10 H :    0.186675
  11 H :    0.285254
  12 H :    0.291779
  13 H :    0.288809

  Mayer bond orders larger than 0.100000
B(  0-C ,  1-C ) :   0.9521 B(  0-C ,  5-O ) :   0.9341 B(  0-C ,  6-H ) :   0.9602
B(  0-C ,  7-H ) :   0.9614 B(  1-C ,  2-C ) :   0.9600 B(  1-C ,  4-O ) :   0.9005
B(  1-C ,  8-H ) :   0.9286 B(  2-C ,  3-O ) :   0.9669 B(  2-C ,  9-H ) :   0.9601
B(  2-C , 10-H ) :   0.9646 B(  3-O , 11-H ) :   0.8300 B(  4-O , 12-H ) :   0.8722
B(  5-O , 13-H ) :   0.8520

Dispersion correction           -0.003145417
FINAL SINGLE POINT ENERGY      -344.744947509566

DIPOLE MOMENT
-------------

Method             : SCF
Type of density    : Electron Density
Multiplicity       :   1
Irrep              :   0
Energy             :  -344.7530846759271412 Eh
Relativity type    :
Basis              : AO
                                X                 Y                 Z
Electronic contribution:      0.057317977       0.043268240      -2.083811248
Nuclear contribution   :     -1.091003999       1.227424062       3.201642467
                        -----------------------------------------
Total Dipole Moment    :     -1.033686022       1.270692302       1.117831219
                        -----------------------------------------
Magnitude (a.u.)       :      1.983106742
Magnitude (Debye)      :      5.040656751

Rotational constants in cm-1:             0.136966             0.110886             0.082734
Rotational constants in MHz :          4106.146967          3324.284835          2480.315764

                             ****ORCA TERMINATED NORMALLY****
TOTAL RUN TIME: 0 days 0 hours 0 minutes 24 seconds 304 msec
