                         Program Version 6.0.0  -   RELEASE  -
|  1> ! pbe def2-sv(p) def2/J RI DEFGRID1 loosescf d4 GCP(DFT/SV(P)) printgap
|  2> %output
|  3>     printlevel normal
|  4> end
|  5> * xyz 0 1
|  6> C -2.7159688893 0.0790640448 0.0216648942
|  7> C -1.389305764 -0.6546826131 0.018788418
|  8> S -3.40607e-05 0.5421763395 -0.0027845341
|  9> C 1.3894346158 -0.6546457511 -0.0081060289
| 10> C 2.7159171603 0.0792177927 -0.0263054125
| 11> H -2.805052684 0.7015199985 -0.8653047372
| 12> H -3.5327029432 -0.63834623 0.0338827005
| 13> H -2.7925295017 0.7172998907 0.8985392749
| 14> H -1.2867695625 -1.2816237402 -0.8677036965
| 15> H -1.2736005898 -1.2650307089 0.9151911278
| 16> H 1.289209155 -1.2671864766 0.8886707347
| 17> H 1.2716562273 -1.2794547319 -0.8942254317
| 18> H 3.532794054 -0.6381277591 -0.0299130951
| 19> H 2.7896241883 0.703796301 -0.9132108697
| 20> H 2.8075361966 0.7153454368 0.850660462
| 21> *
| 22>
| 23>                          ****END OF INPUT****

CARTESIAN COORDINATES (ANGSTROEM)
---------------------------------
  C     -2.715969    0.079064    0.021665
  C     -1.389306   -0.654683    0.018788
  S     -0.000034    0.542176   -0.002785
  C      1.389435   -0.654646   -0.008106
  C      2.715917    0.079218   -0.026305
  H     -2.805053    0.701520   -0.865305
  H     -3.532703   -0.638346    0.033883
  H     -2.792530    0.717300    0.898539
  H     -1.286770   -1.281624   -0.867704
  H     -1.273601   -1.265031    0.915191
  H      1.289209   -1.267186    0.888671
  H      1.271656   -1.279455   -0.894225
  H      3.532794   -0.638128   -0.029913
  H      2.789624    0.703796   -0.913211
  H      2.807536    0.715345    0.850660

 Total Charge           Charge          ....    0
 Multiplicity           Mult            ....    1
 Number of Electrons    NEL             ....   50
 Basis Dimension        Dim             ....   94

ORBITAL ENERGIES
----------------

  NO   OCC          E(Eh)            E(eV)
   0   2.0000     -88.004381     -2394.7209
   1   2.0000      -9.911415      -269.7033
   2   2.0000      -9.911382      -269.7024
   3   2.0000      -9.882070      -268.9048
   4   2.0000      -9.882063      -268.9046
   5   2.0000      -7.648749      -208.1330
   6   2.0000      -5.677390      -154.4896
   7   2.0000      -5.673609      -154.3867
   8   2.0000      -5.664876      -154.1491
   9   2.0000      -0.733521       -19.9601
  10   2.0000      -0.690125       -18.7793
  11   2.0000      -0.617299       -16.7976
  12   2.0000      -0.543745       -14.7961
  13   2.0000      -0.512168       -13.9368
  14   2.0000      -0.418218       -11.3803
  15   2.0000      -0.406424       -11.0594
  16   2.0000      -0.401774       -10.9328
  17   2.0000      -0.367338        -9.9958
  18   2.0000      -0.351251        -9.5580
  19   2.0000      -0.327741        -8.9183
  20   2.0000      -0.322867        -8.7857
  21   2.0000      -0.308038        -8.3821
  22   2.0000      -0.292355        -7.9554
  23   2.0000      -0.263395        -7.1673
  24   2.0000      -0.174103        -4.7376
  25   0.0000       0.008153         0.2218
  26   0.0000       0.037208         1.0125
  27   0.0000       0.064576         1.7572
  28   0.0000       0.075906         2.0655
  29   0.0000       0.078559         2.1377

MULLIKEN ATOMIC CHARGES
-----------------------
   0 C :   -0.260678
   1 C :   -0.278577
   2 S :   -0.101653
   3 C :   -0.278592
   4 C :   -0.260686
   5 H :    0.115013
   6 H :    0.112559
   7 H :    0.115033
   8 H :    0.123691
   9 H :    0.123787
  10 H :    0.123733
  11 H :    0.123752
  12 H :    0.112561
  13 H :    0.115023
  14 H :    0.115032
Sum of atomic charges:    0.0000000

LOEWDIN ATOMIC CHARGES
----------------------
   0 C :   -0.355878
   1 C :   -0.332047
   2 S :    0.165499
   3 C :   -0.332046
   4 C :   -0.355878
   5 H :    0.123253
   6 H :    0.126033
   7 H :    0.123261
   8 H :    0.116314
   9 H :    0.116315
  10 H :    0.116317
  11 H :    0.116310
  12 H :    0.126032
  13 H :    0.123255
  14 H :    0.123260

  Mayer bond orders larger than 0.100000
B(  0-C ,  1-C ) :   1.1459 B(  0-C ,  5-H ) :   0.9522 B(  0-C ,  6-H ) :   0.9483
B(  0-C ,  7-H ) :   0.9522 B(  1-C ,  2-S ) :   1.0231 B(  1-C ,  8-H ) :   0.9238
B(  1-C ,  9-H ) :   0.9238 B(  2-S ,  3-C ) :   1.0231 B(  3-C ,  4-C ) :   1.1458
B(  3-C , 10-H ) :   0.9238 B(  3-C , 11-H ) :   0.9238 B(  4-C , 12-H ) :   0.9483
B(  4-C , 13-H ) :   0.9522 B(  4-C , 14-H ) :   0.9522

Dispersion correction           -0.010647242
FINAL SINGLE POINT ENERGY      -555.916747580734

DIPOLE MOMENT
-------------

Method             : SCF
Type of density    : Electron Density
Multiplicity       :   1
Irrep              :   0
Energy             :  -555.9655795922037669 Eh
Relativity type    :
Basis              : AO
                                X                 Y                 Z
Electronic contribution:     -0.000115320       2.732059681      -0.011717306
Nuclear contribution   :      0.000155334      -3.328832182       0.015639995
                        -----------------------------------------
Total Dipole Moment    :      0.000040014      -0.596772501       0.003922689
                        -----------------------------------------
Magnitude (a.u.)       :      0.596785395
Magnitude (Debye)      :      1.516907922

Rotational constants in cm-1:             0.473514             0.057480             0.053313
Rotational constants in MHz :         14195.598274          1723.193811          1598.294470

                             ****ORCA TERMINATED NORMALLY****
TOTAL RUN TIME: 0 days 0 hours 0 minutes 6 seconds 427 msec
