                         Program Version 6.0.0  -   RELEASE  -
|  1> ! pbe def2-sv(p) def2/J RI DEFGRID1 loosescf d4 GCP(DFT/SV(P)) printgap
|  2> %output
|  3>     printlevel normal
|  4> end
|  5> * xyz 0 1
|  6> C -1.1041701143 -0.5402867848 -0.2156789908
|  7> C -0.0018323376 0.187320832 0.5736390965
|  8> C 1.3064372171 -0.618008076 0.625315436
|  9> O 1.8991791834 -0.7307491377 -0.6505762161
| 10> O 0.2239133131 1.4642741691 0.0114595452
| 11> O -2.3294577684 0.1507874627 -0.1411033901
| 12> H -1.2851897154 -1.5298877141 0.207891124
| 13> H -0.8024510382 -0.6409391548 -1.2676690168
| 14> H -0.3612601504 0.3618886044 1.5933735442
| 15> H 1.1253047281 -1.5972964769 1.076359124
| 16> H 2.0274883198 -0.0722994662 1.238954872
| 17> H 1.4712564437 -1.4362949688 -1.1529194358
| 18> H 0.8650381251 1.3603183614 -0.7102056727
| 19> H -2.1528800743 1.0877377998 -0.317894255
| 20> *
| 21>
| 22>                          ****END OF INPUT****

CARTESIAN COORDINATES (ANGSTROEM)
---------------------------------
  C     -1.104170   -0.540287   -0.215679
  C     -0.001832    0.187321    0.573639
  C      1.306437   -0.618008    0.625315
  O      1.899179   -0.730749   -0.650576
  O      0.223913    1.464274    0.011460
  O     -2.329458    0.150787   -0.141103
  H     -1.285190   -1.529888    0.207891
  H     -0.802451   -0.640939   -1.267669
  H     -0.361260    0.361889    1.593374
  H      1.125305   -1.597296    1.076359
  H      2.027488   -0.072299    1.238955
  H      1.471256   -1.436295   -1.152919
  H      0.865038    1.360318   -0.710206
  H     -2.152880    1.087738   -0.317894

 Total Charge           Charge          ....    0
 Multiplicity           Mult            ....    1
 Number of Electrons    NEL             ....   50
 Basis Dimension        Dim             ....  100

ORBITAL ENERGIES
----------------

  NO   OCC          E(Eh)            E(eV)
   0   2.0000     -18.769622      -510.7474
   1   2.0000     -18.753048      -510.2964
   2   2.0000     -18.738724      -509.9066
   3   2.0000      -9.942977      -270.5622
   4   2.0000      -9.939959      -270.4800
   5   2.0000      -9.931945      -270.2619
   6   2.0000      -0.951068       -25.8799
   7   2.0000      -0.927958       -25.2510
   8   2.0000      -0.908013       -24.7083
   9   2.0000      -0.682736       -18.5782
  10   2.0000      -0.613683       -16.6992
  11   2.0000      -0.554160       -15.0795
  12   2.0000      -0.483650       -13.1608
  13   2.0000      -0.467434       -12.7195
  14   2.0000      -0.435216       -11.8428
  15   2.0000      -0.420024       -11.4294
  16   2.0000      -0.396288       -10.7835
  17   2.0000      -0.384622       -10.4661
  18   2.0000      -0.348347        -9.4790
  19   2.0000      -0.303796        -8.2667
  20   2.0000      -0.293812        -7.9950
  21   2.0000      -0.280077        -7.6213
  22   2.0000      -0.247841        -6.7441
  23   2.0000      -0.233564        -6.3556
  24   2.0000      -0.202159        -5.5010
  25   0.0000       0.005676         0.1544
  26   0.0000       0.046245         1.2584
  27   0.0000       0.053301         1.4504
  28   0.0000       0.071211         1.9378
  29   0.0000       0.085400         2.3239

MULLIKEN ATOMIC CHARGES
-----------------------
   0 C :    0.049883
   1 C :   -0.016257
   2 C :   -0.003756
   3 O :   -0.441420
   4 O :   -0.440376
   5 O :   -0.439534
   6 H :    0.077854
   7 H :    0.044514
   8 H :    0.078810
   9 H :    0.084504
  10 H :    0.101789
  11 H :    0.306084
  12 H :    0.300686
  13 H :    0.297219
Sum of atomic charges:   -0.0000000

LOEWDIN ATOMIC CHARGES
----------------------
   0 C :   -0.140250
   1 C :   -0.102714
   2 C :   -0.136757
   3 O :   -0.334430
   4 O :   -0.328581
   5 O :   -0.342325
   6 H :    0.110201
   7 H :    0.086039
   8 H :    0.117834
   9 H :    0.105001
  10 H :    0.118783
  11 H :    0.287136
  12 H :    0.280062
  13 H :    0.280000

  Mayer bond orders larger than 0.100000
B(  0-C ,  1-C ) :   1.0336 B(  0-C ,  5-O ) :   1.0791 B(  0-C ,  6-H ) :   0.9197
B(  0-C ,  7-H ) :   0.8988 B(  1-C ,  2-C ) :   1.0286 B(  1-C ,  4-O ) :   1.0332
B(  1-C ,  8-H ) :   0.8895 B(  2-C ,  3-O ) :   1.0511 B(  2-C ,  9-H ) :   0.9222
B(  2-C , 10-H ) :   0.9216 B(  3-O , 11-H ) :   0.8463 B(  4-O , 12-H ) :   0.8331
B(  5-O , 13-H ) :   0.8384

Dispersion correction           -0.009248215
FINAL SINGLE POINT ENERGY      -344.011470400584

DIPOLE MOMENT
-------------

Method             : SCF
Type of density    : Electron Density
Multiplicity       :   1
Irrep              :   0
Energy             :  -344.0856842584602191 Eh
Relativity type    :
Basis              : AO
                                X                 Y                 Z
Electronic contribution:     -0.354228640       1.748186967      -0.817793653
Nuclear contribution   :      0.829382665      -2.301127548       0.615009574
                        -----------------------------------------
Total Dipole Moment    :      0.475154025      -0.552940580      -0.202784079
                        -----------------------------------------
Magnitude (a.u.)       :      0.756727174
Magnitude (Debye)      :      1.923447617

Rotational constants in cm-1:             0.205841             0.074612             0.065058
Rotational constants in MHz :          6170.951794          2236.824013          1950.376854

                             ****ORCA TERMINATED NORMALLY****
TOTAL RUN TIME: 0 days 0 hours 0 minutes 6 seconds 543 msec
