                         Program Version 6.0.0  -   RELEASE  -
|  1> ! pbe def2-sv(p) def2/J RI DEFGRID1 loosescf d4 GCP(DFT/SV(P)) printgap
|  2> %output
|  3>     printlevel normal
|  4> end
|  5> * xyz 0 1
|  6> C 2.1966800216 -0.7472992747 0.5789162547
|  7> C 1.4144139064 0.4186175017 -0.0161122398
|  8> C 0.3305240817 -0.0250168373 -1.0088936057
|  9> C -1.0893358695 -0.0220437917 -0.4175684124
| 10> H -1.7899297294 -0.3034996126 -1.22312452
| 11> C -1.2635569699 -1.0071360478 0.7334165403
| 12> O -1.4468908953 1.2605983225 0.074219672
| 13> H 2.9404589516 -0.3799504288 1.282489215
| 14> H 2.7119034029 -1.295776601 -0.2069325302
| 15> H 1.5402641042 -1.4359043607 1.1028489778
| 16> H 0.9437226979 0.9958677212 0.7827612246
| 17> H 2.119139116 1.0808211722 -0.523127957
| 18> H 0.3304316962 0.6460912233 -1.871292941
| 19> H 0.5461414805 -1.0282685382 -1.3774723024
| 20> H -0.6467002186 -0.7070397307 1.5748739021
| 21> H -2.3012914419 -1.0039471592 1.0565986565
| 22> H -0.9908827426 -2.0081265621 0.4144059464
| 23> H -1.3679282459 1.9085653587 -0.6381215392
| 24> *
| 25>
| 26>                          ****END OF INPUT****

CARTESIAN COORDINATES (ANGSTROEM)
---------------------------------
  C      2.196680   -0.747299    0.578916
  C      1.414414    0.418618   -0.016112
  C      0.330524   -0.025017   -1.008894
  C     -1.089336   -0.022044   -0.417568
  H     -1.789930   -0.303500   -1.223125
  C     -1.263557   -1.007136    0.733417
  O     -1.446891    1.260598    0.074220
  H      2.940459   -0.379950    1.282489
  H      2.711903   -1.295777   -0.206933
  H      1.540264   -1.435904    1.102849
  H      0.943723    0.995868    0.782761
  H      2.119139    1.080821   -0.523128
  H      0.330432    0.646091   -1.871293
  H      0.546141   -1.028269   -1.377472
  H     -0.646700   -0.707040    1.574874
  H     -2.301291   -1.003947    1.056599
  H     -0.990883   -2.008127    0.414406
  H     -1.367928    1.908565   -0.638122

 Total Charge           Charge          ....    0
 Multiplicity           Mult            ....    1
 Number of Electrons    NEL             ....   50
 Basis Dimension        Dim             ....  108

ORBITAL ENERGIES
----------------

  NO   OCC          E(Eh)            E(eV)
   0   2.0000     -18.738768      -509.9078
   1   2.0000      -9.935433      -270.3569
   2   2.0000      -9.881103      -268.8785
   3   2.0000      -9.878497      -268.8076
   4   2.0000      -9.870339      -268.5856
   5   2.0000      -9.870123      -268.5797
   6   2.0000      -0.915974       -24.9249
   7   2.0000      -0.714419       -19.4403
   8   2.0000      -0.664797       -18.0900
   9   2.0000      -0.611032       -16.6270
  10   2.0000      -0.538494       -14.6532
  11   2.0000      -0.509012       -13.8509
  12   2.0000      -0.446745       -12.1566
  13   2.0000      -0.424467       -11.5503
  14   2.0000      -0.401156       -10.9160
  15   2.0000      -0.366468        -9.9721
  16   2.0000      -0.358151        -9.7458
  17   2.0000      -0.338664        -9.2155
  18   2.0000      -0.337413        -9.1815
  19   2.0000      -0.323771        -8.8102
  20   2.0000      -0.297641        -8.0992
  21   2.0000      -0.287298        -7.8178
  22   2.0000      -0.281009        -7.6467
  23   2.0000      -0.261455        -7.1145
  24   2.0000      -0.211563        -5.7569
  25   0.0000       0.021827         0.5939
  26   0.0000       0.054474         1.4823
  27   0.0000       0.069481         1.8907
  28   0.0000       0.076863         2.0915
  29   0.0000       0.086669         2.3584

MULLIKEN ATOMIC CHARGES
-----------------------
   0 C :   -0.290696
   1 C :   -0.184268
   2 C :   -0.162575
   3 C :    0.004694
   4 H :    0.057948
   5 C :   -0.251308
   6 O :   -0.423991
   7 H :    0.101564
   8 H :    0.098359
   9 H :    0.102769
  10 H :    0.102757
  11 H :    0.079036
  12 H :    0.070016
  13 H :    0.080257
  14 H :    0.114693
  15 H :    0.107531
  16 H :    0.099381
  17 H :    0.293834
Sum of atomic charges:    0.0000000

LOEWDIN ATOMIC CHARGES
----------------------
   0 C :   -0.342286
   1 C :   -0.241778
   2 C :   -0.242487
   3 C :   -0.055178
   4 H :    0.094000
   5 C :   -0.341308
   6 O :   -0.332602
   7 H :    0.118519
   8 H :    0.114948
   9 H :    0.115490
  10 H :    0.117454
  11 H :    0.115229
  12 H :    0.109854
  13 H :    0.118148
  14 H :    0.124364
  15 H :    0.124626
  16 H :    0.121717
  17 H :    0.281290

  Mayer bond orders larger than 0.100000
B(  0-C ,  1-C ) :   1.1616 B(  0-C ,  7-H ) :   0.9525 B(  0-C ,  8-H ) :   0.9528
B(  0-C ,  9-H ) :   0.9487 B(  1-C ,  2-C ) :   1.0804 B(  1-C , 10-H ) :   0.9203
B(  1-C , 11-H ) :   0.9282 B(  2-C ,  3-C ) :   1.0828 B(  2-C , 12-H ) :   0.9199
B(  2-C , 13-H ) :   0.9165 B(  3-C ,  4-H ) :   0.9065 B(  3-C ,  5-C ) :   1.1246
B(  3-C ,  6-O ) :   1.0457 B(  5-C , 14-H ) :   0.9353 B(  5-C , 15-H ) :   0.9421
B(  5-C , 16-H ) :   0.9456 B(  6-O , 17-H ) :   0.8525

Dispersion correction           -0.013087789
FINAL SINGLE POINT ENERGY      -272.302107848388

DIPOLE MOMENT
-------------

Method             : SCF
Type of density    : Electron Density
Multiplicity       :   1
Irrep              :   0
Energy             :  -272.3718518700096070 Eh
Relativity type    :
Basis              : AO
                                X                 Y                 Z
Electronic contribution:     -3.630676670       3.287186535      -0.888951872
Nuclear contribution   :      3.764326448      -3.294105082       0.351886587
                        -----------------------------------------
Total Dipole Moment    :      0.133649777      -0.006918547      -0.537065285
                        -----------------------------------------
Magnitude (a.u.)       :      0.553488256
Magnitude (Debye)      :      1.406855341

Rotational constants in cm-1:             0.174265             0.075577             0.064943
Rotational constants in MHz :          5224.332237          2265.736077          1946.947553

                             ****ORCA TERMINATED NORMALLY****
TOTAL RUN TIME: 0 days 0 hours 0 minutes 7 seconds 533 msec
