                         Program Version 6.0.0  -   RELEASE  -
|  1> ! r2scan-3c def2/J RI DEFGRID2 scfconv6 printgap
|  2> %output
|  3>     printlevel normal
|  4> end
|  5> * xyz 0 1
|  6> C -3.8279252756 0.1738039446 -0.1505529277
|  7> C -2.365417212 0.5829836887 -0.2875138521
|  8> C -1.4365588689 -0.5804746495 0.0505774761
|  9> C 0.0366904752 -0.265353589 0.0532386989
| 10> C 0.9143904992 -1.2052977013 0.5882343803
| 11> C 2.2779108251 -0.9819168214 0.6069656549
| 12> C 2.7947290733 0.1947836461 0.0897425698
| 13> C 1.9343932833 1.1367858056 -0.4439505324
| 14> C 0.567744705 0.9085832913 -0.4634771777
| 15> H -4.0550044629 -0.6576414548 -0.8143147421
| 16> H -4.045216697 -0.1334462724 0.8700973746
| 17> H -4.4815764728 1.0045091484 -0.4050084339
| 18> H -2.1599061245 1.4197367063 0.3836314382
| 19> H -2.1847469154 0.9145863894 -1.3117992463
| 20> H -1.6102779507 -1.3905826011 -0.6652567024
| 21> H -1.7036502479 -0.9687019037 1.037721655
| 22> H 0.5176968262 -2.1249607981 0.9951497399
| 23> H 2.9395260753 -1.7250111607 1.0275209334
| 24> H 3.8593241258 0.3745505657 0.1039292227
| 25> H 2.3269191296 2.0576708754 -0.8500514357
| 26> H -0.0800845946 1.659517457 -0.8871941523
| 27> *
| 28>
| 29>                          ****END OF INPUT****

CARTESIAN COORDINATES (ANGSTROEM)
---------------------------------
  C     -3.827925    0.173804   -0.150553
  C     -2.365417    0.582984   -0.287514
  C     -1.436559   -0.580475    0.050577
  C      0.036690   -0.265354    0.053239
  C      0.914390   -1.205298    0.588234
  C      2.277911   -0.981917    0.606966
  C      2.794729    0.194784    0.089743
  C      1.934393    1.136786   -0.443951
  C      0.567745    0.908583   -0.463477
  H     -4.055004   -0.657641   -0.814315
  H     -4.045217   -0.133446    0.870097
  H     -4.481576    1.004509   -0.405008
  H     -2.159906    1.419737    0.383631
  H     -2.184747    0.914586   -1.311799
  H     -1.610278   -1.390583   -0.665257
  H     -1.703650   -0.968702    1.037722
  H      0.517697   -2.124961    0.995150
  H      2.939526   -1.725011    1.027521
  H      3.859324    0.374551    0.103929
  H      2.326919    2.057671   -0.850051
  H     -0.080085    1.659517   -0.887194

 Total Charge           Charge          ....    0
 Multiplicity           Mult            ....    1
 Number of Electrons    NEL             ....   66
 Basis Dimension        Dim             ....  231

ORBITAL ENERGIES
----------------

  NO   OCC          E(Eh)            E(eV)
   0   2.0000     -10.039235      -273.1815
   1   2.0000     -10.032264      -272.9918
   2   2.0000     -10.030523      -272.9444
   3   2.0000     -10.030277      -272.9377
   4   2.0000     -10.029279      -272.9105
   5   2.0000     -10.028176      -272.8805
   6   2.0000     -10.027586      -272.8645
   7   2.0000     -10.027549      -272.8635
   8   2.0000     -10.019341      -272.6401
   9   2.0000      -0.826011       -22.4769
  10   2.0000      -0.766168       -20.8485
  11   2.0000      -0.716158       -19.4877
  12   2.0000      -0.711099       -19.3500
  13   2.0000      -0.645296       -17.5594
  14   2.0000      -0.582513       -15.8510
  15   2.0000      -0.562352       -15.3024
  16   2.0000      -0.537436       -14.6244
  17   2.0000      -0.481667       -13.1068
  18   2.0000      -0.440190       -11.9782
  19   2.0000      -0.423547       -11.5253
  20   2.0000      -0.419600       -11.4179
  21   2.0000      -0.398197       -10.8355
  22   2.0000      -0.385216       -10.4823
  23   2.0000      -0.372446       -10.1348
  24   2.0000      -0.364754        -9.9255
  25   2.0000      -0.334599        -9.1049
  26   2.0000      -0.330497        -8.9933
  27   2.0000      -0.319262        -8.6876
  28   2.0000      -0.305361        -8.3093
  29   2.0000      -0.299514        -8.1502
  30   2.0000      -0.292071        -7.9477
  31   2.0000      -0.233114        -6.3433
  32   2.0000      -0.222654        -6.0587
  33   0.0000      -0.028853        -0.7851
  34   0.0000      -0.023627        -0.6429
  35   0.0000       0.086551         2.3552
  36   0.0000       0.095119         2.5883
  37   0.0000       0.108280         2.9464

MULLIKEN ATOMIC CHARGES
-----------------------
   0 C :   -0.481104
   1 C :   -0.253553
   2 C :   -0.329750
   3 C :    0.153453
   4 C :   -0.202942
   5 C :   -0.156930
   6 C :   -0.148040
   7 C :   -0.180543
   8 C :   -0.169774
   9 H :    0.141722
  10 H :    0.144341
  11 H :    0.148218
  12 H :    0.156361
  13 H :    0.138784
  14 H :    0.164148
  15 H :    0.154224
  16 H :    0.144490
  17 H :    0.144051
  18 H :    0.145274
  19 H :    0.143828
  20 H :    0.143744
Sum of atomic charges:   -0.0000000

LOEWDIN ATOMIC CHARGES
----------------------
   0 C :   -0.422452
   1 C :   -0.313079
   2 C :   -0.280898
   3 C :   -0.086327
   4 C :   -0.162661
   5 C :   -0.162878
   6 C :   -0.175275
   7 C :   -0.162791
   8 C :   -0.167074
   9 H :    0.150780
  10 H :    0.150496
  11 H :    0.150987
  12 H :    0.156021
  13 H :    0.152804
  14 H :    0.169395
  15 H :    0.166647
  16 H :    0.168495
  17 H :    0.166124
  18 H :    0.165803
  19 H :    0.165841
  20 H :    0.170041

  Mayer bond orders larger than 0.100000
B(  0-C ,  1-C ) :   0.9113 B(  0-C ,  9-H ) :   0.9827 B(  0-C , 10-H ) :   0.9850
B(  0-C , 11-H ) :   0.9761 B(  1-C ,  2-C ) :   0.8712 B(  1-C , 12-H ) :   0.9816
B(  1-C , 13-H ) :   0.9488 B(  2-C ,  3-C ) :   0.8263 B(  2-C , 14-H ) :   0.9628
B(  2-C , 15-H ) :   1.0254 B(  3-C ,  4-C ) :   1.3778 B(  3-C ,  8-C ) :   1.4568
B(  4-C ,  5-C ) :   1.4502 B(  4-C , 16-H ) :   0.9587 B(  5-C ,  6-C ) :   1.4118
B(  5-C , 17-H ) :   0.9479 B(  6-C ,  7-C ) :   1.4288 B(  6-C , 18-H ) :   0.9479
B(  7-C ,  8-C ) :   1.4205 B(  7-C , 19-H ) :   0.9492 B(  8-C , 20-H ) :   0.9502

Dispersion correction           -0.006616620
FINAL SINGLE POINT ENERGY      -350.077923649404

DIPOLE MOMENT
-------------

Method             : SCF
Type of density    : Electron Density
Multiplicity       :   1
Irrep              :   0
Energy             :  -350.0781120664433388 Eh
Relativity type    :
Basis              : AO
                                X                 Y                 Z
Electronic contribution:      9.797640147      -0.428334321       0.470598555
Nuclear contribution   :    -10.016807066       0.403624750      -0.483694866
                        -----------------------------------------
Total Dipole Moment    :     -0.219166919      -0.024709571      -0.013096311
                        -----------------------------------------
Magnitude (a.u.)       :      0.220943917
Magnitude (Debye)      :      0.561594807

Rotational constants in cm-1:             0.157321             0.028627             0.024602
Rotational constants in MHz :          4716.369859           858.225196           737.538157

                             ****ORCA TERMINATED NORMALLY****
TOTAL RUN TIME: 0 days 0 hours 0 minutes 24 seconds 927 msec
