                         Program Version 6.0.0  -   RELEASE  -
|  1> ! r2scan-3c def2/J RI DEFGRID2 scfconv6 printgap
|  2> %output
|  3>     printlevel normal
|  4> end
|  5> %cpcm
|  6>     smd true
|  7>     smdsolvent "water"
|  8> end
|  9> * xyz 0 1
| 10> C -3.8279252756 0.1738039446 -0.1505529277
| 11> C -2.365417212 0.5829836887 -0.2875138521
| 12> C -1.4365588689 -0.5804746495 0.0505774761
| 13> C 0.0366904752 -0.265353589 0.0532386989
| 14> C 0.9143904992 -1.2052977013 0.5882343803
| 15> C 2.2779108251 -0.9819168214 0.6069656549
| 16> C 2.7947290733 0.1947836461 0.0897425698
| 17> C 1.9343932833 1.1367858056 -0.4439505324
| 18> C 0.567744705 0.9085832913 -0.4634771777
| 19> H -4.0550044629 -0.6576414548 -0.8143147421
| 20> H -4.045216697 -0.1334462724 0.8700973746
| 21> H -4.4815764728 1.0045091484 -0.4050084339
| 22> H -2.1599061245 1.4197367063 0.3836314382
| 23> H -2.1847469154 0.9145863894 -1.3117992463
| 24> H -1.6102779507 -1.3905826011 -0.6652567024
| 25> H -1.7036502479 -0.9687019037 1.037721655
| 26> H 0.5176968262 -2.1249607981 0.9951497399
| 27> H 2.9395260753 -1.7250111607 1.0275209334
| 28> H 3.8593241258 0.3745505657 0.1039292227
| 29> H 2.3269191296 2.0576708754 -0.8500514357
| 30> H -0.0800845946 1.659517457 -0.8871941523
| 31> *
| 32>
| 33>                          ****END OF INPUT****

CARTESIAN COORDINATES (ANGSTROEM)
---------------------------------
  C     -3.827925    0.173804   -0.150553
  C     -2.365417    0.582984   -0.287514
  C     -1.436559   -0.580475    0.050577
  C      0.036690   -0.265354    0.053239
  C      0.914390   -1.205298    0.588234
  C      2.277911   -0.981917    0.606966
  C      2.794729    0.194784    0.089743
  C      1.934393    1.136786   -0.443951
  C      0.567745    0.908583   -0.463477
  H     -4.055004   -0.657641   -0.814315
  H     -4.045217   -0.133446    0.870097
  H     -4.481576    1.004509   -0.405008
  H     -2.159906    1.419737    0.383631
  H     -2.184747    0.914586   -1.311799
  H     -1.610278   -1.390583   -0.665257
  H     -1.703650   -0.968702    1.037722
  H      0.517697   -2.124961    0.995150
  H      2.939526   -1.725011    1.027521
  H      3.859324    0.374551    0.103929
  H      2.326919    2.057671   -0.850051
  H     -0.080085    1.659517   -0.887194

 Total Charge           Charge          ....    0
 Multiplicity           Mult            ....    1
 Number of Electrons    NEL             ....   66
 Basis Dimension        Dim             ....  231

ORBITAL ENERGIES
----------------

  NO   OCC          E(Eh)            E(eV)
   0   2.0000     -10.040403      -273.2133
   1   2.0000     -10.030202      -272.9357
   2   2.0000     -10.030124      -272.9335
   3   2.0000     -10.027638      -272.8659
   4   2.0000     -10.027285      -272.8563
   5   2.0000     -10.027056      -272.8501
   6   2.0000     -10.024199      -272.7723
   7   2.0000     -10.019293      -272.6388
   8   2.0000     -10.008828      -272.3541
   9   2.0000      -0.827395       -22.5146
  10   2.0000      -0.760150       -20.6847
  11   2.0000      -0.713807       -19.4237
  12   2.0000      -0.710331       -19.3291
  13   2.0000      -0.639673       -17.4064
  14   2.0000      -0.578534       -15.7427
  15   2.0000      -0.559688       -15.2299
  16   2.0000      -0.532174       -14.4812
  17   2.0000      -0.478763       -13.0278
  18   2.0000      -0.431180       -11.7330
  19   2.0000      -0.421194       -11.4613
  20   2.0000      -0.415803       -11.3146
  21   2.0000      -0.393309       -10.7025
  22   2.0000      -0.382666       -10.4129
  23   2.0000      -0.366797        -9.9811
  24   2.0000      -0.357865        -9.7380
  25   2.0000      -0.332565        -9.0496
  26   2.0000      -0.327247        -8.9048
  27   2.0000      -0.312729        -8.5098
  28   2.0000      -0.295853        -8.0506
  29   2.0000      -0.294359        -8.0099
  30   2.0000      -0.286185        -7.7875
  31   2.0000      -0.237307        -6.4575
  32   2.0000      -0.225326        -6.1314
  33   0.0000      -0.031704        -0.8627
  34   0.0000      -0.026301        -0.7157
  35   0.0000       0.094328         2.5668
  36   0.0000       0.104488         2.8433
  37   0.0000       0.114862         3.1256

MULLIKEN ATOMIC CHARGES
-----------------------
   0 C :   -0.525636
   1 C :   -0.246721
   2 C :   -0.326900
   3 C :    0.104407
   4 C :   -0.219845
   5 C :   -0.199192
   6 C :   -0.180947
   7 C :   -0.225534
   8 C :   -0.190104
   9 H :    0.153927
  10 H :    0.156472
  11 H :    0.158296
  12 H :    0.160931
  13 H :    0.149616
  14 H :    0.180940
  15 H :    0.173074
  16 H :    0.175158
  17 H :    0.175747
  18 H :    0.177226
  19 H :    0.175181
  20 H :    0.173904
Sum of atomic charges:   -0.0000000

LOEWDIN ATOMIC CHARGES
----------------------
   0 C :   -0.430440
   1 C :   -0.312809
   2 C :   -0.282268
   3 C :   -0.094036
   4 C :   -0.171956
   5 C :   -0.175275
   6 C :   -0.189431
   7 C :   -0.175364
   8 C :   -0.178339
   9 H :    0.153653
  10 H :    0.153244
  11 H :    0.153187
  12 H :    0.157252
  13 H :    0.156430
  14 H :    0.175498
  15 H :    0.172858
  16 H :    0.179221
  17 H :    0.176554
  18 H :    0.175809
  19 H :    0.176185
  20 H :    0.180027

  Mayer bond orders larger than 0.100000
B(  0-C ,  1-C ) :   0.9006 B(  0-C ,  9-H ) :   0.9807 B(  0-C , 10-H ) :   0.9822
B(  0-C , 11-H ) :   0.9739 B(  1-C ,  2-C ) :   0.8610 B(  1-C , 12-H ) :   0.9826
B(  1-C , 13-H ) :   0.9464 B(  2-C ,  3-C ) :   0.8327 B(  2-C , 14-H ) :   0.9576
B(  2-C , 15-H ) :   1.0223 B(  3-C ,  4-C ) :   1.3535 B(  3-C ,  8-C ) :   1.4179
B(  4-C ,  5-C ) :   1.4148 B(  4-C , 16-H ) :   0.9655 B(  5-C ,  6-C ) :   1.3705
B(  5-C , 17-H ) :   0.9591 B(  6-C ,  7-C ) :   1.3900 B(  6-C , 18-H ) :   0.9557
B(  7-C ,  8-C ) :   1.3859 B(  7-C , 19-H ) :   0.9616 B(  8-C , 20-H ) :   0.9561

Dispersion correction           -0.006616620
FINAL SINGLE POINT ENERGY      -350.079155568323

DIPOLE MOMENT
-------------

Method             : SCF
Type of density    : Electron Density
Multiplicity       :   1
Irrep              :   0
Energy             :  -350.0793439853619020 Eh
Relativity type    :
Basis              : AO
                                X                 Y                 Z
Electronic contribution:      9.716800770      -0.462809799       0.465658427
Nuclear contribution   :    -10.016807066       0.403624750      -0.483694866
                        -----------------------------------------
Total Dipole Moment    :     -0.300006296      -0.059185049      -0.018036439
                        -----------------------------------------
Magnitude (a.u.)       :      0.306320030
Magnitude (Debye)      :      0.778603640

Rotational constants in cm-1:             0.157321             0.028627             0.024602
Rotational constants in MHz :          4716.369859           858.225196           737.538157

                             ****ORCA TERMINATED NORMALLY****
TOTAL RUN TIME: 0 days 0 hours 0 minutes 28 seconds 441 msec
