                         Program Version 6.0.0  -   RELEASE  -
|  1> ! r2scan-3c def2/J RI DEFGRID2 scfconv6 printgap
|  2> %output
|  3>     printlevel normal
|  4> end
|  5> * xyz 0 1
|  6> C -2.4743025 0.6134261926 -0.835705983
|  7> C -2.1641346278 0.2134671533 0.602033179
|  8> C -0.8507978024 -0.5497157844 0.710916101
|  9> O 0.2311511899 0.3406977095 0.3990222221
| 10> C 1.3472789184 -0.1653002703 -0.1065717674
| 11> O 1.5120601275 -1.3518407002 -0.310565751
| 12> C 2.3572827507 0.9035078273 -0.3993891899
| 13> H -3.4126734892 1.1585973134 -0.880932289
| 14> H -1.6850023365 1.2497187747 -1.2282400727
| 15> H -2.5541660434 -0.2679757137 -1.4680409061
| 16> H -2.9563064543 -0.4259406497 0.9911889536
| 17> H -2.0985650286 1.1045878583 1.226873026
| 18> H -0.6946694519 -0.9221218316 1.7282906186
| 19> H -0.8157200446 -1.3976557912 0.0187940505
| 20> H 3.3237491734 0.6019119364 -0.0057637925
| 21> H 2.03700434 1.8445254588 0.0340462706
| 22> H 2.4523165813 1.0050327786 -1.4781492321
| 23> *
| 24>
| 25>                          ****END OF INPUT****

CARTESIAN COORDINATES (ANGSTROEM)
---------------------------------
  C     -2.474302    0.613426   -0.835706
  C     -2.164135    0.213467    0.602033
  C     -0.850798   -0.549716    0.710916
  O      0.231151    0.340698    0.399022
  C      1.347279   -0.165300   -0.106572
  O      1.512060   -1.351841   -0.310566
  C      2.357283    0.903508   -0.399389
  H     -3.412673    1.158597   -0.880932
  H     -1.685002    1.249719   -1.228240
  H     -2.554166   -0.267976   -1.468041
  H     -2.956306   -0.425941    0.991189
  H     -2.098565    1.104588    1.226873
  H     -0.694669   -0.922122    1.728291
  H     -0.815720   -1.397656    0.018794
  H      3.323749    0.601912   -0.005764
  H      2.037004    1.844525    0.034046
  H      2.452317    1.005033   -1.478149

 Total Charge           Charge          ....    0
 Multiplicity           Mult            ....    1
 Number of Electrons    NEL             ....   56
 Basis Dimension        Dim             ....  193

ORBITAL ENERGIES
----------------

  NO   OCC          E(Eh)            E(eV)
   0   2.0000     -18.997992      -516.9616
   1   2.0000     -18.926398      -515.0135
   2   2.0000     -10.155264      -276.3388
   3   2.0000     -10.088054      -274.5099
   4   2.0000     -10.038886      -273.1720
   5   2.0000     -10.038860      -273.1713
   6   2.0000     -10.022986      -272.7393
   7   2.0000      -1.072649       -29.1883
   8   2.0000      -0.974353       -26.5135
   9   2.0000      -0.770015       -20.9532
  10   2.0000      -0.721310       -19.6278
  11   2.0000      -0.661529       -18.0011
  12   2.0000      -0.580395       -15.7933
  13   2.0000      -0.532253       -14.4833
  14   2.0000      -0.464292       -12.6340
  15   2.0000      -0.458238       -12.4693
  16   2.0000      -0.437728       -11.9112
  17   2.0000      -0.418383       -11.3848
  18   2.0000      -0.411323       -11.1927
  19   2.0000      -0.382671       -10.4130
  20   2.0000      -0.375819       -10.2266
  21   2.0000      -0.357395        -9.7252
  22   2.0000      -0.334297        -9.0967
  23   2.0000      -0.324103        -8.8193
  24   2.0000      -0.320334        -8.7167
  25   2.0000      -0.305489        -8.3128
  26   2.0000      -0.270342        -7.3564
  27   2.0000      -0.235461        -6.4072
  28   0.0000      -0.013820        -0.3761
  29   0.0000       0.070268         1.9121
  30   0.0000       0.097387         2.6500
  31   0.0000       0.114870         3.1258
  32   0.0000       0.121474         3.3055

MULLIKEN ATOMIC CHARGES
-----------------------
   0 C :   -0.467551
   1 C :   -0.218798
   2 C :   -0.182405
   3 O :   -0.178765
   4 C :    0.418080
   5 O :   -0.426630
   6 C :   -0.518081
   7 H :    0.149097
   8 H :    0.155759
   9 H :    0.143946
  10 H :    0.138558
  11 H :    0.142796
  12 H :    0.147847
  13 H :    0.178930
  14 H :    0.173290
  15 H :    0.170165
  16 H :    0.173761
Sum of atomic charges:   -0.0000000

LOEWDIN ATOMIC CHARGES
----------------------
   0 C :   -0.418333
   1 C :   -0.285756
   2 C :    0.038092
   3 O :   -0.604338
   4 C :    0.353517
   5 O :   -0.435697
   6 C :   -0.336569
   7 H :    0.152106
   8 H :    0.157556
   9 H :    0.152844
  10 H :    0.160261
  11 H :    0.161866
  12 H :    0.178682
  13 H :    0.192710
  14 H :    0.178554
  15 H :    0.173614
  16 H :    0.180892

  Mayer bond orders larger than 0.100000
B(  0-C ,  1-C ) :   0.9126 B(  0-C ,  7-H ) :   0.9732 B(  0-C ,  8-H ) :   0.9785
B(  0-C ,  9-H ) :   0.9755 B(  1-C ,  2-C ) :   0.9585 B(  1-C , 10-H ) :   0.9607
B(  1-C , 11-H ) :   0.9660 B(  2-C ,  3-O ) :   0.7888 B(  2-C , 12-H ) :   0.9445
B(  2-C , 13-H ) :   0.9691 B(  3-O ,  4-C ) :   1.0694 B(  4-C ,  5-O ) :   1.8344
B(  4-C ,  6-C ) :   0.9444 B(  6-C , 14-H ) :   0.9633 B(  6-C , 15-H ) :   0.9853
B(  6-C , 16-H ) :   0.9414

Dispersion correction           -0.003958625
FINAL SINGLE POINT ENERGY      -346.936272565521

DIPOLE MOMENT
-------------

Method             : SCF
Type of density    : Electron Density
Multiplicity       :   1
Irrep              :   0
Energy             :  -346.9427730519998931 Eh
Relativity type    :
Basis              : AO
                                X                 Y                 Z
Electronic contribution:      5.507506578      -2.956378078       1.191221109
Nuclear contribution   :     -5.982208362       3.691407161      -0.994959591
                        -----------------------------------------
Total Dipole Moment    :     -0.474701784       0.735029083       0.196261518
                        -----------------------------------------
Magnitude (a.u.)       :      0.896731911
Magnitude (Debye)      :      2.279311377

Rotational constants in cm-1:             0.175625             0.047260             0.043401
Rotational constants in MHz :          5265.101123          1416.811846          1301.134849

                             ****ORCA TERMINATED NORMALLY****
TOTAL RUN TIME: 0 days 0 hours 0 minutes 20 seconds 453 msec
