                         Program Version 6.0.0  -   RELEASE  -
|  1> ! r2scan-3c def2/J RI DEFGRID2 scfconv6 printgap
|  2> %output
|  3>     printlevel normal
|  4> end
|  5> %cpcm
|  6>     smd true
|  7>     smdsolvent "water"
|  8> end
|  9> * xyz 0 1
| 10> C -2.4743025 0.6134261926 -0.835705983
| 11> C -2.1641346278 0.2134671533 0.602033179
| 12> C -0.8507978024 -0.5497157844 0.710916101
| 13> O 0.2311511899 0.3406977095 0.3990222221
| 14> C 1.3472789184 -0.1653002703 -0.1065717674
| 15> O 1.5120601275 -1.3518407002 -0.310565751
| 16> C 2.3572827507 0.9035078273 -0.3993891899
| 17> H -3.4126734892 1.1585973134 -0.880932289
| 18> H -1.6850023365 1.2497187747 -1.2282400727
| 19> H -2.5541660434 -0.2679757137 -1.4680409061
| 20> H -2.9563064543 -0.4259406497 0.9911889536
| 21> H -2.0985650286 1.1045878583 1.226873026
| 22> H -0.6946694519 -0.9221218316 1.7282906186
| 23> H -0.8157200446 -1.3976557912 0.0187940505
| 24> H 3.3237491734 0.6019119364 -0.0057637925
| 25> H 2.03700434 1.8445254588 0.0340462706
| 26> H 2.4523165813 1.0050327786 -1.4781492321
| 27> *
| 28>
| 29>                          ****END OF INPUT****

CARTESIAN COORDINATES (ANGSTROEM)
---------------------------------
  C     -2.474302    0.613426   -0.835706
  C     -2.164135    0.213467    0.602033
  C     -0.850798   -0.549716    0.710916
  O      0.231151    0.340698    0.399022
  C      1.347279   -0.165300   -0.106572
  O      1.512060   -1.351841   -0.310566
  C      2.357283    0.903508   -0.399389
  H     -3.412673    1.158597   -0.880932
  H     -1.685002    1.249719   -1.228240
  H     -2.554166   -0.267976   -1.468041
  H     -2.956306   -0.425941    0.991189
  H     -2.098565    1.104588    1.226873
  H     -0.694669   -0.922122    1.728291
  H     -0.815720   -1.397656    0.018794
  H      3.323749    0.601912   -0.005764
  H      2.037004    1.844525    0.034046
  H      2.452317    1.005033   -1.478149

 Total Charge           Charge          ....    0
 Multiplicity           Mult            ....    1
 Number of Electrons    NEL             ....   56
 Basis Dimension        Dim             ....  193

ORBITAL ENERGIES
----------------

  NO   OCC          E(Eh)            E(eV)
   0   2.0000     -19.003163      -517.1024
   1   2.0000     -18.942235      -515.4444
   2   2.0000     -10.165351      -276.6133
   3   2.0000     -10.080330      -274.2997
   4   2.0000     -10.030145      -272.9341
   5   2.0000     -10.026423      -272.8328
   6   2.0000     -10.011197      -272.4185
   7   2.0000      -1.079394       -29.3718
   8   2.0000      -0.988183       -26.8898
   9   2.0000      -0.762405       -20.7461
  10   2.0000      -0.714729       -19.4488
  11   2.0000      -0.653699       -17.7880
  12   2.0000      -0.572250       -15.5717
  13   2.0000      -0.529175       -14.3996
  14   2.0000      -0.464495       -12.6396
  15   2.0000      -0.461844       -12.5674
  16   2.0000      -0.444942       -12.1075
  17   2.0000      -0.411120       -11.1872
  18   2.0000      -0.401893       -10.9361
  19   2.0000      -0.380714       -10.3597
  20   2.0000      -0.367639       -10.0040
  21   2.0000      -0.352294        -9.5864
  22   2.0000      -0.331971        -9.0334
  23   2.0000      -0.318380        -8.6636
  24   2.0000      -0.312343        -8.4993
  25   2.0000      -0.299413        -8.1474
  26   2.0000      -0.275618        -7.5000
  27   2.0000      -0.252456        -6.8697
  28   0.0000      -0.021106        -0.5743
  29   0.0000       0.075313         2.0494
  30   0.0000       0.108127         2.9423
  31   0.0000       0.122320         3.3285
  32   0.0000       0.131932         3.5900

MULLIKEN ATOMIC CHARGES
-----------------------
   0 C :   -0.504374
   1 C :   -0.237050
   2 C :   -0.183642
   3 O :   -0.193866
   4 C :    0.466180
   5 O :   -0.517365
   6 C :   -0.554059
   7 H :    0.162360
   8 H :    0.158394
   9 H :    0.156616
  10 H :    0.158508
  11 H :    0.155248
  12 H :    0.172901
  13 H :    0.177374
  14 H :    0.193219
  15 H :    0.187393
  16 H :    0.202164
Sum of atomic charges:   -0.0000000

LOEWDIN ATOMIC CHARGES
----------------------
   0 C :   -0.425713
   1 C :   -0.283667
   2 C :    0.040604
   3 O :   -0.604195
   4 C :    0.364789
   5 O :   -0.500419
   6 C :   -0.334634
   7 H :    0.155854
   8 H :    0.156867
   9 H :    0.156006
  10 H :    0.168170
  11 H :    0.165137
  12 H :    0.187742
  13 H :    0.193132
  14 H :    0.186320
  15 H :    0.182044
  16 H :    0.191964

  Mayer bond orders larger than 0.100000
B(  0-C ,  1-C ) :   0.9035 B(  0-C ,  7-H ) :   0.9707 B(  0-C ,  8-H ) :   0.9763
B(  0-C ,  9-H ) :   0.9737 B(  1-C ,  2-C ) :   0.9579 B(  1-C , 10-H ) :   0.9569
B(  1-C , 11-H ) :   0.9672 B(  2-C ,  3-O ) :   0.7759 B(  2-C , 12-H ) :   0.9354
B(  2-C , 13-H ) :   0.9645 B(  3-O ,  4-C ) :   1.0996 B(  4-C ,  5-O ) :   1.7587
B(  4-C ,  6-C ) :   0.9457 B(  6-C , 14-H ) :   0.9539 B(  6-C , 15-H ) :   0.9747
B(  6-C , 16-H ) :   0.9299

Dispersion correction           -0.003958625
FINAL SINGLE POINT ENERGY      -346.941816165651

DIPOLE MOMENT
-------------

Method             : SCF
Type of density    : Electron Density
Multiplicity       :   1
Irrep              :   0
Energy             :  -346.9483166521291650 Eh
Relativity type    :
Basis              : AO
                                X                 Y                 Z
Electronic contribution:      5.356302653      -2.680262182       1.283510846
Nuclear contribution   :     -5.982208362       3.691407161      -0.994959591
                        -----------------------------------------
Total Dipole Moment    :     -0.625905709       1.011144979       0.288551255
                        -----------------------------------------
Magnitude (a.u.)       :      1.223696838
Magnitude (Debye)      :      3.110390176

Rotational constants in cm-1:             0.175625             0.047260             0.043401
Rotational constants in MHz :          5265.101123          1416.811846          1301.134849

                             ****ORCA TERMINATED NORMALLY****
TOTAL RUN TIME: 0 days 0 hours 0 minutes 27 seconds 311 msec
