                         Program Version 6.0.0  -   RELEASE  -
|  1> ! r2scan-3c def2/J RI DEFGRID2 scfconv6 printgap
|  2> %output
|  3>     printlevel normal
|  4> end
|  5> * xyz 0 1
|  6> C -4.3624545721 -1.8849498817 0.8196390282
|  7> C -2.9076275505 -1.4361251973 0.7631952167
|  8> C -2.646408414 -0.4895284205 -0.4129347096
|  9> H -3.4127516508 0.2928384933 -0.4113634977
| 10> C -2.6507655732 -1.1907235763 -1.766580634
| 11> N -1.3752087995 0.236148885 -0.2176794389
| 12> C -0.1846827657 -0.4845228569 -0.1441075568
| 13> O -0.1565995574 -1.698246535 -0.2366006822
| 14> C 0.9973509056 0.3279737489 0.0488525917
| 15> C 0.9587793801 1.6805043418 0.147901367
| 16> N -0.2655576441 2.2706933546 0.0610440965
| 17> C -1.4519205068 1.6058033626 -0.1178464505
| 18> O -2.4984477498 2.2277511956 -0.1810439916
| 19> C 2.1441003038 2.5491594447 0.3528112927
| 20> Br 2.6337756138 -0.6291361526 0.1631044961
| 21> H -4.6216365373 -2.4752079087 -0.0541377308
| 22> H -4.5237080574 -2.4961200379 1.7033264317
| 23> H -5.024508181 -1.0235961532 0.8685074155
| 24> H -2.6606894107 -0.908864721 1.6887440599
| 25> H -2.2523393458 -2.3042021911 0.6845816751
| 26> H -1.9203585617 -1.9951104178 -1.7826831942
| 27> H -3.6360457489 -1.6031741149 -1.9553842026
| 28> H -2.4163015285 -0.4807760332 -2.5566623421
| 29> H -0.3418938551 3.2804881966 0.136020462
| 30> H 1.896011343 3.5926687393 0.191958481
| 31> H 2.9457514125 2.2551500523 -0.3216043648
| 32> H 2.5200784371 2.4248960628 1.3677252926
| 33> *
| 34>
| 35>                          ****END OF INPUT****

CARTESIAN COORDINATES (ANGSTROEM)
---------------------------------
  C     -4.362455   -1.884950    0.819639
  C     -2.907628   -1.436125    0.763195
  C     -2.646408   -0.489528   -0.412935
  H     -3.412752    0.292838   -0.411363
  C     -2.650766   -1.190724   -1.766581
  N     -1.375209    0.236149   -0.217679
  C     -0.184683   -0.484523   -0.144108
  O     -0.156600   -1.698247   -0.236601
  C      0.997351    0.327974    0.048853
  C      0.958779    1.680504    0.147901
  N     -0.265558    2.270693    0.061044
  C     -1.451921    1.605803   -0.117846
  O     -2.498448    2.227751   -0.181044
  C      2.144100    2.549159    0.352811
  Br     2.633776   -0.629136    0.163104
  H     -4.621637   -2.475208   -0.054138
  H     -4.523708   -2.496120    1.703326
  H     -5.024508   -1.023596    0.868507
  H     -2.660689   -0.908865    1.688744
  H     -2.252339   -2.304202    0.684582
  H     -1.920359   -1.995110   -1.782683
  H     -3.636046   -1.603174   -1.955384
  H     -2.416302   -0.480776   -2.556662
  H     -0.341894    3.280488    0.136020
  H      1.896011    3.592669    0.191958
  H      2.945751    2.255150   -0.321604
  H      2.520078    2.424896    1.367725

 Total Charge           Charge          ....    0
 Multiplicity           Mult            ....    1
 Number of Electrons    NEL             ....  132
 Basis Dimension        Dim             ....  368

ORBITAL ENERGIES
----------------

  NO   OCC          E(Eh)            E(eV)
   0   2.0000    -482.235605    -13122.2979
   1   2.0000     -62.306803     -1695.4543
   2   2.0000     -56.087383     -1526.2153
   3   2.0000     -56.084623     -1526.1402
   4   2.0000     -56.084396     -1526.1340
   5   2.0000     -18.932303      -515.1741
   6   2.0000     -18.926273      -515.0101
   7   2.0000     -14.241376      -387.5275
   8   2.0000     -14.226902      -387.1337
   9   2.0000     -10.182193      -277.0716
  10   2.0000     -10.151334      -276.2318
  11   2.0000     -10.130228      -275.6575
  12   2.0000     -10.098343      -274.7899
  13   2.0000     -10.077249      -274.2159
  14   2.0000     -10.070120      -274.0219
  15   2.0000     -10.025863      -272.8176
  16   2.0000     -10.018699      -272.6227
  17   2.0000     -10.018602      -272.6200
  18   2.0000      -8.638632      -235.0691
  19   2.0000      -6.446765      -175.4254
  20   2.0000      -6.432436      -175.0355
  21   2.0000      -6.431605      -175.0129
  22   2.0000      -2.544196       -69.2311
  23   2.0000      -2.540694       -69.1358
  24   2.0000      -2.540126       -69.1203
  25   2.0000      -2.529442       -68.8296
  26   2.0000      -2.529431       -68.8293
  27   2.0000      -1.053781       -28.6748
  28   2.0000      -1.015109       -27.6225
  29   2.0000      -0.958742       -26.0887
  30   2.0000      -0.918543       -24.9948
  31   2.0000      -0.815173       -22.1820
  32   2.0000      -0.775330       -21.0978
  33   2.0000      -0.750306       -20.4169
  34   2.0000      -0.709182       -19.2978
  35   2.0000      -0.691904       -18.8277
  36   2.0000      -0.642702       -17.4888
  37   2.0000      -0.638272       -17.3683
  38   2.0000      -0.603558       -16.4236
  39   2.0000      -0.564636       -15.3645
  40   2.0000      -0.549792       -14.9606
  41   2.0000      -0.519717       -14.1422
  42   2.0000      -0.471737       -12.8366
  43   2.0000      -0.458145       -12.4668
  44   2.0000      -0.437494       -11.9048
  45   2.0000      -0.432696       -11.7743
  46   2.0000      -0.429034       -11.6746
  47   2.0000      -0.412265       -11.2183
  48   2.0000      -0.409471       -11.1423
  49   2.0000      -0.397970       -10.8293
  50   2.0000      -0.393636       -10.7114
  51   2.0000      -0.389762       -10.6060
  52   2.0000      -0.379557       -10.3283
  53   2.0000      -0.366157        -9.9637
  54   2.0000      -0.359239        -9.7754
  55   2.0000      -0.340650        -9.2696
  56   2.0000      -0.334698        -9.1076
  57   2.0000      -0.327649        -8.9158
  58   2.0000      -0.307649        -8.3716
  59   2.0000      -0.301384        -8.2011
  60   2.0000      -0.292514        -7.9597
  61   2.0000      -0.269569        -7.3353
  62   2.0000      -0.255858        -6.9623
  63   2.0000      -0.252915        -6.8822
  64   2.0000      -0.233470        -6.3530
  65   2.0000      -0.217851        -5.9280
  66   0.0000      -0.072674        -1.9776
  67   0.0000      -0.032556        -0.8859
  68   0.0000      -0.024798        -0.6748
  69   0.0000       0.039912         1.0861
  70   0.0000       0.065799         1.7905

MULLIKEN ATOMIC CHARGES
-----------------------
   0 C :   -0.508083
   1 C :   -0.244391
   2 C :   -0.074113
   3 H :    0.209666
   4 C :   -0.557889
   5 N :    0.168480
   6 C :    0.250080
   7 O :   -0.435965
   8 C :   -0.152072
   9 C :    0.163131
  10 N :   -0.032637
  11 C :    0.238817
  12 O :   -0.457776
  13 C :   -0.583177
  14 Br:   -0.077793
  15 H :    0.147043
  16 H :    0.152206
  17 H :    0.151158
  18 H :    0.143713
  19 H :    0.185530
  20 H :    0.201445
  21 H :    0.152479
  22 H :    0.151494
  23 H :    0.276228
  24 H :    0.146533
  25 H :    0.189153
  26 H :    0.196741
Sum of atomic charges:    0.0000000

LOEWDIN ATOMIC CHARGES
----------------------
   0 C :   -0.415706
   1 C :   -0.263780
   2 C :    0.045123
   3 H :    0.221188
   4 C :   -0.363006
   5 N :   -0.625478
   6 C :    0.356433
   7 O :   -0.474367
   8 C :   -0.197411
   9 C :    0.153290
  10 N :   -0.516595
  11 C :    0.460312
  12 O :   -0.423161
  13 C :   -0.351197
  14 Br:    0.261062
  15 H :    0.150908
  16 H :    0.154771
  17 H :    0.151961
  18 H :    0.163143
  19 H :    0.180790
  20 H :    0.180375
  21 H :    0.158175
  22 H :    0.161248
  23 H :    0.298428
  24 H :    0.164023
  25 H :    0.184344
  26 H :    0.185126

  Mayer bond orders larger than 0.100000
B(  0-C ,  1-C ) :   0.8903 B(  0-C , 15-H ) :   0.9821 B(  0-C , 16-H ) :   0.9705
B(  0-C , 17-H ) :   0.9897 B(  1-C ,  2-C ) :   0.8816 B(  1-C , 18-H ) :   0.9710
B(  1-C , 19-H ) :   0.9428 B(  2-C ,  3-H ) :   0.9633 B(  2-C ,  4-C ) :   0.8678
B(  2-C ,  5-N ) :   0.8743 B(  4-C , 20-H ) :   0.9755 B(  4-C , 21-H ) :   0.9688
B(  4-C , 22-H ) :   0.9713 B(  5-N ,  6-C ) :   1.1125 B(  5-N , 11-C ) :   1.1266
B(  6-C ,  7-O ) :   1.8984 B(  6-C ,  8-C ) :   0.9642 B(  6-C , 14-Br) :  -0.1160
B(  8-C ,  9-C ) :   1.4741 B(  8-C , 14-Br) :   1.2059 B(  9-C , 10-N ) :   1.1529
B(  9-C , 13-C ) :   0.8641 B( 10-N , 11-C ) :   1.0438 B( 10-N , 23-H ) :   0.9050
B( 11-C , 12-O ) :   1.9029 B( 13-C , 24-H ) :   0.9929 B( 13-C , 25-H ) :   0.9521
B( 13-C , 26-H ) :   0.9441

Dispersion correction           -0.011252668
FINAL SINGLE POINT ENERGY     -3184.785767194051

DIPOLE MOMENT
-------------

Method             : SCF
Type of density    : Electron Density
Multiplicity       :   1
Irrep              :   0
Energy             : -3184.7959468479043608 Eh
Relativity type    :
Basis              : AO
                                X                 Y                 Z
Electronic contribution:     47.053617906      -3.140807493       2.147905126
Nuclear contribution   :    -46.501508483       4.511212699      -1.935167730
                        -----------------------------------------
Total Dipole Moment    :      0.552109423       1.370405206       0.212737396
                        -----------------------------------------
Magnitude (a.u.)       :      1.492679619
Magnitude (Debye)      :      3.794090070

Rotational constants in cm-1:             0.028266             0.011144             0.008658
Rotational constants in MHz :           847.396944           334.097447           259.563948

                             ****ORCA TERMINATED NORMALLY****
TOTAL RUN TIME: 0 days 0 hours 1 minutes 14 seconds 416 msec
