                         Program Version 6.0.0  -   RELEASE  -
|  1> ! r2scan-3c def2/J RI DEFGRID2 scfconv6 printgap
|  2> %output
|  3>     printlevel normal
|  4> end
|  5> %cpcm
|  6>     smd true
|  7>     smdsolvent "water"
|  8> end
|  9> * xyz 0 1
| 10> C -4.3624545721 -1.8849498817 0.8196390282
| 11> C -2.9076275505 -1.4361251973 0.7631952167
| 12> C -2.646408414 -0.4895284205 -0.4129347096
| 13> H -3.4127516508 0.2928384933 -0.4113634977
| 14> C -2.6507655732 -1.1907235763 -1.766580634
| 15> N -1.3752087995 0.236148885 -0.2176794389
| 16> C -0.1846827657 -0.4845228569 -0.1441075568
| 17> O -0.1565995574 -1.698246535 -0.2366006822
| 18> C 0.9973509056 0.3279737489 0.0488525917
| 19> C 0.9587793801 1.6805043418 0.147901367
| 20> N -0.2655576441 2.2706933546 0.0610440965
| 21> C -1.4519205068 1.6058033626 -0.1178464505
| 22> O -2.4984477498 2.2277511956 -0.1810439916
| 23> C 2.1441003038 2.5491594447 0.3528112927
| 24> Br 2.6337756138 -0.6291361526 0.1631044961
| 25> H -4.6216365373 -2.4752079087 -0.0541377308
| 26> H -4.5237080574 -2.4961200379 1.7033264317
| 27> H -5.024508181 -1.0235961532 0.8685074155
| 28> H -2.6606894107 -0.908864721 1.6887440599
| 29> H -2.2523393458 -2.3042021911 0.6845816751
| 30> H -1.9203585617 -1.9951104178 -1.7826831942
| 31> H -3.6360457489 -1.6031741149 -1.9553842026
| 32> H -2.4163015285 -0.4807760332 -2.5566623421
| 33> H -0.3418938551 3.2804881966 0.136020462
| 34> H 1.896011343 3.5926687393 0.191958481
| 35> H 2.9457514125 2.2551500523 -0.3216043648
| 36> H 2.5200784371 2.4248960628 1.3677252926
| 37> *
| 38>
| 39>                          ****END OF INPUT****

CARTESIAN COORDINATES (ANGSTROEM)
---------------------------------
  C     -4.362455   -1.884950    0.819639
  C     -2.907628   -1.436125    0.763195
  C     -2.646408   -0.489528   -0.412935
  H     -3.412752    0.292838   -0.411363
  C     -2.650766   -1.190724   -1.766581
  N     -1.375209    0.236149   -0.217679
  C     -0.184683   -0.484523   -0.144108
  O     -0.156600   -1.698247   -0.236601
  C      0.997351    0.327974    0.048853
  C      0.958779    1.680504    0.147901
  N     -0.265558    2.270693    0.061044
  C     -1.451921    1.605803   -0.117846
  O     -2.498448    2.227751   -0.181044
  C      2.144100    2.549159    0.352811
  Br     2.633776   -0.629136    0.163104
  H     -4.621637   -2.475208   -0.054138
  H     -4.523708   -2.496120    1.703326
  H     -5.024508   -1.023596    0.868507
  H     -2.660689   -0.908865    1.688744
  H     -2.252339   -2.304202    0.684582
  H     -1.920359   -1.995110   -1.782683
  H     -3.636046   -1.603174   -1.955384
  H     -2.416302   -0.480776   -2.556662
  H     -0.341894    3.280488    0.136020
  H      1.896011    3.592669    0.191958
  H      2.945751    2.255150   -0.321604
  H      2.520078    2.424896    1.367725

 Total Charge           Charge          ....    0
 Multiplicity           Mult            ....    1
 Number of Electrons    NEL             ....  132
 Basis Dimension        Dim             ....  368

ORBITAL ENERGIES
----------------

  NO   OCC          E(Eh)            E(eV)
   0   2.0000    -482.234538    -13122.2689
   1   2.0000     -62.305796     -1695.4269
   2   2.0000     -56.086337     -1526.1868
   3   2.0000     -56.083627     -1526.1131
   4   2.0000     -56.083410     -1526.1072
   5   2.0000     -18.938827      -515.3517
   6   2.0000     -18.932850      -515.1890
   7   2.0000     -14.228892      -387.1878
   8   2.0000     -14.227017      -387.1368
   9   2.0000     -10.183869      -277.1172
  10   2.0000     -10.155203      -276.3371
  11   2.0000     -10.120978      -275.4058
  12   2.0000     -10.092062      -274.6190
  13   2.0000     -10.074222      -274.1335
  14   2.0000     -10.041319      -273.2382
  15   2.0000     -10.022254      -272.7194
  16   2.0000     -10.013985      -272.4944
  17   2.0000     -10.011271      -272.4205
  18   2.0000      -8.637680      -235.0432
  19   2.0000      -6.445618      -175.3942
  20   2.0000      -6.431573      -175.0120
  21   2.0000      -6.430772      -174.9902
  22   2.0000      -2.543111       -69.2016
  23   2.0000      -2.539670       -69.1079
  24   2.0000      -2.539123       -69.0931
  25   2.0000      -2.528646       -68.8079
  26   2.0000      -2.528638       -68.8077
  27   2.0000      -1.055294       -28.7160
  28   2.0000      -1.022191       -27.8152
  29   2.0000      -0.953000       -25.9324
  30   2.0000      -0.916668       -24.9438
  31   2.0000      -0.808821       -22.0092
  32   2.0000      -0.769133       -20.9292
  33   2.0000      -0.738923       -20.1071
  34   2.0000      -0.702498       -19.1159
  35   2.0000      -0.683600       -18.6017
  36   2.0000      -0.637684       -17.3523
  37   2.0000      -0.629527       -17.1303
  38   2.0000      -0.596576       -16.2337
  39   2.0000      -0.559106       -15.2141
  40   2.0000      -0.543641       -14.7932
  41   2.0000      -0.508931       -13.8487
  42   2.0000      -0.465669       -12.6715
  43   2.0000      -0.451857       -12.2957
  44   2.0000      -0.438737       -11.9386
  45   2.0000      -0.429017       -11.6741
  46   2.0000      -0.416177       -11.3248
  47   2.0000      -0.410931       -11.1820
  48   2.0000      -0.399750       -10.8777
  49   2.0000      -0.393114       -10.6972
  50   2.0000      -0.390444       -10.6245
  51   2.0000      -0.379754       -10.3336
  52   2.0000      -0.372875       -10.1464
  53   2.0000      -0.361417        -9.8347
  54   2.0000      -0.352274        -9.5859
  55   2.0000      -0.335423        -9.1273
  56   2.0000      -0.330080        -8.9819
  57   2.0000      -0.321840        -8.7577
  58   2.0000      -0.305908        -8.3242
  59   2.0000      -0.297036        -8.0827
  60   2.0000      -0.292172        -7.9504
  61   2.0000      -0.269747        -7.3402
  62   2.0000      -0.262618        -7.1462
  63   2.0000      -0.255988        -6.9658
  64   2.0000      -0.241410        -6.5691
  65   2.0000      -0.214508        -5.8371
  66   0.0000      -0.065771        -1.7897
  67   0.0000      -0.028958        -0.7880
  68   0.0000      -0.025723        -0.7000
  69   0.0000       0.058294         1.5863
  70   0.0000       0.078306         2.1308

MULLIKEN ATOMIC CHARGES
-----------------------
   0 C :   -0.546744
   1 C :   -0.253042
   2 C :   -0.057415
   3 H :    0.209717
   4 C :   -0.589388
   5 N :    0.194328
   6 C :    0.232644
   7 O :   -0.499618
   8 C :   -0.156906
   9 C :    0.205899
  10 N :   -0.040811
  11 C :    0.267622
  12 O :   -0.538434
  13 C :   -0.613966
  14 Br:   -0.108418
  15 H :    0.161888
  16 H :    0.163553
  17 H :    0.162529
  18 H :    0.164867
  19 H :    0.171652
  20 H :    0.188329
  21 H :    0.175070
  22 H :    0.170585
  23 H :    0.336767
  24 H :    0.191337
  25 H :    0.192257
  26 H :    0.215699
Sum of atomic charges:    0.0000000

LOEWDIN ATOMIC CHARGES
----------------------
   0 C :   -0.421305
   1 C :   -0.264914
   2 C :    0.047078
   3 H :    0.221818
   4 C :   -0.367123
   5 N :   -0.613771
   6 C :    0.357102
   7 O :   -0.535168
   8 C :   -0.205636
   9 C :    0.179020
  10 N :   -0.477204
  11 C :    0.467920
  12 O :   -0.480753
  13 C :   -0.346484
  14 Br:    0.241917
  15 H :    0.155281
  16 H :    0.157317
  17 H :    0.155655
  18 H :    0.168535
  19 H :    0.174670
  20 H :    0.174389
  21 H :    0.165691
  22 H :    0.166585
  23 H :    0.317551
  24 H :    0.182970
  25 H :    0.185781
  26 H :    0.193079

  Mayer bond orders larger than 0.100000
B(  0-C ,  1-C ) :   0.8878 B(  0-C , 15-H ) :   0.9770 B(  0-C , 16-H ) :   0.9680
B(  0-C , 17-H ) :   0.9870 B(  1-C ,  2-C ) :   0.8722 B(  1-C , 18-H ) :   0.9728
B(  1-C , 19-H ) :   0.9472 B(  2-C ,  3-H ) :   0.9571 B(  2-C ,  4-C ) :   0.8673
B(  2-C ,  5-N ) :   0.8649 B(  4-C , 20-H ) :   0.9774 B(  4-C , 21-H ) :   0.9632
B(  4-C , 22-H ) :   0.9682 B(  5-N ,  6-C ) :   1.1161 B(  5-N , 11-C ) :   1.1400
B(  6-C ,  7-O ) :   1.8657 B(  6-C ,  8-C ) :   0.9825 B(  8-C ,  9-C ) :   1.4508
B(  8-C , 14-Br) :   1.1444 B(  9-C , 10-N ) :   1.1611 B(  9-C , 13-C ) :   0.8412
B( 10-N , 11-C ) :   1.0695 B( 10-N , 23-H ) :   0.8796 B( 11-C , 12-O ) :   1.8366
B( 13-C , 24-H ) :   0.9814 B( 13-C , 25-H ) :   0.9513 B( 13-C , 26-H ) :   0.9357

Dispersion correction           -0.011252668
FINAL SINGLE POINT ENERGY     -3184.801968810547

DIPOLE MOMENT
-------------

Method             : SCF
Type of density    : Electron Density
Multiplicity       :   1
Irrep              :   0
Energy             : -3184.8121484644007069 Eh
Relativity type    :
Basis              : AO
                                X                 Y                 Z
Electronic contribution:     47.274309707      -2.322991017       2.242587346
Nuclear contribution   :    -46.501508483       4.511212699      -1.935167730
                        -----------------------------------------
Total Dipole Moment    :      0.772801224       2.188221682       0.307419616
                        -----------------------------------------
Magnitude (a.u.)       :      2.340949099
Magnitude (Debye)      :      5.950219738

Rotational constants in cm-1:             0.028266             0.011144             0.008658
Rotational constants in MHz :           847.396944           334.097447           259.563948

                             ****ORCA TERMINATED NORMALLY****
TOTAL RUN TIME: 0 days 0 hours 1 minutes 40 seconds 932 msec
