                         Program Version 6.0.0  -   RELEASE  -
|  1> ! r2scan-3c def2/J RI DEFGRID2 scfconv6 printgap
|  2> %output
|  3>     printlevel normal
|  4> end
|  5> * xyz 0 1
|  6> C 2.5509530002 -0.4006227206 -0.5463446741
|  7> C 1.2784203701 -0.0765567124 0.2388559238
|  8> H 1.2254149899 -0.7360651913 1.1221853934
|  9> C 0.0339401313 -0.3057975708 -0.6274769524
| 10> C -1.2700555664 -0.4795339765 0.1603514003
| 11> C -1.741329635 0.8371386145 0.7715579055
| 12> C -2.3558342179 -1.05006661 -0.751605984
| 13> O 1.2851295848 1.2745275428 0.6734714128
| 14> H 2.5487059129 -1.4435898128 -0.8484628393
| 15> H 2.6057510367 0.2259315828 -1.4334032766
| 16> H 3.4332974894 -0.2208931571 0.0643914111
| 17> H -0.063222747 0.5418143904 -1.3081225121
| 18> H 0.2023564982 -1.2052841134 -1.221541218
| 19> H -1.0875578985 -1.1955707333 0.9706033054
| 20> H -2.0023113811 1.5423549218 -0.0146235938
| 21> H -0.9554636387 1.2808999792 1.3752102641
| 22> H -2.6168888112 0.6755379555 1.3963752011
| 23> H -2.0619811737 -2.0209712233 -1.1436175591
| 24> H -3.2869014261 -1.1683633103 -0.2026887422
| 25> H -2.5341827855 -0.3794373203 -1.589237919
| 26> H 2.1146742801 1.4543866698 1.1354535012
| 27> *
| 28>
| 29>                          ****END OF INPUT****

CARTESIAN COORDINATES (ANGSTROEM)
---------------------------------
  C      2.550953   -0.400623   -0.546345
  C      1.278420   -0.076557    0.238856
  H      1.225415   -0.736065    1.122185
  C      0.033940   -0.305798   -0.627477
  C     -1.270056   -0.479534    0.160351
  C     -1.741330    0.837139    0.771558
  C     -2.355834   -1.050067   -0.751606
  O      1.285130    1.274528    0.673471
  H      2.548706   -1.443590   -0.848463
  H      2.605751    0.225932   -1.433403
  H      3.433297   -0.220893    0.064391
  H     -0.063223    0.541814   -1.308123
  H      0.202356   -1.205284   -1.221541
  H     -1.087558   -1.195571    0.970603
  H     -2.002311    1.542355   -0.014624
  H     -0.955464    1.280900    1.375210
  H     -2.616889    0.675538    1.396375
  H     -2.061981   -2.020971   -1.143618
  H     -3.286901   -1.168363   -0.202689
  H     -2.534183   -0.379437   -1.589238
  H      2.114674    1.454387    1.135454

 Total Charge           Charge          ....    0
 Multiplicity           Mult            ....    1
 Number of Electrons    NEL             ....   58
 Basis Dimension        Dim             ....  208

ORBITAL ENERGIES
----------------

  NO   OCC          E(Eh)            E(eV)
   0   2.0000     -18.945939      -515.5452
   1   2.0000     -10.081338      -274.3271
   2   2.0000     -10.027415      -272.8598
   3   2.0000     -10.021120      -272.6886
   4   2.0000     -10.019854      -272.6541
   5   2.0000     -10.010171      -272.3906
   6   2.0000     -10.000078      -272.1160
   7   2.0000      -0.984474       -26.7889
   8   2.0000      -0.773110       -21.0374
   9   2.0000      -0.721665       -19.6375
  10   2.0000      -0.648399       -17.6438
  11   2.0000      -0.639836       -17.4108
  12   2.0000      -0.562270       -15.3001
  13   2.0000      -0.522903       -14.2289
  14   2.0000      -0.477905       -13.0045
  15   2.0000      -0.429482       -11.6868
  16   2.0000      -0.417986       -11.3740
  17   2.0000      -0.397974       -10.8294
  18   2.0000      -0.379631       -10.3303
  19   2.0000      -0.372617       -10.1394
  20   2.0000      -0.352055        -9.5799
  21   2.0000      -0.344727        -9.3805
  22   2.0000      -0.335326        -9.1247
  23   2.0000      -0.324627        -8.8336
  24   2.0000      -0.310451        -8.4478
  25   2.0000      -0.288259        -7.8439
  26   2.0000      -0.285742        -7.7754
  27   2.0000      -0.270217        -7.3530
  28   2.0000      -0.233674        -6.3586
  29   0.0000       0.060797         1.6544
  30   0.0000       0.099021         2.6945
  31   0.0000       0.112188         3.0528
  32   0.0000       0.120959         3.2915
  33   0.0000       0.130695         3.5564

MULLIKEN ATOMIC CHARGES
-----------------------
   0 C :   -0.492297
   1 C :    0.042491
   2 H :    0.125342
   3 C :   -0.281113
   4 C :   -0.042088
   5 C :   -0.511802
   6 C :   -0.479895
   7 O :   -0.422627
   8 H :    0.147557
   9 H :    0.159673
  10 H :    0.135128
  11 H :    0.158495
  12 H :    0.138966
  13 H :    0.138140
  14 H :    0.143910
  15 H :    0.178692
  16 H :    0.140394
  17 H :    0.142027
  18 H :    0.147048
  19 H :    0.147318
  20 H :    0.284641
Sum of atomic charges:   -0.0000000

LOEWDIN ATOMIC CHARGES
----------------------
   0 C :   -0.400854
   1 C :    0.049826
   2 H :    0.160162
   3 C :   -0.268808
   4 C :   -0.242600
   5 C :   -0.415182
   6 C :   -0.418603
   7 O :   -0.625247
   8 H :    0.157451
   9 H :    0.162256
  10 H :    0.149952
  11 H :    0.174191
  12 H :    0.164179
  13 H :    0.154038
  14 H :    0.153353
  15 H :    0.172903
  16 H :    0.148204
  17 H :    0.150025
  18 H :    0.153062
  19 H :    0.153925
  20 H :    0.267767

  Mayer bond orders larger than 0.100000
B(  0-C ,  1-C ) :   0.9118 B(  0-C ,  8-H ) :   0.9736 B(  0-C ,  9-H ) :   0.9807
B(  0-C , 10-H ) :   0.9730 B(  1-C ,  2-H ) :   0.9710 B(  1-C ,  3-C ) :   0.9424
B(  1-C ,  7-O ) :   0.8790 B(  3-C ,  4-C ) :   0.9005 B(  3-C , 11-H ) :   0.9626
B(  3-C , 12-H ) :   0.9800 B(  4-C ,  5-C ) :   0.9115 B(  4-C ,  6-C ) :   0.8999
B(  4-C , 13-H ) :   0.9679 B(  5-C , 14-H ) :   0.9848 B(  5-C , 15-H ) :   0.9639
B(  5-C , 16-H ) :   0.9766 B(  6-C , 17-H ) :   0.9803 B(  6-C , 18-H ) :   0.9780
B(  6-C , 19-H ) :   0.9846 B(  7-O , 20-H ) :   0.9025

Dispersion correction           -0.005468911
FINAL SINGLE POINT ENERGY      -312.201858668128

DIPOLE MOMENT
-------------

Method             : SCF
Type of density    : Electron Density
Multiplicity       :   1
Irrep              :   0
Energy             :  -312.2075133788521271 Eh
Relativity type    :
Basis              : AO
                                X                 Y                 Z
Electronic contribution:      2.817832881       2.105658364       1.674216141
Nuclear contribution   :     -2.305987459      -2.466514203      -1.582517692
                        -----------------------------------------
Total Dipole Moment    :      0.511845423      -0.360855839       0.091698449
                        -----------------------------------------
Magnitude (a.u.)       :      0.632938606
Magnitude (Debye)      :      1.608802082

Rotational constants in cm-1:             0.147187             0.050670             0.040386
Rotational constants in MHz :          4412.540679          1519.055294          1210.744292

                             ****ORCA TERMINATED NORMALLY****
TOTAL RUN TIME: 0 days 0 hours 0 minutes 30 seconds 555 msec
