                         Program Version 6.0.0  -   RELEASE  -
|  1> ! r2scan-3c def2/J RI DEFGRID2 scfconv6 printgap
|  2> %output
|  3>     printlevel normal
|  4> end
|  5> %cpcm
|  6>     smd true
|  7>     smdsolvent "water"
|  8> end
|  9> * xyz 0 1
| 10> C 2.5509530002 -0.4006227206 -0.5463446741
| 11> C 1.2784203701 -0.0765567124 0.2388559238
| 12> H 1.2254149899 -0.7360651913 1.1221853934
| 13> C 0.0339401313 -0.3057975708 -0.6274769524
| 14> C -1.2700555664 -0.4795339765 0.1603514003
| 15> C -1.741329635 0.8371386145 0.7715579055
| 16> C -2.3558342179 -1.05006661 -0.751605984
| 17> O 1.2851295848 1.2745275428 0.6734714128
| 18> H 2.5487059129 -1.4435898128 -0.8484628393
| 19> H 2.6057510367 0.2259315828 -1.4334032766
| 20> H 3.4332974894 -0.2208931571 0.0643914111
| 21> H -0.063222747 0.5418143904 -1.3081225121
| 22> H 0.2023564982 -1.2052841134 -1.221541218
| 23> H -1.0875578985 -1.1955707333 0.9706033054
| 24> H -2.0023113811 1.5423549218 -0.0146235938
| 25> H -0.9554636387 1.2808999792 1.3752102641
| 26> H -2.6168888112 0.6755379555 1.3963752011
| 27> H -2.0619811737 -2.0209712233 -1.1436175591
| 28> H -3.2869014261 -1.1683633103 -0.2026887422
| 29> H -2.5341827855 -0.3794373203 -1.589237919
| 30> H 2.1146742801 1.4543866698 1.1354535012
| 31> *
| 32>
| 33>                          ****END OF INPUT****

CARTESIAN COORDINATES (ANGSTROEM)
---------------------------------
  C      2.550953   -0.400623   -0.546345
  C      1.278420   -0.076557    0.238856
  H      1.225415   -0.736065    1.122185
  C      0.033940   -0.305798   -0.627477
  C     -1.270056   -0.479534    0.160351
  C     -1.741330    0.837139    0.771558
  C     -2.355834   -1.050067   -0.751606
  O      1.285130    1.274528    0.673471
  H      2.548706   -1.443590   -0.848463
  H      2.605751    0.225932   -1.433403
  H      3.433297   -0.220893    0.064391
  H     -0.063223    0.541814   -1.308123
  H      0.202356   -1.205284   -1.221541
  H     -1.087558   -1.195571    0.970603
  H     -2.002311    1.542355   -0.014624
  H     -0.955464    1.280900    1.375210
  H     -2.616889    0.675538    1.396375
  H     -2.061981   -2.020971   -1.143618
  H     -3.286901   -1.168363   -0.202689
  H     -2.534183   -0.379437   -1.589238
  H      2.114674    1.454387    1.135454

 Total Charge           Charge          ....    0
 Multiplicity           Mult            ....    1
 Number of Electrons    NEL             ....   58
 Basis Dimension        Dim             ....  208

ORBITAL ENERGIES
----------------

  NO   OCC          E(Eh)            E(eV)
   0   2.0000     -18.946275      -515.5543
   1   2.0000     -10.074580      -274.1433
   2   2.0000     -10.023833      -272.7624
   3   2.0000     -10.013674      -272.4859
   4   2.0000     -10.009206      -272.3644
   5   2.0000     -10.005416      -272.2612
   6   2.0000     -10.002074      -272.1703
   7   2.0000      -0.983896       -26.7732
   8   2.0000      -0.769204       -20.9311
   9   2.0000      -0.714826       -19.4514
  10   2.0000      -0.641397       -17.4533
  11   2.0000      -0.639265       -17.3953
  12   2.0000      -0.556861       -15.1529
  13   2.0000      -0.519347       -14.1322
  14   2.0000      -0.472600       -12.8601
  15   2.0000      -0.424775       -11.5587
  16   2.0000      -0.414918       -11.2905
  17   2.0000      -0.393200       -10.6995
  18   2.0000      -0.375201       -10.2097
  19   2.0000      -0.365848        -9.9552
  20   2.0000      -0.345670        -9.4061
  21   2.0000      -0.342617        -9.3231
  22   2.0000      -0.330593        -8.9959
  23   2.0000      -0.322251        -8.7689
  24   2.0000      -0.309409        -8.4195
  25   2.0000      -0.285504        -7.7689
  26   2.0000      -0.282132        -7.6772
  27   2.0000      -0.266785        -7.2596
  28   2.0000      -0.234453        -6.3798
  29   0.0000       0.077824         2.1177
  30   0.0000       0.105035         2.8582
  31   0.0000       0.121029         3.2934
  32   0.0000       0.126875         3.4525
  33   0.0000       0.136485         3.7139

MULLIKEN ATOMIC CHARGES
-----------------------
   0 C :   -0.535525
   1 C :    0.051364
   2 H :    0.139604
   3 C :   -0.303733
   4 C :   -0.009413
   5 C :   -0.565975
   6 C :   -0.526512
   7 O :   -0.502098
   8 H :    0.164214
   9 H :    0.161384
  10 H :    0.160657
  11 H :    0.161521
  12 H :    0.157801
  13 H :    0.151329
  14 H :    0.159977
  15 H :    0.168379
  16 H :    0.155488
  17 H :    0.156964
  18 H :    0.157241
  19 H :    0.158436
  20 H :    0.338897
Sum of atomic charges:    0.0000000

LOEWDIN ATOMIC CHARGES
----------------------
   0 C :   -0.405375
   1 C :    0.052418
   2 H :    0.166954
   3 C :   -0.272444
   4 C :   -0.240905
   5 C :   -0.426343
   6 C :   -0.426404
   7 O :   -0.658235
   8 H :    0.163124
   9 H :    0.161714
  10 H :    0.158470
  11 H :    0.172662
  12 H :    0.171043
  13 H :    0.158200
  14 H :    0.155714
  15 H :    0.166024
  16 H :    0.152404
  17 H :    0.154526
  18 H :    0.154981
  19 H :    0.156159
  20 H :    0.285315

  Mayer bond orders larger than 0.100000
B(  0-C ,  1-C ) :   0.9152 B(  0-C ,  8-H ) :   0.9694 B(  0-C ,  9-H ) :   0.9766
B(  0-C , 10-H ) :   0.9694 B(  1-C ,  2-H ) :   0.9682 B(  1-C ,  3-C ) :   0.9336
B(  1-C ,  7-O ) :   0.8670 B(  3-C ,  4-C ) :   0.8913 B(  3-C , 11-H ) :   0.9685
B(  3-C , 12-H ) :   0.9734 B(  4-C ,  5-C ) :   0.8895 B(  4-C ,  6-C ) :   0.8925
B(  4-C , 13-H ) :   0.9658 B(  5-C , 14-H ) :   0.9851 B(  5-C , 15-H ) :   0.9686
B(  5-C , 16-H ) :   0.9736 B(  6-C , 17-H ) :   0.9767 B(  6-C , 18-H ) :   0.9759
B(  6-C , 19-H ) :   0.9833 B(  7-O , 20-H ) :   0.8776

Dispersion correction           -0.005468911
FINAL SINGLE POINT ENERGY      -312.206413416824

DIPOLE MOMENT
-------------

Method             : SCF
Type of density    : Electron Density
Multiplicity       :   1
Irrep              :   0
Energy             :  -312.2120681275488892 Eh
Relativity type    :
Basis              : AO
                                X                 Y                 Z
Electronic contribution:      2.986499231       1.859904458       1.711996045
Nuclear contribution   :     -2.305987459      -2.466514203      -1.582517692
                        -----------------------------------------
Total Dipole Moment    :      0.680511772      -0.606609745       0.129478352
                        -----------------------------------------
Magnitude (a.u.)       :      0.920780266
Magnitude (Debye)      :      2.340437438

Rotational constants in cm-1:             0.147187             0.050670             0.040386
Rotational constants in MHz :          4412.540679          1519.055294          1210.744292

                             ****ORCA TERMINATED NORMALLY****
TOTAL RUN TIME: 0 days 0 hours 0 minutes 35 seconds 444 msec
