                         Program Version 6.0.0  -   RELEASE  -
|  1> ! pbe def2-sv(p) def2/J RI DEFGRID1 loosescf d4 GCP(DFT/SV(P)) printgap
|  2> %output
|  3>     printlevel normal
|  4> end
|  5> * xyz 0 1
|  6> C -1.7910289295 0.4163280358 1.0288024076
|  7> C -1.3424702133 -0.3933279544 -0.1866305393
|  8> C -1.4200753932 0.4647751206 -1.4478353594
|  9> C -0.0003965951 -1.1269493037 0.0006431871
| 10> C 1.3421558142 -0.3937588685 0.1867415323
| 11> C 1.7897877348 0.4155074056 -1.0293372095
| 12> C 1.4218917419 0.4645346877 1.4477235567
| 13> H -2.8440416903 0.6725098747 0.9294853738
| 14> H -1.6641552699 -0.156190689 1.9440670024
| 15> H -1.2314877691 1.3421415987 1.1170531335
| 16> H -2.0719118754 -1.2061045806 -0.3106282098
| 17> H -1.0200173684 -0.0697593337 -2.3055243355
| 18> H -2.4579619536 0.7172511054 -1.6564334743
| 19> H -0.8708021205 1.393481737 -1.3276706909
| 20> H 0.1213184099 -1.7806343219 -0.8686791703
| 21> H -0.1222319975 -1.7799948725 0.8704179128
| 22> H 2.0712184962 -1.2068146581 0.3104302265
| 23> H 2.8443706121 0.667263609 -0.9336099274
| 24> H 1.6573215603 -0.155312014 -1.9449470204
| 25> H 1.2336261228 1.3437803721 -1.1142112908
| 26> H 0.8700217343 1.3919933491 1.3299534455
| 27> H 1.0263497109 -0.0710990715 2.3068102553
| 28> H 2.4600021859 0.7194665858 1.6522048078
| 29> *
| 30>
| 31>                          ****END OF INPUT****

CARTESIAN COORDINATES (ANGSTROEM)
---------------------------------
  C     -1.791029    0.416328    1.028802
  C     -1.342470   -0.393328   -0.186631
  C     -1.420075    0.464775   -1.447835
  C     -0.000397   -1.126949    0.000643
  C      1.342156   -0.393759    0.186742
  C      1.789788    0.415507   -1.029337
  C      1.421892    0.464535    1.447724
  H     -2.844042    0.672510    0.929485
  H     -1.664155   -0.156191    1.944067
  H     -1.231488    1.342142    1.117053
  H     -2.071912   -1.206105   -0.310628
  H     -1.020017   -0.069759   -2.305524
  H     -2.457962    0.717251   -1.656433
  H     -0.870802    1.393482   -1.327671
  H      0.121318   -1.780634   -0.868679
  H     -0.122232   -1.779995    0.870418
  H      2.071218   -1.206815    0.310430
  H      2.844371    0.667264   -0.933610
  H      1.657322   -0.155312   -1.944947
  H      1.233626    1.343780   -1.114211
  H      0.870022    1.391993    1.329953
  H      1.026350   -0.071099    2.306810
  H      2.460002    0.719467    1.652205

 Total Charge           Charge          ....    0
 Multiplicity           Mult            ....    1
 Number of Electrons    NEL             ....   58
 Basis Dimension        Dim             ....  130

ORBITAL ENERGIES
----------------

  NO   OCC          E(Eh)            E(eV)
   0   2.0000      -9.890094      -269.1231
   1   2.0000      -9.889981      -269.1201
   2   2.0000      -9.876383      -268.7500
   3   2.0000      -9.867468      -268.5075
   4   2.0000      -9.867439      -268.5067
   5   2.0000      -9.867240      -268.5013
   6   2.0000      -9.867207      -268.5003
   7   2.0000      -0.735254       -20.0073
   8   2.0000      -0.694717       -18.9042
   9   2.0000      -0.612591       -16.6695
  10   2.0000      -0.608553       -16.5596
  11   2.0000      -0.599331       -16.3086
  12   2.0000      -0.515762       -14.0346
  13   2.0000      -0.468207       -12.7406
  14   2.0000      -0.424403       -11.5486
  15   2.0000      -0.397087       -10.8053
  16   2.0000      -0.387324       -10.5396
  17   2.0000      -0.377766       -10.2795
  18   2.0000      -0.373244       -10.1565
  19   2.0000      -0.348524        -9.4838
  20   2.0000      -0.347598        -9.4586
  21   2.0000      -0.318658        -8.6711
  22   2.0000      -0.315514        -8.5856
  23   2.0000      -0.311363        -8.4726
  24   2.0000      -0.301592        -8.2067
  25   2.0000      -0.286597        -7.7987
  26   2.0000      -0.273575        -7.4443
  27   2.0000      -0.264512        -7.1977
  28   2.0000      -0.250943        -6.8285
  29   0.0000       0.022407         0.6097
  30   0.0000       0.059495         1.6189
  31   0.0000       0.063573         1.7299
  32   0.0000       0.071356         1.9417
  33   0.0000       0.081934         2.2296

MULLIKEN ATOMIC CHARGES
-----------------------
   0 C :   -0.242624
   1 C :   -0.163809
   2 C :   -0.242373
   3 C :   -0.138012
   4 C :   -0.163766
   5 C :   -0.242732
   6 C :   -0.242466
   7 H :    0.094510
   8 H :    0.093173
   9 H :    0.099597
  10 H :    0.067550
  11 H :    0.093820
  12 H :    0.094404
  13 H :    0.101082
  14 H :    0.073698
  15 H :    0.073654
  16 H :    0.067547
  17 H :    0.094576
  18 H :    0.093236
  19 H :    0.099602
  20 H :    0.101190
  21 H :    0.093798
  22 H :    0.094348
Sum of atomic charges:    0.0000000

LOEWDIN ATOMIC CHARGES
----------------------
   0 C :   -0.331033
   1 C :   -0.154926
   2 C :   -0.330769
   3 C :   -0.214338
   4 C :   -0.154936
   5 C :   -0.331009
   6 C :   -0.330781
   7 H :    0.116927
   8 H :    0.115464
   9 H :    0.114598
  10 H :    0.116483
  11 H :    0.115734
  12 H :    0.116984
  13 H :    0.114521
  14 H :    0.113197
  15 H :    0.113178
  16 H :    0.116501
  17 H :    0.116921
  18 H :    0.115447
  19 H :    0.114612
  20 H :    0.114497
  21 H :    0.115743
  22 H :    0.116985

  Mayer bond orders larger than 0.100000
B(  0-C ,  1-C ) :   1.1226 B(  0-C ,  7-H ) :   0.9468 B(  0-C ,  8-H ) :   0.9473
B(  0-C ,  9-H ) :   0.9400 B(  1-C ,  2-C ) :   1.1225 B(  1-C ,  3-C ) :   1.0997
B(  1-C , 10-H ) :   0.8935 B(  2-C , 11-H ) :   0.9468 B(  2-C , 12-H ) :   0.9465
B(  2-C , 13-H ) :   0.9400 B(  3-C ,  4-C ) :   1.0998 B(  3-C , 14-H ) :   0.9111
B(  3-C , 15-H ) :   0.9112 B(  4-C ,  5-C ) :   1.1225 B(  4-C ,  6-C ) :   1.1225
B(  4-C , 16-H ) :   0.8935 B(  5-C , 17-H ) :   0.9468 B(  5-C , 18-H ) :   0.9472
B(  5-C , 19-H ) :   0.9400 B(  6-C , 20-H ) :   0.9399 B(  6-C , 21-H ) :   0.9469
B(  6-C , 22-H ) :   0.9465

Dispersion correction           -0.019609090
FINAL SINGLE POINT ENERGY      -275.656156467261

DIPOLE MOMENT
-------------

Method             : SCF
Type of density    : Electron Density
Multiplicity       :   1
Irrep              :   0
Energy             :  -275.7329779726221091 Eh
Relativity type    :
Basis              : AO
                                X                 Y                 Z
Electronic contribution:     -0.001416526      -1.760926159       0.001102795
Nuclear contribution   :      0.001518684       1.709310145      -0.001202687
                        -----------------------------------------
Total Dipole Moment    :      0.000102158      -0.051616014      -0.000099892
                        -----------------------------------------
Magnitude (a.u.)       :      0.051616212
Magnitude (Debye)      :      0.131197984

Rotational constants in cm-1:             0.108274             0.063150             0.051355
Rotational constants in MHz :          3245.968694          1893.181885          1539.572709

                             ****ORCA TERMINATED NORMALLY****
TOTAL RUN TIME: 0 days 0 hours 0 minutes 11 seconds 114 msec
