                         Program Version 6.0.0  -   RELEASE  -
|  1> ! r2scan-3c def2/J RI DEFGRID2 scfconv6 printgap
|  2> %output
|  3>     printlevel normal
|  4> end
|  5> * xyz 0 1
|  6> C -2.0478336368 1.4952704981 0.0966314083
|  7> C -1.9367193477 0.046124905 -0.3622883766
|  8> C -0.9963779465 -0.7917478941 0.5145901755
|  9> C 0.4625296067 -0.6608134143 0.1616818581
| 10> O 1.2273561325 -1.6030742276 0.0919732265
| 11> O 0.845452127 0.5892346487 -0.0613331982
| 12> C 2.2156494283 0.8068705846 -0.4044626143
| 13> H -2.7178927043 2.0436117103 -0.5604441482
| 14> H -2.4439898261 1.5425412577 1.1082362647
| 15> H -1.0755127197 1.9779699119 0.0817924514
| 16> H -1.5919910065 0.012215746 -1.397217317
| 17> H -2.9261946109 -0.4123092473 -0.3274409602
| 18> H -1.2386555437 -1.8524710798 0.4404424586
| 19> H -1.1095226233 -0.4899709751 1.5582662071
| 20> H 2.8533337995 0.5753976218 0.4494576671
| 21> H 2.2899388071 1.8562209392 -0.671898131
| 22> H 2.4983022371 0.1664945369 -1.240892039
| 23> *
| 24>
| 25>                          ****END OF INPUT****

CARTESIAN COORDINATES (ANGSTROEM)
---------------------------------
  C     -2.047834    1.495270    0.096631
  C     -1.936719    0.046125   -0.362288
  C     -0.996378   -0.791748    0.514590
  C      0.462530   -0.660813    0.161682
  O      1.227356   -1.603074    0.091973
  O      0.845452    0.589235   -0.061333
  C      2.215649    0.806871   -0.404463
  H     -2.717893    2.043612   -0.560444
  H     -2.443990    1.542541    1.108236
  H     -1.075513    1.977970    0.081792
  H     -1.591991    0.012216   -1.397217
  H     -2.926195   -0.412309   -0.327441
  H     -1.238656   -1.852471    0.440442
  H     -1.109523   -0.489971    1.558266
  H      2.853334    0.575398    0.449458
  H      2.289939    1.856221   -0.671898
  H      2.498302    0.166495   -1.240892

 Total Charge           Charge          ....    0
 Multiplicity           Mult            ....    1
 Number of Electrons    NEL             ....   56
 Basis Dimension        Dim             ....  193

ORBITAL ENERGIES
----------------

  NO   OCC          E(Eh)            E(eV)
   0   2.0000     -19.001891      -517.0677
   1   2.0000     -18.928042      -515.0582
   2   2.0000     -10.153114      -276.2803
   3   2.0000     -10.088685      -274.5271
   4   2.0000     -10.043547      -273.2988
   5   2.0000     -10.037584      -273.1365
   6   2.0000     -10.017059      -272.5780
   7   2.0000      -1.076082       -29.2817
   8   2.0000      -0.975171       -26.5358
   9   2.0000      -0.773175       -21.0392
  10   2.0000      -0.708279       -19.2732
  11   2.0000      -0.664305       -18.0767
  12   2.0000      -0.574704       -15.6385
  13   2.0000      -0.536255       -14.5922
  14   2.0000      -0.475063       -12.9271
  15   2.0000      -0.454591       -12.3700
  16   2.0000      -0.445401       -12.1200
  17   2.0000      -0.412080       -11.2133
  18   2.0000      -0.407216       -11.0809
  19   2.0000      -0.391656       -10.6575
  20   2.0000      -0.374007       -10.1772
  21   2.0000      -0.350457        -9.5364
  22   2.0000      -0.337087        -9.1726
  23   2.0000      -0.315786        -8.5930
  24   2.0000      -0.312558        -8.5051
  25   2.0000      -0.301611        -8.2072
  26   2.0000      -0.275921        -7.5082
  27   2.0000      -0.233709        -6.3596
  28   0.0000      -0.015831        -0.4308
  29   0.0000       0.060771         1.6537
  30   0.0000       0.094802         2.5797
  31   0.0000       0.109172         2.9707
  32   0.0000       0.115821         3.1517

MULLIKEN ATOMIC CHARGES
-----------------------
   0 C :   -0.515701
   1 C :   -0.205485
   2 C :   -0.279728
   3 C :    0.315797
   4 O :   -0.417706
   5 O :   -0.158127
   6 C :   -0.295554
   7 H :    0.144726
   8 H :    0.140431
   9 H :    0.172629
  10 H :    0.140970
  11 H :    0.145944
  12 H :    0.173000
  13 H :    0.163471
  14 H :    0.159188
  15 H :    0.149874
  16 H :    0.166272
Sum of atomic charges:   -0.0000000

LOEWDIN ATOMIC CHARGES
----------------------
   0 C :   -0.421482
   1 C :   -0.294839
   2 C :   -0.230130
   3 C :    0.355082
   4 O :   -0.426239
   5 O :   -0.612470
   6 C :   -0.042811
   7 H :    0.150330
   8 H :    0.148844
   9 H :    0.166416
  10 H :    0.159361
  11 H :    0.154299
  12 H :    0.180812
  13 H :    0.181711
  14 H :    0.175765
  15 H :    0.175413
  16 H :    0.179939

  Mayer bond orders larger than 0.100000
B(  0-C ,  1-C ) :   0.9057 B(  0-C ,  7-H ) :   0.9706 B(  0-C ,  8-H ) :   0.9788
B(  0-C ,  9-H ) :   0.9823 B(  1-C ,  2-C ) :   0.8635 B(  1-C , 10-H ) :   0.9789
B(  1-C , 11-H ) :   0.9625 B(  2-C ,  3-C ) :   1.0178 B(  2-C , 12-H ) :   0.9655
B(  2-C , 13-H ) :   0.9405 B(  3-C ,  4-O ) :   1.8267 B(  3-C ,  5-O ) :   1.0795
B(  5-O ,  6-C ) :   0.8481 B(  6-C , 14-H ) :   0.9613 B(  6-C , 15-H ) :   0.9696
B(  6-C , 16-H ) :   0.9627

Dispersion correction           -0.004144780
FINAL SINGLE POINT ENERGY      -346.928540103999

DIPOLE MOMENT
-------------

Method             : SCF
Type of density    : Electron Density
Multiplicity       :   1
Irrep              :   0
Energy             :  -346.9352076242122962 Eh
Relativity type    :
Basis              : AO
                                X                 Y                 Z
Electronic contribution:      4.822308052      -4.283754839       0.462380196
Nuclear contribution   :     -5.093710276       5.069553833      -0.524635607
                        -----------------------------------------
Total Dipole Moment    :     -0.271402224       0.785798994      -0.062255411
                        -----------------------------------------
Magnitude (a.u.)       :      0.833675574
Magnitude (Debye)      :      2.119034906

Rotational constants in cm-1:             0.141012             0.061485             0.045763
Rotational constants in MHz :          4227.430761          1843.284534          1371.952246

                             ****ORCA TERMINATED NORMALLY****
TOTAL RUN TIME: 0 days 0 hours 0 minutes 25 seconds 741 msec
