                         Program Version 6.0.0  -   RELEASE  -
|  1> ! r2scan-3c def2/J RI DEFGRID2 scfconv6 printgap
|  2> %output
|  3>     printlevel normal
|  4> end
|  5> %cpcm
|  6>     smd true
|  7>     smdsolvent "water"
|  8> end
|  9> * xyz 0 1
| 10> C -2.0478336368 1.4952704981 0.0966314083
| 11> C -1.9367193477 0.046124905 -0.3622883766
| 12> C -0.9963779465 -0.7917478941 0.5145901755
| 13> C 0.4625296067 -0.6608134143 0.1616818581
| 14> O 1.2273561325 -1.6030742276 0.0919732265
| 15> O 0.845452127 0.5892346487 -0.0613331982
| 16> C 2.2156494283 0.8068705846 -0.4044626143
| 17> H -2.7178927043 2.0436117103 -0.5604441482
| 18> H -2.4439898261 1.5425412577 1.1082362647
| 19> H -1.0755127197 1.9779699119 0.0817924514
| 20> H -1.5919910065 0.012215746 -1.397217317
| 21> H -2.9261946109 -0.4123092473 -0.3274409602
| 22> H -1.2386555437 -1.8524710798 0.4404424586
| 23> H -1.1095226233 -0.4899709751 1.5582662071
| 24> H 2.8533337995 0.5753976218 0.4494576671
| 25> H 2.2899388071 1.8562209392 -0.671898131
| 26> H 2.4983022371 0.1664945369 -1.240892039
| 27> *
| 28>
| 29>                          ****END OF INPUT****

CARTESIAN COORDINATES (ANGSTROEM)
---------------------------------
  C     -2.047834    1.495270    0.096631
  C     -1.936719    0.046125   -0.362288
  C     -0.996378   -0.791748    0.514590
  C      0.462530   -0.660813    0.161682
  O      1.227356   -1.603074    0.091973
  O      0.845452    0.589235   -0.061333
  C      2.215649    0.806871   -0.404463
  H     -2.717893    2.043612   -0.560444
  H     -2.443990    1.542541    1.108236
  H     -1.075513    1.977970    0.081792
  H     -1.591991    0.012216   -1.397217
  H     -2.926195   -0.412309   -0.327441
  H     -1.238656   -1.852471    0.440442
  H     -1.109523   -0.489971    1.558266
  H      2.853334    0.575398    0.449458
  H      2.289939    1.856221   -0.671898
  H      2.498302    0.166495   -1.240892

 Total Charge           Charge          ....    0
 Multiplicity           Mult            ....    1
 Number of Electrons    NEL             ....   56
 Basis Dimension        Dim             ....  193

ORBITAL ENERGIES
----------------

  NO   OCC          E(Eh)            E(eV)
   0   2.0000     -19.004403      -517.1361
   1   2.0000     -18.942847      -515.4611
   2   2.0000     -10.162236      -276.5285
   3   2.0000     -10.076705      -274.2011
   4   2.0000     -10.036366      -273.1034
   5   2.0000     -10.027461      -272.8611
   6   2.0000     -10.007930      -272.3296
   7   2.0000      -1.080709       -29.4076
   8   2.0000      -0.987571       -26.8732
   9   2.0000      -0.766170       -20.8485
  10   2.0000      -0.701742       -19.0954
  11   2.0000      -0.656840       -17.8735
  12   2.0000      -0.566739       -15.4217
  13   2.0000      -0.532355       -14.4861
  14   2.0000      -0.471520       -12.8307
  15   2.0000      -0.457290       -12.4435
  16   2.0000      -0.450564       -12.2605
  17   2.0000      -0.407190       -11.0802
  18   2.0000      -0.401284       -10.9195
  19   2.0000      -0.385466       -10.4891
  20   2.0000      -0.369738       -10.0611
  21   2.0000      -0.348007        -9.4698
  22   2.0000      -0.333516        -9.0754
  23   2.0000      -0.309081        -8.4105
  24   2.0000      -0.303707        -8.2643
  25   2.0000      -0.296023        -8.0552
  26   2.0000      -0.281553        -7.6614
  27   2.0000      -0.248743        -6.7686
  28   0.0000      -0.022367        -0.6086
  29   0.0000       0.068243         1.8570
  30   0.0000       0.102702         2.7947
  31   0.0000       0.120592         3.2815
  32   0.0000       0.125096         3.4040

MULLIKEN ATOMIC CHARGES
-----------------------
   0 C :   -0.549836
   1 C :   -0.221262
   2 C :   -0.295394
   3 C :    0.363666
   4 O :   -0.509234
   5 O :   -0.168117
   6 C :   -0.330080
   7 H :    0.157004
   8 H :    0.156790
   9 H :    0.169248
  10 H :    0.155218
  11 H :    0.161738
  12 H :    0.180310
  13 H :    0.195416
  14 H :    0.178884
  15 H :    0.178360
  16 H :    0.177291
Sum of atomic charges:   -0.0000000

LOEWDIN ATOMIC CHARGES
----------------------
   0 C :   -0.427968
   1 C :   -0.293035
   2 C :   -0.228256
   3 C :    0.365745
   4 O :   -0.492051
   5 O :   -0.608981
   6 C :   -0.040647
   7 H :    0.153537
   8 H :    0.153664
   9 H :    0.163387
  10 H :    0.162717
  11 H :    0.160580
  12 H :    0.184030
  13 H :    0.194095
  14 H :    0.181847
  15 H :    0.187802
  16 H :    0.183533

  Mayer bond orders larger than 0.100000
B(  0-C ,  1-C ) :   0.9002 B(  0-C ,  7-H ) :   0.9684 B(  0-C ,  8-H ) :   0.9757
B(  0-C ,  9-H ) :   0.9819 B(  1-C ,  2-C ) :   0.8510 B(  1-C , 10-H ) :   0.9805
B(  1-C , 11-H ) :   0.9591 B(  2-C ,  3-C ) :   1.0148 B(  2-C , 12-H ) :   0.9631
B(  2-C , 13-H ) :   0.9289 B(  3-C ,  4-O ) :   1.7573 B(  3-C ,  5-O ) :   1.1103
B(  5-O ,  6-C ) :   0.8287 B(  6-C , 14-H ) :   0.9558 B(  6-C , 15-H ) :   0.9600
B(  6-C , 16-H ) :   0.9581

Dispersion correction           -0.004144780
FINAL SINGLE POINT ENERGY      -346.933490039640

DIPOLE MOMENT
-------------

Method             : SCF
Type of density    : Electron Density
Multiplicity       :   1
Irrep              :   0
Energy             :  -346.9401575598528780 Eh
Relativity type    :
Basis              : AO
                                X                 Y                 Z
Electronic contribution:      4.647061294      -3.986544167       0.471069613
Nuclear contribution   :     -5.093710276       5.069553833      -0.524635607
                        -----------------------------------------
Total Dipole Moment    :     -0.446648982       1.083009666      -0.053565994
                        -----------------------------------------
Magnitude (a.u.)       :      1.172721009
Magnitude (Debye)      :      2.980819916

Rotational constants in cm-1:             0.141012             0.061485             0.045763
Rotational constants in MHz :          4227.430761          1843.284534          1371.952246

                             ****ORCA TERMINATED NORMALLY****
TOTAL RUN TIME: 0 days 0 hours 0 minutes 32 seconds 649 msec
