                         Program Version 6.0.0  -   RELEASE  -
|  1> ! pbe def2-sv(p) def2/J RI DEFGRID1 loosescf d4 GCP(DFT/SV(P)) printgap
|  2> %output
|  3>     printlevel normal
|  4> end
|  5> * xyz 0 1
|  6> C 1.7089611958 0.6368148787 -0.9678162286
|  7> C 1.4149360151 0.1000232436 0.4314124635
|  8> C 1.6105005963 -1.4132844922 0.4869028447
|  9> C 0.0057473139 0.5034589026 0.8882464845
| 10> C -1.1190941131 0.0998431233 -0.0271985446
| 11> O -1.1338714893 -0.8321779833 -0.8015711587
| 12> O -2.1675752114 0.9015765876 0.1221035951
| 13> H 2.736202546 0.4180471487 -1.2472852765
| 14> H 1.5627185973 1.7138864155 -1.0059013737
| 15> H 1.050168722 0.1695042164 -1.6962703386
| 16> H 2.1180212847 0.5635645272 1.1325616568
| 17> H 2.6187218221 -1.67333219 0.1748562122
| 18> H 1.4564228323 -1.7841366365 1.497581048
| 19> H 0.9051562616 -1.9074738053 -0.1757536494
| 20> H -0.0608360378 1.5845546356 1.0193518543
| 21> H -0.2083876622 0.0426417335 1.856400047
| 22> H -2.9225849463 0.6427615019 -0.4407648204
| 23> *
| 24>
| 25>                          ****END OF INPUT****

CARTESIAN COORDINATES (ANGSTROEM)
---------------------------------
  C      1.708961    0.636815   -0.967816
  C      1.414936    0.100023    0.431412
  C      1.610501   -1.413284    0.486903
  C      0.005747    0.503459    0.888246
  C     -1.119094    0.099843   -0.027199
  O     -1.133871   -0.832178   -0.801571
  O     -2.167575    0.901577    0.122104
  H      2.736203    0.418047   -1.247285
  H      1.562719    1.713886   -1.005901
  H      1.050169    0.169504   -1.696270
  H      2.118021    0.563565    1.132562
  H      2.618722   -1.673332    0.174856
  H      1.456423   -1.784137    1.497581
  H      0.905156   -1.907474   -0.175754
  H     -0.060836    1.584555    1.019352
  H     -0.208388    0.042642    1.856400
  H     -2.922585    0.642762   -0.440765

 Total Charge           Charge          ....    0
 Multiplicity           Mult            ....    1
 Number of Electrons    NEL             ....   56
 Basis Dimension        Dim             ....  118

ORBITAL ENERGIES
----------------

  NO   OCC          E(Eh)            E(eV)
   0   2.0000     -18.800817      -511.5962
   1   2.0000     -18.739453      -509.9264
   2   2.0000     -10.016485      -272.5624
   3   2.0000      -9.902105      -269.4500
   4   2.0000      -9.899778      -269.3867
   5   2.0000      -9.871389      -268.6142
   6   2.0000      -9.866295      -268.4755
   7   2.0000      -1.010048       -27.4848
   8   2.0000      -0.912898       -24.8412
   9   2.0000      -0.735950       -20.0262
  10   2.0000      -0.658319       -17.9138
  11   2.0000      -0.607808       -16.5393
  12   2.0000      -0.569467       -15.4960
  13   2.0000      -0.500853       -13.6289
  14   2.0000      -0.441038       -12.0013
  15   2.0000      -0.427869       -11.6429
  16   2.0000      -0.411557       -11.1990
  17   2.0000      -0.396880       -10.7997
  18   2.0000      -0.378839       -10.3087
  19   2.0000      -0.372714       -10.1421
  20   2.0000      -0.334610        -9.1052
  21   2.0000      -0.330795        -9.0014
  22   2.0000      -0.322138        -8.7658
  23   2.0000      -0.293285        -7.9807
  24   2.0000      -0.289653        -7.8819
  25   2.0000      -0.288854        -7.8601
  26   2.0000      -0.274317        -7.4646
  27   2.0000      -0.220608        -6.0030
  28   0.0000      -0.025068        -0.6821
  29   0.0000       0.026070         0.7094
  30   0.0000       0.035186         0.9575
  31   0.0000       0.086055         2.3417
  32   0.0000       0.087792         2.3889

MULLIKEN ATOMIC CHARGES
-----------------------
   0 C :   -0.261282
   1 C :   -0.159554
   2 C :   -0.263216
   3 C :   -0.154902
   4 C :    0.076157
   5 O :   -0.187274
   6 O :   -0.288779
   7 H :    0.099173
   8 H :    0.094265
   9 H :    0.120106
  10 H :    0.072970
  11 H :    0.094913
  12 H :    0.090005
  13 H :    0.126859
  14 H :    0.107701
  15 H :    0.120323
  16 H :    0.312537
Sum of atomic charges:   -0.0000000

LOEWDIN ATOMIC CHARGES
----------------------
   0 C :   -0.335711
   1 C :   -0.149654
   2 C :   -0.338747
   3 C :   -0.242589
   4 C :    0.032548
   5 O :   -0.167859
   6 O :   -0.207814
   7 H :    0.119108
   8 H :    0.114743
   9 H :    0.124314
  10 H :    0.117282
  11 H :    0.116398
  12 H :    0.113457
  13 H :    0.127248
  14 H :    0.135322
  15 H :    0.145881
  16 H :    0.296072

  Mayer bond orders larger than 0.100000
B(  0-C ,  1-C ) :   1.1116 B(  0-C ,  7-H ) :   0.9505 B(  0-C ,  8-H ) :   0.9515
B(  0-C ,  9-H ) :   0.9407 B(  1-C ,  2-C ) :   1.1011 B(  1-C ,  3-C ) :   1.0693
B(  1-C , 10-H ) :   0.9033 B(  2-C , 11-H ) :   0.9492 B(  2-C , 12-H ) :   0.9503
B(  2-C , 13-H ) :   0.9383 B(  3-C ,  4-C ) :   1.0024 B(  3-C , 14-H ) :   0.9059
B(  3-C , 15-H ) :   0.8901 B(  4-C ,  5-O ) :   2.0653 B(  4-C ,  6-O ) :   1.2783
B(  6-O , 16-H ) :   0.8212

Dispersion correction           -0.013378941
FINAL SINGLE POINT ENERGY      -346.245665045718

DIPOLE MOMENT
-------------

Method             : SCF
Type of density    : Electron Density
Multiplicity       :   1
Irrep              :   0
Energy             :  -346.3111001216261684 Eh
Relativity type    :
Basis              : AO
                                X                 Y                 Z
Electronic contribution:     -8.842860098       0.686082158      -0.715071609
Nuclear contribution   :      8.634355792      -0.214733080       1.035771787
                        -----------------------------------------
Total Dipole Moment    :     -0.208504306       0.471349078       0.320700178
                        -----------------------------------------
Magnitude (a.u.)       :      0.607035916
Magnitude (Debye)      :      1.542962677

Rotational constants in cm-1:             0.146760             0.057577             0.054756
Rotational constants in MHz :          4399.752862          1726.129446          1641.550469

                             ****ORCA TERMINATED NORMALLY****
TOTAL RUN TIME: 0 days 0 hours 0 minutes 9 seconds 695 msec
