                         Program Version 6.0.0  -   RELEASE  -
|  1> ! pbe def2-sv(p) def2/J RI DEFGRID1 loosescf d4 GCP(DFT/SV(P)) printgap
|  2> %output
|  3>     printlevel normal
|  4> end
|  5> * xyz 0 1
|  6> C -1.5528148262 -1.1436883981 -0.1228002147
|  7> C -1.7313301319 0.3678598019 -0.0509590515
|  8> C -0.5400224355 1.0931080377 0.5755084812
|  9> C 0.7353001089 1.0432072682 -0.2792130541
| 10> C 1.4675074928 -0.1987673589 -0.1374867809
| 11> C 2.0978983191 -1.2069978054 0.002223218
| 12> H -0.7104777647 -1.4050981958 -0.7575341941
| 13> H -2.4485150129 -1.6100478065 -0.5267955221
| 14> H -1.3689445463 -1.5515570771 0.868787804
| 15> H -1.9027376046 0.7599991779 -1.0565793693
| 16> H -2.620490424 0.5909159688 0.544259814
| 17> H -0.8133614871 2.1416837168 0.7141662349
| 18> H -0.3314285752 0.668778973 1.5601029579
| 19> H 1.4021246536 1.8558614565 0.0229148132
| 20> H 0.4795600165 1.1890944501 -1.3322019323
| 21> H 2.6357837934 -2.1000874826 0.1145405537
| 22> *
| 23>
| 24>                          ****END OF INPUT****

CARTESIAN COORDINATES (ANGSTROEM)
---------------------------------
  C     -1.552815   -1.143688   -0.122800
  C     -1.731330    0.367860   -0.050959
  C     -0.540022    1.093108    0.575508
  C      0.735300    1.043207   -0.279213
  C      1.467507   -0.198767   -0.137487
  C      2.097898   -1.206998    0.002223
  H     -0.710478   -1.405098   -0.757534
  H     -2.448515   -1.610048   -0.526796
  H     -1.368945   -1.551557    0.868788
  H     -1.902738    0.759999   -1.056579
  H     -2.620490    0.590916    0.544260
  H     -0.813361    2.141684    0.714166
  H     -0.331429    0.668779    1.560103
  H      1.402125    1.855861    0.022915
  H      0.479560    1.189094   -1.332202
  H      2.635784   -2.100087    0.114541

 Total Charge           Charge          ....    0
 Multiplicity           Mult            ....    1
 Number of Electrons    NEL             ....   46
 Basis Dimension        Dim             ....  104

ORBITAL ENERGIES
----------------

  NO   OCC          E(Eh)            E(eV)
   0   2.0000      -9.911311      -269.7005
   1   2.0000      -9.892071      -269.1769
   2   2.0000      -9.888821      -269.0885
   3   2.0000      -9.885227      -268.9907
   4   2.0000      -9.874493      -268.6986
   5   2.0000      -9.867615      -268.5114
   6   2.0000      -0.737614       -20.0715
   7   2.0000      -0.680169       -18.5083
   8   2.0000      -0.637351       -17.3432
   9   2.0000      -0.582561       -15.8523
  10   2.0000      -0.513779       -13.9806
  11   2.0000      -0.471932       -12.8419
  12   2.0000      -0.428046       -11.6477
  13   2.0000      -0.423863       -11.5339
  14   2.0000      -0.388653       -10.5758
  15   2.0000      -0.366698        -9.9784
  16   2.0000      -0.350321        -9.5327
  17   2.0000      -0.332644        -9.0517
  18   2.0000      -0.298176        -8.1138
  19   2.0000      -0.292133        -7.9493
  20   2.0000      -0.289038        -7.8651
  21   2.0000      -0.232737        -6.3331
  22   2.0000      -0.227532        -6.1915
  23   0.0000       0.013647         0.3714
  24   0.0000       0.021712         0.5908
  25   0.0000       0.046091         1.2542
  26   0.0000       0.070727         1.9246
  27   0.0000       0.080918         2.2019

MULLIKEN ATOMIC CHARGES
-----------------------
   0 C :   -0.284059
   1 C :   -0.186262
   2 C :   -0.168755
   3 C :   -0.107650
   4 C :    0.397456
   5 C :   -0.601170
   6 H :    0.125184
   7 H :    0.099060
   8 H :    0.097049
   9 H :    0.081166
  10 H :    0.088599
  11 H :    0.086645
  12 H :    0.099133
  13 H :    0.113625
  14 H :    0.108957
  15 H :    0.051022
Sum of atomic charges:    0.0000000

LOEWDIN ATOMIC CHARGES
----------------------
   0 C :   -0.345154
   1 C :   -0.232339
   2 C :   -0.217352
   3 C :   -0.225097
   4 C :   -0.030280
   5 C :   -0.207188
   6 H :    0.124697
   7 H :    0.116973
   8 H :    0.118354
   9 H :    0.112963
  10 H :    0.116247
  11 H :    0.118295
  12 H :    0.122305
  13 H :    0.144843
  14 H :    0.139956
  15 H :    0.142777

  Mayer bond orders larger than 0.100000
B(  0-C ,  1-C ) :   1.1695 B(  0-C ,  6-H ) :   0.9413 B(  0-C ,  7-H ) :   0.9496
B(  0-C ,  8-H ) :   0.9534 B(  1-C ,  2-C ) :   1.1311 B(  1-C ,  9-H ) :   0.9235
B(  1-C , 10-H ) :   0.9255 B(  2-C ,  3-C ) :   1.0795 B(  2-C , 11-H ) :   0.9188
B(  2-C , 12-H ) :   0.9256 B(  3-C ,  4-C ) :   1.1309 B(  3-C , 13-H ) :   0.8828
B(  3-C , 14-H ) :   0.8826 B(  4-C ,  5-C ) :   2.2098 B(  4-C , 15-H ) :  -0.1274
B(  5-C , 15-H ) :   1.0892

Dispersion correction           -0.012006511
FINAL SINGLE POINT ENERGY      -234.008155652708

DIPOLE MOMENT
-------------

Method             : SCF
Type of density    : Electron Density
Multiplicity       :   1
Irrep              :   0
Energy             :  -234.0576066088263190 Eh
Relativity type    :
Basis              : AO
                                X                 Y                 Z
Electronic contribution:      5.153738567      -0.275286227      -0.144203999
Nuclear contribution   :     -5.327398486       0.506184403       0.142284281
                        -----------------------------------------
Total Dipole Moment    :     -0.173659919       0.230898176      -0.001919718
                        -----------------------------------------
Magnitude (a.u.)       :      0.288921132
Magnitude (Debye)      :      0.734379154

Rotational constants in cm-1:             0.178029             0.084817             0.062782
Rotational constants in MHz :          5337.176307          2542.754221          1882.167907

                             ****ORCA TERMINATED NORMALLY****
TOTAL RUN TIME: 0 days 0 hours 0 minutes 7 seconds 594 msec
