                         Program Version 6.0.0  -   RELEASE  -
|  1> ! r2scan-3c def2/J RI DEFGRID2 scfconv6 printgap
|  2> %output
|  3>     printlevel normal
|  4> end
|  5> * xyz 0 1
|  6> C 2.1410589213 -0.3914992122 1.2169393502
|  7> C 1.3375879762 -0.5033332539 -0.0744142971
|  8> C 0.286832973 0.6128862749 -0.2333502583
|  9> H 0.5492729238 1.4378457288 0.4403538052
| 10> C -1.1662453656 0.192606224 0.0880124147
| 11> C -1.7092254572 -0.8774066835 -0.8600126001
| 12> C -1.3070859729 -0.2627046115 1.5379567481
| 13> O 0.3601276521 1.2064278973 -1.5216559431
| 14> H 2.6615040761 0.5626666225 1.2572036548
| 15> H 2.8804791802 -1.1875295465 1.2651891777
| 16> H 1.4966787347 -0.4675050109 2.0879021513
| 17> H 2.0287570318 -0.426387201 -0.9169885132
| 18> H 0.8633620516 -1.4835582094 -0.1225424743
| 19> H -1.7712741006 1.0970377776 -0.0505086113
| 20> H -2.7385157449 -1.1053345611 -0.5939659638
| 21> H -1.7020597399 -0.530090215 -1.8902951398
| 22> H -1.1338291991 -1.7974655954 -0.7940095606
| 23> H -2.3563343421 -0.4209285569 1.7754269591
| 24> H -0.9120580739 0.4890314178 2.2169020223
| 25> H -0.7774489145 -1.1971952818 1.7020651594
| 26> H 0.1650474168 0.5297763688 -2.1842737327
| 27> *
| 28>
| 29>                          ****END OF INPUT****

CARTESIAN COORDINATES (ANGSTROEM)
---------------------------------
  C      2.141059   -0.391499    1.216939
  C      1.337588   -0.503333   -0.074414
  C      0.286833    0.612886   -0.233350
  H      0.549273    1.437846    0.440354
  C     -1.166245    0.192606    0.088012
  C     -1.709225   -0.877407   -0.860013
  C     -1.307086   -0.262705    1.537957
  O      0.360128    1.206428   -1.521656
  H      2.661504    0.562667    1.257204
  H      2.880479   -1.187530    1.265189
  H      1.496679   -0.467505    2.087902
  H      2.028757   -0.426387   -0.916989
  H      0.863362   -1.483558   -0.122542
  H     -1.771274    1.097038   -0.050509
  H     -2.738516   -1.105335   -0.593966
  H     -1.702060   -0.530090   -1.890295
  H     -1.133829   -1.797466   -0.794010
  H     -2.356334   -0.420929    1.775427
  H     -0.912058    0.489031    2.216902
  H     -0.777449   -1.197195    1.702065
  H      0.165047    0.529776   -2.184274

 Total Charge           Charge          ....    0
 Multiplicity           Mult            ....    1
 Number of Electrons    NEL             ....   58
 Basis Dimension        Dim             ....  208

ORBITAL ENERGIES
----------------

  NO   OCC          E(Eh)            E(eV)
   0   2.0000     -18.940920      -515.4086
   1   2.0000     -10.075360      -274.1645
   2   2.0000     -10.034324      -273.0478
   3   2.0000     -10.024602      -272.7833
   4   2.0000     -10.022213      -272.7183
   5   2.0000     -10.020094      -272.6606
   6   2.0000     -10.019109      -272.6338
   7   2.0000      -0.979751       -26.6604
   8   2.0000      -0.774101       -21.0644
   9   2.0000      -0.730657       -19.8822
  10   2.0000      -0.656238       -17.8571
  11   2.0000      -0.637845       -17.3567
  12   2.0000      -0.578052       -15.7296
  13   2.0000      -0.528291       -14.3755
  14   2.0000      -0.465806       -12.6752
  15   2.0000      -0.433480       -11.7956
  16   2.0000      -0.419110       -11.4046
  17   2.0000      -0.410654       -11.1745
  18   2.0000      -0.389526       -10.5995
  19   2.0000      -0.368208       -10.0195
  20   2.0000      -0.357441        -9.7265
  21   2.0000      -0.355165        -9.6645
  22   2.0000      -0.334816        -9.1108
  23   2.0000      -0.324082        -8.8187
  24   2.0000      -0.317971        -8.6524
  25   2.0000      -0.306474        -8.3396
  26   2.0000      -0.290045        -7.8925
  27   2.0000      -0.274718        -7.4755
  28   2.0000      -0.227593        -6.1931
  29   0.0000       0.059262         1.6126
  30   0.0000       0.085125         2.3164
  31   0.0000       0.108275         2.9463
  32   0.0000       0.116363         3.1664
  33   0.0000       0.122222         3.3258

MULLIKEN ATOMIC CHARGES
-----------------------
   0 C :   -0.506624
   1 C :   -0.255895
   2 C :   -0.020267
   3 H :    0.152166
   4 C :   -0.007900
   5 C :   -0.533339
   6 C :   -0.521943
   7 O :   -0.420930
   8 H :    0.152725
   9 H :    0.145587
  10 H :    0.154304
  11 H :    0.160287
  12 H :    0.139509
  13 H :    0.160335
  14 H :    0.152518
  15 H :    0.142628
  16 H :    0.154266
  17 H :    0.148766
  18 H :    0.156795
  19 H :    0.157696
  20 H :    0.289317
Sum of atomic charges:   -0.0000000

LOEWDIN ATOMIC CHARGES
----------------------
   0 C :   -0.418524
   1 C :   -0.294968
   2 C :    0.056954
   3 H :    0.184953
   4 C :   -0.222116
   5 C :   -0.416857
   6 C :   -0.413406
   7 O :   -0.612527
   8 H :    0.152031
   9 H :    0.150663
  10 H :    0.151066
  11 H :    0.169644
  12 H :    0.154163
  13 H :    0.166536
  14 H :    0.158241
  15 H :    0.151492
  16 H :    0.152512
  17 H :    0.154562
  18 H :    0.155778
  19 H :    0.154400
  20 H :    0.265405

  Mayer bond orders larger than 0.100000
B(  0-C ,  1-C ) :   0.8919 B(  0-C ,  8-H ) :   0.9858 B(  0-C ,  9-H ) :   0.9713
B(  0-C , 10-H ) :   0.9751 B(  1-C ,  2-C ) :   0.8477 B(  1-C , 11-H ) :   0.9700
B(  1-C , 12-H ) :   0.9649 B(  2-C ,  3-H ) :   0.9863 B(  2-C ,  4-C ) :   0.8907
B(  2-C ,  7-O ) :   0.9525 B(  4-C ,  5-C ) :   0.8938 B(  4-C ,  6-C ) :   0.8751
B(  4-C , 13-H ) :   0.9745 B(  5-C , 14-H ) :   0.9707 B(  5-C , 15-H ) :   0.9769
B(  5-C , 16-H ) :   0.9796 B(  6-C , 17-H ) :   0.9660 B(  6-C , 18-H ) :   0.9754
B(  6-C , 19-H ) :   0.9739 B(  7-O , 20-H ) :   0.8951

Dispersion correction           -0.005796149
FINAL SINGLE POINT ENERGY      -312.198207905162

DIPOLE MOMENT
-------------

Method             : SCF
Type of density    : Electron Density
Multiplicity       :   1
Irrep              :   0
Energy             :  -312.2038195029932126 Eh
Relativity type    :
Basis              : AO
                                X                 Y                 Z
Electronic contribution:      0.526218872       3.624683355      -3.748635251
Nuclear contribution   :     -0.694918242      -4.203490393       3.910629593
                        -----------------------------------------
Total Dipole Moment    :     -0.168699370      -0.578807038       0.161994342
                        -----------------------------------------
Magnitude (a.u.)       :      0.624274965
Magnitude (Debye)      :      1.586780856

Rotational constants in cm-1:             0.096298             0.069255             0.050431
Rotational constants in MHz :          2886.940405          2076.220409          1511.883311

                             ****ORCA TERMINATED NORMALLY****
TOTAL RUN TIME: 0 days 0 hours 0 minutes 25 seconds 47 msec
