                         Program Version 6.0.0  -   RELEASE  -
|  1> ! r2scan-3c def2/J RI DEFGRID2 scfconv6 printgap
|  2> %output
|  3>     printlevel normal
|  4> end
|  5> %cpcm
|  6>     smd true
|  7>     smdsolvent "water"
|  8> end
|  9> * xyz 0 1
| 10> C 2.1410589213 -0.3914992122 1.2169393502
| 11> C 1.3375879762 -0.5033332539 -0.0744142971
| 12> C 0.286832973 0.6128862749 -0.2333502583
| 13> H 0.5492729238 1.4378457288 0.4403538052
| 14> C -1.1662453656 0.192606224 0.0880124147
| 15> C -1.7092254572 -0.8774066835 -0.8600126001
| 16> C -1.3070859729 -0.2627046115 1.5379567481
| 17> O 0.3601276521 1.2064278973 -1.5216559431
| 18> H 2.6615040761 0.5626666225 1.2572036548
| 19> H 2.8804791802 -1.1875295465 1.2651891777
| 20> H 1.4966787347 -0.4675050109 2.0879021513
| 21> H 2.0287570318 -0.426387201 -0.9169885132
| 22> H 0.8633620516 -1.4835582094 -0.1225424743
| 23> H -1.7712741006 1.0970377776 -0.0505086113
| 24> H -2.7385157449 -1.1053345611 -0.5939659638
| 25> H -1.7020597399 -0.530090215 -1.8902951398
| 26> H -1.1338291991 -1.7974655954 -0.7940095606
| 27> H -2.3563343421 -0.4209285569 1.7754269591
| 28> H -0.9120580739 0.4890314178 2.2169020223
| 29> H -0.7774489145 -1.1971952818 1.7020651594
| 30> H 0.1650474168 0.5297763688 -2.1842737327
| 31> *
| 32>
| 33>                          ****END OF INPUT****

CARTESIAN COORDINATES (ANGSTROEM)
---------------------------------
  C      2.141059   -0.391499    1.216939
  C      1.337588   -0.503333   -0.074414
  C      0.286833    0.612886   -0.233350
  H      0.549273    1.437846    0.440354
  C     -1.166245    0.192606    0.088012
  C     -1.709225   -0.877407   -0.860013
  C     -1.307086   -0.262705    1.537957
  O      0.360128    1.206428   -1.521656
  H      2.661504    0.562667    1.257204
  H      2.880479   -1.187530    1.265189
  H      1.496679   -0.467505    2.087902
  H      2.028757   -0.426387   -0.916989
  H      0.863362   -1.483558   -0.122542
  H     -1.771274    1.097038   -0.050509
  H     -2.738516   -1.105335   -0.593966
  H     -1.702060   -0.530090   -1.890295
  H     -1.133829   -1.797466   -0.794010
  H     -2.356334   -0.420929    1.775427
  H     -0.912058    0.489031    2.216902
  H     -0.777449   -1.197195    1.702065
  H      0.165047    0.529776   -2.184274

 Total Charge           Charge          ....    0
 Multiplicity           Mult            ....    1
 Number of Electrons    NEL             ....   58
 Basis Dimension        Dim             ....  208

ORBITAL ENERGIES
----------------

  NO   OCC          E(Eh)            E(eV)
   0   2.0000     -18.946352      -515.5565
   1   2.0000     -10.070614      -274.0353
   2   2.0000     -10.025971      -272.8205
   3   2.0000     -10.015513      -272.5360
   4   2.0000     -10.009334      -272.3678
   5   2.0000     -10.008467      -272.3442
   6   2.0000     -10.008257      -272.3385
   7   2.0000      -0.983865       -26.7723
   8   2.0000      -0.765194       -20.8220
   9   2.0000      -0.721298       -19.6275
  10   2.0000      -0.644126       -17.5276
  11   2.0000      -0.631377       -17.1806
  12   2.0000      -0.569689       -15.5020
  13   2.0000      -0.522123       -14.2077
  14   2.0000      -0.458758       -12.4834
  15   2.0000      -0.426731       -11.6119
  16   2.0000      -0.408787       -11.1237
  17   2.0000      -0.406632       -11.0650
  18   2.0000      -0.379856       -10.3364
  19   2.0000      -0.359076        -9.7710
  20   2.0000      -0.348936        -9.4950
  21   2.0000      -0.343425        -9.3451
  22   2.0000      -0.328665        -8.9434
  23   2.0000      -0.316245        -8.6055
  24   2.0000      -0.309971        -8.4347
  25   2.0000      -0.296628        -8.0717
  26   2.0000      -0.282856        -7.6969
  27   2.0000      -0.270927        -7.3723
  28   2.0000      -0.231411        -6.2970
  29   0.0000       0.073925         2.0116
  30   0.0000       0.096451         2.6246
  31   0.0000       0.118418         3.2223
  32   0.0000       0.124243         3.3808
  33   0.0000       0.133294         3.6271

MULLIKEN ATOMIC CHARGES
-----------------------
   0 C :   -0.534894
   1 C :   -0.268677
   2 C :   -0.006580
   3 H :    0.161223
   4 C :   -0.015189
   5 C :   -0.557821
   6 C :   -0.559194
   7 O :   -0.513807
   8 H :    0.159088
   9 H :    0.156362
  10 H :    0.164575
  11 H :    0.162288
  12 H :    0.158355
  13 H :    0.159380
  14 H :    0.163869
  15 H :    0.158146
  16 H :    0.167677
  17 H :    0.161049
  18 H :    0.166050
  19 H :    0.171181
  20 H :    0.346920
Sum of atomic charges:   -0.0000000

LOEWDIN ATOMIC CHARGES
----------------------
   0 C :   -0.425208
   1 C :   -0.293188
   2 C :    0.055233
   3 H :    0.187704
   4 C :   -0.220128
   5 C :   -0.422325
   6 C :   -0.418803
   7 O :   -0.652468
   8 H :    0.152987
   9 H :    0.153329
  10 H :    0.154287
  11 H :    0.169611
  12 H :    0.161584
  13 H :    0.164846
  14 H :    0.160043
  15 H :    0.156985
  16 H :    0.157637
  17 H :    0.157545
  18 H :    0.158342
  19 H :    0.158802
  20 H :    0.283185

  Mayer bond orders larger than 0.100000
B(  0-C ,  1-C ) :   0.8828 B(  0-C ,  8-H ) :   0.9831 B(  0-C ,  9-H ) :   0.9695
B(  0-C , 10-H ) :   0.9726 B(  1-C ,  2-C ) :   0.8472 B(  1-C , 11-H ) :   0.9733
B(  1-C , 12-H ) :   0.9614 B(  2-C ,  3-H ) :   0.9852 B(  2-C ,  4-C ) :   0.8928
B(  2-C ,  7-O ) :   0.9288 B(  4-C ,  5-C ) :   0.9005 B(  4-C ,  6-C ) :   0.8741
B(  4-C , 13-H ) :   0.9765 B(  5-C , 14-H ) :   0.9708 B(  5-C , 15-H ) :   0.9688
B(  5-C , 16-H ) :   0.9750 B(  6-C , 17-H ) :   0.9638 B(  6-C , 18-H ) :   0.9718
B(  6-C , 19-H ) :   0.9727 B(  7-O , 20-H ) :   0.8678

Dispersion correction           -0.005796149
FINAL SINGLE POINT ENERGY      -312.204163580600

DIPOLE MOMENT
-------------

Method             : SCF
Type of density    : Electron Density
Multiplicity       :   1
Irrep              :   0
Energy             :  -312.2097751784316984 Eh
Relativity type    :
Basis              : AO
                                X                 Y                 Z
Electronic contribution:      0.472512888       3.344396402      -3.707215280
Nuclear contribution   :     -0.694918242      -4.203490393       3.910629593
                        -----------------------------------------
Total Dipole Moment    :     -0.222405354      -0.859093991       0.203414313
                        -----------------------------------------
Magnitude (a.u.)       :      0.910430673
Magnitude (Debye)      :      2.314130863

Rotational constants in cm-1:             0.096298             0.069255             0.050431
Rotational constants in MHz :          2886.940405          2076.220409          1511.883311

                             ****ORCA TERMINATED NORMALLY****
TOTAL RUN TIME: 0 days 0 hours 0 minutes 32 seconds 700 msec
