                         Program Version 6.0.0  -   RELEASE  -
|  1> ! pbe def2-sv(p) def2/J RI DEFGRID1 loosescf d4 GCP(DFT/SV(P)) printgap
|  2> %output
|  3>     printlevel normal
|  4> end
|  5> * xyz 0 1
|  6> C -1.6354032398 -0.8123574877 0.0496511699
|  7> O -1.2859814239 0.5190388773 -0.2748723871
|  8> C -0.0421993266 0.9518533198 0.2405839113
|  9> C 1.184229752 0.2864803799 -0.4119408742
| 10> O 1.7352480624 -0.7643483409 0.3519396136
| 11> H -1.0234080306 -1.5339598052 -0.5003010398
| 12> H -2.6747301573 -0.9290060784 -0.2489929775
| 13> H -1.5406781167 -0.9893016261 1.1259879064
| 14> H -0.0281781485 2.0238872967 0.040994358
| 15> H 0.0001478635 0.7868965303 1.326682108
| 16> H 1.9881094032 1.0189050122 -0.4985136063
| 17> H 0.9134553594 -0.0562975621 -1.4183140816
| 18> H 1.1129976102 -1.5032193851 0.3994016002
| 19> *
| 20>
| 21>                          ****END OF INPUT****

CARTESIAN COORDINATES (ANGSTROEM)
---------------------------------
  C     -1.635403   -0.812357    0.049651
  O     -1.285981    0.519039   -0.274872
  C     -0.042199    0.951853    0.240584
  C      1.184230    0.286480   -0.411941
  O      1.735248   -0.764348    0.351940
  H     -1.023408   -1.533960   -0.500301
  H     -2.674730   -0.929006   -0.248993
  H     -1.540678   -0.989302    1.125988
  H     -0.028178    2.023887    0.040994
  H      0.000148    0.786897    1.326682
  H      1.988109    1.018905   -0.498514
  H      0.913455   -0.056298   -1.418314
  H      1.112998   -1.503219    0.399402

 Total Charge           Charge          ....    0
 Multiplicity           Mult            ....    1
 Number of Electrons    NEL             ....   42
 Basis Dimension        Dim             ....   86

ORBITAL ENERGIES
----------------

  NO   OCC          E(Eh)            E(eV)
   0   2.0000     -18.755450      -510.3618
   1   2.0000     -18.746212      -510.1104
   2   2.0000      -9.934179      -270.3227
   3   2.0000      -9.930482      -270.2222
   4   2.0000      -9.929343      -270.1911
   5   2.0000      -0.938209       -25.5300
   6   2.0000      -0.917805       -24.9747
   7   2.0000      -0.676036       -18.3959
   8   2.0000      -0.613481       -16.6937
   9   2.0000      -0.545642       -14.8477
  10   2.0000      -0.467100       -12.7104
  11   2.0000      -0.438509       -11.9324
  12   2.0000      -0.435746       -11.8573
  13   2.0000      -0.403822       -10.9885
  14   2.0000      -0.378351       -10.2955
  15   2.0000      -0.356035        -9.6882
  16   2.0000      -0.328889        -8.9495
  17   2.0000      -0.296643        -8.0721
  18   2.0000      -0.264470        -7.1966
  19   2.0000      -0.226409        -6.1609
  20   2.0000      -0.201179        -5.4744
  21   0.0000       0.015639         0.4255
  22   0.0000       0.056911         1.5486
  23   0.0000       0.064801         1.7633
  24   0.0000       0.084629         2.3029
  25   0.0000       0.094902         2.5824

MULLIKEN ATOMIC CHARGES
-----------------------
   0 C :   -0.124745
   1 O :   -0.338415
   2 C :   -0.010194
   3 C :   -0.021942
   4 O :   -0.443097
   5 H :    0.085526
   6 H :    0.121260
   7 H :    0.089624
   8 H :    0.090274
   9 H :    0.077604
  10 H :    0.092375
  11 H :    0.087823
  12 H :    0.293909
Sum of atomic charges:   -0.0000000

LOEWDIN ATOMIC CHARGES
----------------------
   0 C :   -0.212073
   1 O :   -0.182098
   2 C :   -0.139452
   3 C :   -0.146849
   4 O :   -0.341464
   5 H :    0.089177
   6 H :    0.119599
   7 H :    0.097964
   8 H :    0.116884
   9 H :    0.099501
  10 H :    0.118952
  11 H :    0.103350
  12 H :    0.276509

  Mayer bond orders larger than 0.100000
B(  0-C ,  1-O ) :   1.0284 B(  0-C ,  5-H ) :   0.9326 B(  0-C ,  6-H ) :   0.9616
B(  0-C ,  7-H ) :   0.9364 B(  1-O ,  2-C ) :   1.0419 B(  2-C ,  3-C ) :   1.0553
B(  2-C ,  8-H ) :   0.9248 B(  2-C ,  9-H ) :   0.9153 B(  3-C ,  4-O ) :   1.0698
B(  3-C , 10-H ) :   0.9268 B(  3-C , 11-H ) :   0.9193 B(  4-O , 12-H ) :   0.8518

Dispersion correction           -0.007700509
FINAL SINGLE POINT ENERGY      -268.930058707763

DIPOLE MOMENT
-------------

Method             : SCF
Type of density    : Electron Density
Multiplicity       :   1
Irrep              :   0
Energy             :  -268.9907472109646278 Eh
Relativity type    :
Basis              : AO
                                X                 Y                 Z
Electronic contribution:      0.841424508       0.755711448      -0.203928359
Nuclear contribution   :     -1.168180917      -1.112656225       0.214058471
                        -----------------------------------------
Total Dipole Moment    :     -0.326756409      -0.356944777       0.010130112
                        -----------------------------------------
Magnitude (a.u.)       :      0.484026801
Magnitude (Debye)      :      1.230298355

Rotational constants in cm-1:             0.297001             0.111093             0.090026
Rotational constants in MHz :          8903.853056          3330.479979          2698.906747

                             ****ORCA TERMINATED NORMALLY****
TOTAL RUN TIME: 0 days 0 hours 0 minutes 6 seconds 373 msec
