                         Program Version 6.0.0  -   RELEASE  -
|  1> ! r2scan-3c def2/J RI DEFGRID2 scfconv6 printgap
|  2> %output
|  3>     printlevel normal
|  4> end
|  5> * xyz 0 1
|  6> C 1.7179819962 -1.1888721524 -0.0375345813
|  7> C 1.2311116111 0.1585204259 0.4838166839
|  8> H 1.0581951415 0.0765687775 1.570956637
|  9> C -0.0646647647 0.6327629784 -0.188804799
| 10> C -1.2891474581 -0.2500250046 0.1123751399
| 11> C -2.5104024694 0.614172622 0.4285296297
| 12> C -1.611065104 -1.1803274504 -1.0561535919
| 13> O 2.2842140264 1.0853711614 0.2562568927
| 14> H 1.0162530914 -1.9742663803 0.221713556
| 15> H 1.8393129553 -1.1439606061 -1.1165952049
| 16> H 2.6840756664 -1.4141657736 0.4068693051
| 17> H -0.2638896557 1.6488491107 0.161241855
| 18> H 0.1051589976 0.6868382699 -1.2657680775
| 19> H -1.0695833868 -0.8605429712 0.9954672585
| 20> H -2.7454079149 1.2589485215 -0.4155136439
| 21> H -2.3279501845 1.2371470269 1.3010775128
| 22> H -3.3756412865 -0.0123998632 0.6318647885
| 23> H -0.753038357 -1.791418849 -1.3196490069
| 24> H -2.4364323504 -1.8402008556 -0.7983516487
| 25> H -1.8996135508 -0.5981497496 -1.9287684771
| 26> H 2.0131569478 1.9618828886 0.5594606845
| 27> *
| 28>
| 29>                          ****END OF INPUT****

CARTESIAN COORDINATES (ANGSTROEM)
---------------------------------
  C      1.717982   -1.188872   -0.037535
  C      1.231112    0.158520    0.483817
  H      1.058195    0.076569    1.570957
  C     -0.064665    0.632763   -0.188805
  C     -1.289147   -0.250025    0.112375
  C     -2.510402    0.614173    0.428530
  C     -1.611065   -1.180327   -1.056154
  O      2.284214    1.085371    0.256257
  H      1.016253   -1.974266    0.221714
  H      1.839313   -1.143961   -1.116595
  H      2.684076   -1.414166    0.406869
  H     -0.263890    1.648849    0.161242
  H      0.105159    0.686838   -1.265768
  H     -1.069583   -0.860543    0.995467
  H     -2.745408    1.258949   -0.415514
  H     -2.327950    1.237147    1.301078
  H     -3.375641   -0.012400    0.631865
  H     -0.753038   -1.791419   -1.319649
  H     -2.436432   -1.840201   -0.798352
  H     -1.899614   -0.598150   -1.928768
  H      2.013157    1.961883    0.559461

 Total Charge           Charge          ....    0
 Multiplicity           Mult            ....    1
 Number of Electrons    NEL             ....   58
 Basis Dimension        Dim             ....  208

ORBITAL ENERGIES
----------------

  NO   OCC          E(Eh)            E(eV)
   0   2.0000     -18.943127      -515.4687
   1   2.0000     -10.080662      -274.3088
   2   2.0000     -10.037642      -273.1381
   3   2.0000     -10.023401      -272.7506
   4   2.0000     -10.018108      -272.6066
   5   2.0000     -10.016637      -272.5665
   6   2.0000     -10.015548      -272.5369
   7   2.0000      -0.980818       -26.6894
   8   2.0000      -0.780766       -21.2457
   9   2.0000      -0.719771       -19.5860
  10   2.0000      -0.654549       -17.8112
  11   2.0000      -0.649124       -17.6636
  12   2.0000      -0.558958       -15.2100
  13   2.0000      -0.531068       -14.4511
  14   2.0000      -0.481167       -13.0932
  15   2.0000      -0.436492       -11.8775
  16   2.0000      -0.419788       -11.4230
  17   2.0000      -0.408144       -11.1062
  18   2.0000      -0.376227       -10.2377
  19   2.0000      -0.368103       -10.0166
  20   2.0000      -0.357372        -9.7246
  21   2.0000      -0.351169        -9.5558
  22   2.0000      -0.334610        -9.1052
  23   2.0000      -0.328728        -8.9451
  24   2.0000      -0.314559        -8.5596
  25   2.0000      -0.296513        -8.0685
  26   2.0000      -0.293871        -7.9966
  27   2.0000      -0.277924        -7.5627
  28   2.0000      -0.231479        -6.2989
  29   0.0000       0.065186         1.7738
  30   0.0000       0.081673         2.2224
  31   0.0000       0.109911         2.9908
  32   0.0000       0.114875         3.1259
  33   0.0000       0.117040         3.1848

MULLIKEN ATOMIC CHARGES
-----------------------
   0 C :   -0.520627
   1 C :    0.000889
   2 H :    0.136967
   3 C :   -0.262265
   4 C :   -0.033892
   5 C :   -0.492672
   6 C :   -0.508368
   7 O :   -0.416428
   8 H :    0.151962
   9 H :    0.162450
  10 H :    0.157963
  11 H :    0.133294
  12 H :    0.161983
  13 H :    0.152487
  14 H :    0.151752
  15 H :    0.145991
  16 H :    0.143929
  17 H :    0.152372
  18 H :    0.145155
  19 H :    0.153808
  20 H :    0.283251
Sum of atomic charges:   -0.0000000

LOEWDIN ATOMIC CHARGES
----------------------
   0 C :   -0.384425
   1 C :    0.050234
   2 H :    0.158408
   3 C :   -0.279147
   4 C :   -0.246775
   5 C :   -0.416635
   6 C :   -0.416350
   7 O :   -0.616466
   8 H :    0.157164
   9 H :    0.160385
  10 H :    0.164587
  11 H :    0.159005
  12 H :    0.168311
  13 H :    0.155706
  14 H :    0.154559
  15 H :    0.151513
  16 H :    0.152492
  17 H :    0.154745
  18 H :    0.152327
  19 H :    0.153526
  20 H :    0.266837

  Mayer bond orders larger than 0.100000
B(  0-C ,  1-C ) :   0.8920 B(  0-C ,  8-H ) :   0.9678 B(  0-C ,  9-H ) :   0.9846
B(  0-C , 10-H ) :   0.9634 B(  1-C ,  2-H ) :   0.9950 B(  1-C ,  3-C ) :   0.8790
B(  1-C ,  7-O ) :   0.9154 B(  3-C ,  4-C ) :   0.8166 B(  3-C , 11-H ) :   0.9767
B(  3-C , 12-H ) :   0.9692 B(  4-C ,  5-C ) :   0.8918 B(  4-C ,  6-C ) :   0.9082
B(  4-C , 13-H ) :   0.9675 B(  5-C , 14-H ) :   0.9847 B(  5-C , 15-H ) :   0.9781
B(  5-C , 16-H ) :   0.9758 B(  6-C , 17-H ) :   0.9644 B(  6-C , 18-H ) :   0.9762
B(  6-C , 19-H ) :   0.9897 B(  7-O , 20-H ) :   0.9004

Dispersion correction           -0.005582601
FINAL SINGLE POINT ENERGY      -312.200725176380

DIPOLE MOMENT
-------------

Method             : SCF
Type of density    : Electron Density
Multiplicity       :   1
Irrep              :   0
Energy             :  -312.2062355320216511 Eh
Relativity type    :
Basis              : AO
                                X                 Y                 Z
Electronic contribution:      5.188417600       2.670977392       1.166003809
Nuclear contribution   :     -5.740876040      -2.577792924      -0.930602646
                        -----------------------------------------
Total Dipole Moment    :     -0.552458440       0.093184468       0.235401162
                        -----------------------------------------
Magnitude (a.u.)       :      0.607706657
Magnitude (Debye)      :      1.544667565

Rotational constants in cm-1:             0.142001             0.048983             0.040310
Rotational constants in MHz :          4257.097329          1468.463096          1208.473007

                             ****ORCA TERMINATED NORMALLY****
TOTAL RUN TIME: 0 days 0 hours 0 minutes 30 seconds 95 msec
