                         Program Version 6.0.0  -   RELEASE  -
|  1> ! r2scan-3c def2/J RI DEFGRID2 scfconv6 printgap
|  2> %output
|  3>     printlevel normal
|  4> end
|  5> %cpcm
|  6>     smd true
|  7>     smdsolvent "water"
|  8> end
|  9> * xyz 0 1
| 10> C 1.7179819962 -1.1888721524 -0.0375345813
| 11> C 1.2311116111 0.1585204259 0.4838166839
| 12> H 1.0581951415 0.0765687775 1.570956637
| 13> C -0.0646647647 0.6327629784 -0.188804799
| 14> C -1.2891474581 -0.2500250046 0.1123751399
| 15> C -2.5104024694 0.614172622 0.4285296297
| 16> C -1.611065104 -1.1803274504 -1.0561535919
| 17> O 2.2842140264 1.0853711614 0.2562568927
| 18> H 1.0162530914 -1.9742663803 0.221713556
| 19> H 1.8393129553 -1.1439606061 -1.1165952049
| 20> H 2.6840756664 -1.4141657736 0.4068693051
| 21> H -0.2638896557 1.6488491107 0.161241855
| 22> H 0.1051589976 0.6868382699 -1.2657680775
| 23> H -1.0695833868 -0.8605429712 0.9954672585
| 24> H -2.7454079149 1.2589485215 -0.4155136439
| 25> H -2.3279501845 1.2371470269 1.3010775128
| 26> H -3.3756412865 -0.0123998632 0.6318647885
| 27> H -0.753038357 -1.791418849 -1.3196490069
| 28> H -2.4364323504 -1.8402008556 -0.7983516487
| 29> H -1.8996135508 -0.5981497496 -1.9287684771
| 30> H 2.0131569478 1.9618828886 0.5594606845
| 31> *
| 32>
| 33>                          ****END OF INPUT****

CARTESIAN COORDINATES (ANGSTROEM)
---------------------------------
  C      1.717982   -1.188872   -0.037535
  C      1.231112    0.158520    0.483817
  H      1.058195    0.076569    1.570957
  C     -0.064665    0.632763   -0.188805
  C     -1.289147   -0.250025    0.112375
  C     -2.510402    0.614173    0.428530
  C     -1.611065   -1.180327   -1.056154
  O      2.284214    1.085371    0.256257
  H      1.016253   -1.974266    0.221714
  H      1.839313   -1.143961   -1.116595
  H      2.684076   -1.414166    0.406869
  H     -0.263890    1.648849    0.161242
  H      0.105159    0.686838   -1.265768
  H     -1.069583   -0.860543    0.995467
  H     -2.745408    1.258949   -0.415514
  H     -2.327950    1.237147    1.301078
  H     -3.375641   -0.012400    0.631865
  H     -0.753038   -1.791419   -1.319649
  H     -2.436432   -1.840201   -0.798352
  H     -1.899614   -0.598150   -1.928768
  H      2.013157    1.961883    0.559461

 Total Charge           Charge          ....    0
 Multiplicity           Mult            ....    1
 Number of Electrons    NEL             ....   58
 Basis Dimension        Dim             ....  208

ORBITAL ENERGIES
----------------

  NO   OCC          E(Eh)            E(eV)
   0   2.0000     -18.947797      -515.5958
   1   2.0000     -10.075531      -274.1691
   2   2.0000     -10.026695      -272.8402
   3   2.0000     -10.013274      -272.4750
   4   2.0000     -10.009853      -272.3819
   5   2.0000     -10.006460      -272.2896
   6   2.0000     -10.005698      -272.2689
   7   2.0000      -0.984219       -26.7820
   8   2.0000      -0.770687       -20.9715
   9   2.0000      -0.713754       -19.4222
  10   2.0000      -0.645483       -17.5645
  11   2.0000      -0.639508       -17.4019
  12   2.0000      -0.554033       -15.0760
  13   2.0000      -0.521101       -14.1799
  14   2.0000      -0.477793       -13.0014
  15   2.0000      -0.429111       -11.6767
  16   2.0000      -0.410180       -11.1616
  17   2.0000      -0.398644       -10.8476
  18   2.0000      -0.368993       -10.0408
  19   2.0000      -0.365021        -9.9327
  20   2.0000      -0.349189        -9.5019
  21   2.0000      -0.343601        -9.3499
  22   2.0000      -0.328183        -8.9303
  23   2.0000      -0.324395        -8.8272
  24   2.0000      -0.306179        -8.3315
  25   2.0000      -0.287476        -7.8226
  26   2.0000      -0.283432        -7.7126
  27   2.0000      -0.273722        -7.4484
  28   2.0000      -0.235409        -6.4058
  29   0.0000       0.081524         2.2184
  30   0.0000       0.092716         2.5229
  31   0.0000       0.121019         3.2931
  32   0.0000       0.124213         3.3800
  33   0.0000       0.126527         3.4430

MULLIKEN ATOMIC CHARGES
-----------------------
   0 C :   -0.553757
   1 C :    0.017664
   2 H :    0.148303
   3 C :   -0.285403
   4 C :   -0.013765
   5 C :   -0.535311
   6 C :   -0.549971
   7 O :   -0.508655
   8 H :    0.173506
   9 H :    0.171312
  10 H :    0.160908
  11 H :    0.157068
  12 H :    0.161858
  13 H :    0.163241
  14 H :    0.161097
  15 H :    0.158157
  16 H :    0.154274
  17 H :    0.160147
  18 H :    0.155623
  19 H :    0.163841
  20 H :    0.339862
Sum of atomic charges:   -0.0000000

LOEWDIN ATOMIC CHARGES
----------------------
   0 C :   -0.393724
   1 C :    0.051495
   2 H :    0.165888
   3 C :   -0.279348
   4 C :   -0.242570
   5 C :   -0.424644
   6 C :   -0.424353
   7 O :   -0.654848
   8 H :    0.166075
   9 H :    0.161520
  10 H :    0.162774
  11 H :    0.167103
  12 H :    0.167638
  13 H :    0.159720
  14 H :    0.156504
  15 H :    0.154759
  16 H :    0.154384
  17 H :    0.156358
  18 H :    0.154449
  19 H :    0.155494
  20 H :    0.285328

  Mayer bond orders larger than 0.100000
B(  0-C ,  1-C ) :   0.8919 B(  0-C ,  8-H ) :   0.9624 B(  0-C ,  9-H ) :   0.9790
B(  0-C , 10-H ) :   0.9634 B(  1-C ,  2-H ) :   0.9880 B(  1-C ,  3-C ) :   0.8904
B(  1-C ,  7-O ) :   0.8927 B(  3-C ,  4-C ) :   0.8180 B(  3-C , 11-H ) :   0.9737
B(  3-C , 12-H ) :   0.9666 B(  4-C ,  5-C ) :   0.8840 B(  4-C ,  6-C ) :   0.8968
B(  4-C , 13-H ) :   0.9677 B(  5-C , 14-H ) :   0.9826 B(  5-C , 15-H ) :   0.9745
B(  5-C , 16-H ) :   0.9751 B(  6-C , 17-H ) :   0.9638 B(  6-C , 18-H ) :   0.9745
B(  6-C , 19-H ) :   0.9875 B(  7-O , 20-H ) :   0.8746

Dispersion correction           -0.005582601
FINAL SINGLE POINT ENERGY      -312.206758560275

DIPOLE MOMENT
-------------

Method             : SCF
Type of density    : Electron Density
Multiplicity       :   1
Irrep              :   0
Energy             :  -312.2122689159170932 Eh
Relativity type    :
Basis              : AO
                                X                 Y                 Z
Electronic contribution:      4.946814660       2.723591001       1.311147304
Nuclear contribution   :     -5.740876040      -2.577792924      -0.930602646
                        -----------------------------------------
Total Dipole Moment    :     -0.794061380       0.145798076       0.380544657
                        -----------------------------------------
Magnitude (a.u.)       :      0.892527193
Magnitude (Debye)      :      2.268623835

Rotational constants in cm-1:             0.142001             0.048983             0.040310
Rotational constants in MHz :          4257.097329          1468.463096          1208.473007

                             ****ORCA TERMINATED NORMALLY****
TOTAL RUN TIME: 0 days 0 hours 0 minutes 35 seconds 952 msec
