                         Program Version 6.0.0  -   RELEASE  -
|  1> ! pbe def2-sv(p) def2/J RI DEFGRID1 loosescf d4 GCP(DFT/SV(P)) printgap
|  2> %output
|  3>     printlevel normal
|  4> end
|  5> * xyz 0 1
|  6> C 2.2786279699 0.993098556 0.5734610361
|  7> C 1.1926698639 -0.080697105 0.5142372047
|  8> C 1.6904954236 -1.2997674418 -0.2741376378
|  9> C -0.0297963142 0.4482169117 -0.2125984138
| 10> O 0.0948588016 1.1643425718 -1.1882578207
| 11> C -1.420076643 0.0812575488 0.2857344507
| 12> C -1.5037917472 -1.05342904 1.3021059463
| 13> C -2.3308316088 -0.2013246623 -0.9142647612
| 14> H 3.1870950396 0.5851070096 1.0076010528
| 15> H 1.9476709921 1.8352842507 1.1770987991
| 16> H 2.4966747819 1.3565449149 -0.4282022891
| 17> H 0.9322830399 -0.3894794897 1.5259348206
| 18> H 2.5774909051 -1.7077125201 0.2027768703
| 19> H 0.9305129692 -2.075289744 -0.3195217401
| 20> H 1.9426023157 -1.0031928174 -1.2900824848
| 21> H -1.7776712717 1.0035704252 0.7643741363
| 22> H -1.0594175159 -1.9640895469 0.9103745351
| 23> H -1.0182093663 -0.7952267681 2.2386392133
| 24> H -2.5506995335 -1.2547873272 1.5162214476
| 25> H -2.2238522333 0.5849912343 -1.6574343323
| 26> H -2.0587730638 -1.1487434921 -1.3741799268
| 27> H -3.3692604942 -0.2505108591 -0.5996856642
| 28> *
| 29>
| 30>                          ****END OF INPUT****

CARTESIAN COORDINATES (ANGSTROEM)
---------------------------------
  C      2.278628    0.993099    0.573461
  C      1.192670   -0.080697    0.514237
  C      1.690495   -1.299767   -0.274138
  C     -0.029796    0.448217   -0.212598
  O      0.094859    1.164343   -1.188258
  C     -1.420077    0.081258    0.285734
  C     -1.503792   -1.053429    1.302106
  C     -2.330832   -0.201325   -0.914265
  H      3.187095    0.585107    1.007601
  H      1.947671    1.835284    1.177099
  H      2.496675    1.356545   -0.428202
  H      0.932283   -0.389479    1.525935
  H      2.577491   -1.707713    0.202777
  H      0.930513   -2.075290   -0.319522
  H      1.942602   -1.003193   -1.290082
  H     -1.777671    1.003570    0.764374
  H     -1.059418   -1.964090    0.910375
  H     -1.018209   -0.795227    2.238639
  H     -2.550700   -1.254787    1.516221
  H     -2.223852    0.584991   -1.657434
  H     -2.058773   -1.148743   -1.374180
  H     -3.369260   -0.250511   -0.599686

 Total Charge           Charge          ....    0
 Multiplicity           Mult            ....    1
 Number of Electrons    NEL             ....   64
 Basis Dimension        Dim             ....  140

ORBITAL ENERGIES
----------------

  NO   OCC          E(Eh)            E(eV)
   0   2.0000     -18.734507      -509.7918
   1   2.0000      -9.966362      -271.1985
   2   2.0000      -9.903552      -269.4894
   3   2.0000      -9.900858      -269.4161
   4   2.0000      -9.886196      -269.0171
   5   2.0000      -9.884540      -268.9720
   6   2.0000      -9.875343      -268.7217
   7   2.0000      -9.873848      -268.6811
   8   2.0000      -0.933864       -25.4117
   9   2.0000      -0.734373       -19.9833
  10   2.0000      -0.713805       -19.4236
  11   2.0000      -0.617324       -16.7982
  12   2.0000      -0.616237       -16.7687
  13   2.0000      -0.581167       -15.8144
  14   2.0000      -0.529714       -14.4142
  15   2.0000      -0.458029       -12.4636
  16   2.0000      -0.441617       -12.0170
  17   2.0000      -0.413225       -11.2444
  18   2.0000      -0.399369       -10.8674
  19   2.0000      -0.383615       -10.4387
  20   2.0000      -0.372124       -10.1260
  21   2.0000      -0.361876        -9.8471
  22   2.0000      -0.352061        -9.5801
  23   2.0000      -0.342189        -9.3114
  24   2.0000      -0.335254        -9.1227
  25   2.0000      -0.328720        -8.9449
  26   2.0000      -0.314765        -8.5652
  27   2.0000      -0.303172        -8.2497
  28   2.0000      -0.295288        -8.0352
  29   2.0000      -0.292927        -7.9709
  30   2.0000      -0.285503        -7.7689
  31   2.0000      -0.192044        -5.2258
  32   0.0000      -0.051800        -1.4095
  33   0.0000       0.026554         0.7226
  34   0.0000       0.057012         1.5514
  35   0.0000       0.060576         1.6484
  36   0.0000       0.076032         2.0689

MULLIKEN ATOMIC CHARGES
-----------------------
   0 C :   -0.228044
   1 C :   -0.166047
   2 C :   -0.262568
   3 C :    0.047144
   4 O :   -0.176437
   5 C :   -0.179776
   6 C :   -0.238846
   7 C :   -0.255384
   8 H :    0.094751
   9 H :    0.100528
  10 H :    0.115492
  11 H :    0.070986
  12 H :    0.110975
  13 H :    0.108984
  14 H :    0.114998
  15 H :    0.102403
  16 H :    0.105592
  17 H :    0.111494
  18 H :    0.104323
  19 H :    0.123277
  20 H :    0.096967
  21 H :    0.099187
Sum of atomic charges:    0.0000000

LOEWDIN ATOMIC CHARGES
----------------------
   0 C :   -0.324072
   1 C :   -0.182315
   2 C :   -0.317151
   3 C :    0.070809
   4 O :   -0.128532
   5 C :   -0.182595
   6 C :   -0.334254
   7 C :   -0.325709
   8 H :    0.117403
   9 H :    0.119553
  10 H :    0.125848
  11 H :    0.120809
  12 H :    0.123487
  13 H :    0.117526
  14 H :    0.126784
  15 H :    0.143896
  16 H :    0.120206
  17 H :    0.120099
  18 H :    0.124766
  19 H :    0.127266
  20 H :    0.118425
  21 H :    0.117752

  Mayer bond orders larger than 0.100000
B(  0-C ,  1-C ) :   1.1017 B(  0-C ,  8-H ) :   0.9485 B(  0-C ,  9-H ) :   0.9542
B(  0-C , 10-H ) :   0.9390 B(  1-C ,  2-C ) :   1.0860 B(  1-C ,  3-C ) :   0.9791
B(  1-C , 11-H ) :   0.8798 B(  2-C , 12-H ) :   0.9471 B(  2-C , 13-H ) :   0.9448
B(  2-C , 14-H ) :   0.9441 B(  3-C ,  4-O ) :   2.1474 B(  3-C ,  5-C ) :   0.9513
B(  5-C ,  6-C ) :   1.1292 B(  5-C ,  7-C ) :   1.1171 B(  5-C , 15-H ) :   0.8632
B(  6-C , 16-H ) :   0.9378 B(  6-C , 17-H ) :   0.9360 B(  6-C , 18-H ) :   0.9409
B(  7-C , 19-H ) :   0.9367 B(  7-C , 20-H ) :   0.9549 B(  7-C , 21-H ) :   0.9499

Dispersion correction           -0.018990950
FINAL SINGLE POINT ENERGY      -349.566411858771

DIPOLE MOMENT
-------------

Method             : SCF
Type of density    : Electron Density
Multiplicity       :   1
Irrep              :   0
Energy             :  -349.6404706071101032 Eh
Relativity type    :
Basis              : AO
                                X                 Y                 Z
Electronic contribution:     -0.074343233       4.320813109      -2.684422011
Nuclear contribution   :     -0.039453040      -4.883263501       3.429109342
                        -----------------------------------------
Total Dipole Moment    :     -0.113796273      -0.562450392       0.744687331
                        -----------------------------------------
Magnitude (a.u.)       :      0.940137892
Magnitude (Debye)      :      2.389640615

Rotational constants in cm-1:             0.098625             0.047231             0.040498
Rotational constants in MHz :          2956.716143          1415.963399          1214.096437

                             ****ORCA TERMINATED NORMALLY****
TOTAL RUN TIME: 0 days 0 hours 0 minutes 10 seconds 870 msec
