                         Program Version 6.0.0  -   RELEASE  -
|  1> ! pbe def2-sv(p) def2/J RI DEFGRID1 loosescf d4 GCP(DFT/SV(P)) printgap
|  2> %output
|  3>     printlevel normal
|  4> end
|  5> * xyz 0 1
|  6> C -2.8349730419 -0.1626463599 -0.0921715582
|  7> C -1.9528605352 -1.2147336179 -0.2588556162
|  8> C -0.5864051058 -1.0099587696 -0.1511261389
|  9> C -0.0796424162 0.2533237183 0.1223502666
| 10> C -0.9781703758 1.3045909781 0.2871971762
| 11> C -2.3413046266 1.1019814904 0.1834310963
| 12> C 1.3914491676 0.544394381 0.2646028272
| 13> C 2.3292239986 -0.5666076655 -0.2094890971
| 14> O 3.6892510571 -0.2094050633 -0.0746947845
| 15> H -3.8988292817 -0.3254756847 -0.1760247276
| 16> H -2.3274303307 -2.2046317259 -0.4737382805
| 17> H 0.0796784372 -1.847707703 -0.2829446828
| 18> H -0.5996346619 2.2938845749 0.5015046158
| 19> H -3.0201199731 1.9312870947 0.3159808434
| 20> H 1.6167106046 1.4566327343 -0.2959914382
| 21> H 1.6102605913 0.7518204918 1.3166332164
| 22> H 2.2129203693 -1.4589316387 0.4096694121
| 23> H 2.1081972695 -0.8290115615 -1.2533062871
| 24> H 3.8671916851 0.572912985 -0.6152116461
| 25> *
| 26>
| 27>                          ****END OF INPUT****

CARTESIAN COORDINATES (ANGSTROEM)
---------------------------------
  C     -2.834973   -0.162646   -0.092172
  C     -1.952861   -1.214734   -0.258856
  C     -0.586405   -1.009959   -0.151126
  C     -0.079642    0.253324    0.122350
  C     -0.978170    1.304591    0.287197
  C     -2.341305    1.101981    0.183431
  C      1.391449    0.544394    0.264603
  C      2.329224   -0.566608   -0.209489
  O      3.689251   -0.209405   -0.074695
  H     -3.898829   -0.325476   -0.176025
  H     -2.327430   -2.204632   -0.473738
  H      0.079678   -1.847708   -0.282945
  H     -0.599635    2.293885    0.501505
  H     -3.020120    1.931287    0.315981
  H      1.616711    1.456633   -0.295991
  H      1.610261    0.751820    1.316633
  H      2.212920   -1.458932    0.409669
  H      2.108197   -0.829012   -1.253306
  H      3.867192    0.572913   -0.615212

 Total Charge           Charge          ....    0
 Multiplicity           Mult            ....    1
 Number of Electrons    NEL             ....   66
 Basis Dimension        Dim             ....  146

ORBITAL ENERGIES
----------------

  NO   OCC          E(Eh)            E(eV)
   0   2.0000     -18.742361      -510.0056
   1   2.0000      -9.933030      -270.2915
   2   2.0000      -9.904916      -269.5265
   3   2.0000      -9.894226      -269.2356
   4   2.0000      -9.892065      -269.1768
   5   2.0000      -9.891746      -269.1681
   6   2.0000      -9.891579      -269.1636
   7   2.0000      -9.890217      -269.1265
   8   2.0000      -9.889550      -269.1083
   9   2.0000      -0.918987       -25.0069
  10   2.0000      -0.779455       -21.2100
  11   2.0000      -0.708566       -19.2811
  12   2.0000      -0.670205       -18.2372
  13   2.0000      -0.641431       -17.4542
  14   2.0000      -0.575321       -15.6553
  15   2.0000      -0.540708       -14.7134
  16   2.0000      -0.519893       -14.1470
  17   2.0000      -0.466536       -12.6951
  18   2.0000      -0.455503       -12.3949
  19   2.0000      -0.420089       -11.4312
  20   2.0000      -0.403310       -10.9746
  21   2.0000      -0.398359       -10.8399
  22   2.0000      -0.375571       -10.2198
  23   2.0000      -0.372840       -10.1455
  24   2.0000      -0.352310        -9.5868
  25   2.0000      -0.340391        -9.2625
  26   2.0000      -0.318279        -8.6608
  27   2.0000      -0.307496        -8.3674
  28   2.0000      -0.297424        -8.0933
  29   2.0000      -0.272160        -7.4058
  30   2.0000      -0.229789        -6.2529
  31   2.0000      -0.221299        -6.0218
  32   2.0000      -0.214752        -5.8437
  33   0.0000      -0.036453        -0.9919
  34   0.0000      -0.032059        -0.8724
  35   0.0000       0.026067         0.7093
  36   0.0000       0.042906         1.1675
  37   0.0000       0.062579         1.7029

MULLIKEN ATOMIC CHARGES
-----------------------
   0 C :   -0.049523
   1 C :   -0.041675
   2 C :   -0.137632
   3 C :    0.058088
   4 C :   -0.113170
   5 C :   -0.043952
   6 C :   -0.151072
   7 C :    0.008245
   8 O :   -0.430493
   9 H :    0.051952
  10 H :    0.050341
  11 H :    0.047361
  12 H :    0.037030
  13 H :    0.051275
  14 H :    0.079034
  15 H :    0.109462
  16 H :    0.099472
  17 H :    0.081786
  18 H :    0.293470
Sum of atomic charges:   -0.0000000

LOEWDIN ATOMIC CHARGES
----------------------
   0 C :   -0.128402
   1 C :   -0.119822
   2 C :   -0.130850
   3 C :   -0.040781
   4 C :   -0.121537
   5 C :   -0.120505
   6 C :   -0.237514
   7 C :   -0.123645
   8 O :   -0.340071
   9 H :    0.122912
  10 H :    0.123227
  11 H :    0.123213
  12 H :    0.120499
  13 H :    0.123045
  14 H :    0.120937
  15 H :    0.135413
  16 H :    0.115661
  17 H :    0.097297
  18 H :    0.280921

  Mayer bond orders larger than 0.100000
B(  0-C ,  1-C ) :   1.3936 B(  0-C ,  5-C ) :   1.3686 B(  0-C ,  9-H ) :   0.9655
B(  1-C ,  2-C ) :   1.3556 B(  1-C , 10-H ) :   0.9608 B(  2-C ,  3-C ) :   1.4144
B(  2-C , 11-H ) :   0.9530 B(  3-C ,  4-C ) :   1.3817 B(  3-C ,  6-C ) :   1.0135
B(  4-C ,  5-C ) :   1.3891 B(  4-C , 12-H ) :   0.9660 B(  5-C , 13-H ) :   0.9633
B(  6-C ,  7-C ) :   1.1393 B(  6-C , 14-H ) :   0.9030 B(  6-C , 15-H ) :   0.8873
B(  7-C ,  8-O ) :   1.0656 B(  7-C , 16-H ) :   0.9096 B(  7-C , 17-H ) :   0.9274
B(  8-O , 18-H ) :   0.8548

Dispersion correction           -0.018329264
FINAL SINGLE POINT ENERGY      -385.216458507788

DIPOLE MOMENT
-------------

Method             : SCF
Type of density    : Electron Density
Multiplicity       :   1
Irrep              :   0
Energy             :  -385.2790118509226431 Eh
Relativity type    :
Basis              : AO
                                X                 Y                 Z
Electronic contribution:     -1.856001432       0.067542675       0.204292277
Nuclear contribution   :      1.601663293       0.316605335      -0.520316737
                        -----------------------------------------
Total Dipole Moment    :     -0.254338139       0.384148010      -0.316024460
                        -----------------------------------------
Magnitude (a.u.)       :      0.558685101
Magnitude (Debye)      :      1.420064673

Rotational constants in cm-1:             0.160321             0.028294             0.024351
Rotational constants in MHz :          4806.312179           848.235195           730.033534

                             ****ORCA TERMINATED NORMALLY****
TOTAL RUN TIME: 0 days 0 hours 0 minutes 7 seconds 973 msec
