                         Program Version 6.0.0  -   RELEASE  -
|  1> ! pbe def2-sv(p) def2/J RI DEFGRID1 loosescf d4 GCP(DFT/SV(P)) printgap
|  2> %output
|  3>     printlevel normal
|  4> end
|  5> * xyz 0 1
|  6> C -1.050006138 -0.1775698988 0.7224248258
|  7> C 0.2438124953 0.562078528 0.3267582665
|  8> C 1.1490502172 -0.3613086494 -0.4988283704
|  9> O 1.6533246201 -1.3635791392 0.3552534115
| 10> O -0.0313384 1.7598344074 -0.3633798641
| 11> O -1.9021533407 -0.3824999196 -0.3837951319
| 12> H -1.5654144898 0.3776346983 1.5121108174
| 13> H -0.7760253543 -1.1641687131 1.1001246653
| 14> H 0.7753562504 0.8497582885 1.2384105116
| 15> H 1.9650986638 0.2365059411 -0.9259532967
| 16> H 0.5549682094 -0.8025371361 -1.3111240633
| 17> H 2.2046834004 -1.9711429617 -0.1570746519
| 18> H -0.42676972 1.5366351944 -1.219795874
| 19> H -2.370221497 0.4425175265 -0.573675345
| 20> *
| 21>
| 22>                          ****END OF INPUT****

CARTESIAN COORDINATES (ANGSTROEM)
---------------------------------
  C     -1.050006   -0.177570    0.722425
  C      0.243812    0.562079    0.326758
  C      1.149050   -0.361309   -0.498828
  O      1.653325   -1.363579    0.355253
  O     -0.031338    1.759834   -0.363380
  O     -1.902153   -0.382500   -0.383795
  H     -1.565414    0.377635    1.512111
  H     -0.776025   -1.164169    1.100125
  H      0.775356    0.849758    1.238411
  H      1.965099    0.236506   -0.925953
  H      0.554968   -0.802537   -1.311124
  H      2.204683   -1.971143   -0.157075
  H     -0.426770    1.536635   -1.219796
  H     -2.370221    0.442518   -0.573675

 Total Charge           Charge          ....    0
 Multiplicity           Mult            ....    1
 Number of Electrons    NEL             ....   50
 Basis Dimension        Dim             ....  100

ORBITAL ENERGIES
----------------

  NO   OCC          E(Eh)            E(eV)
   0   2.0000     -18.753519      -510.3092
   1   2.0000     -18.752314      -510.2764
   2   2.0000     -18.749846      -510.2093
   3   2.0000      -9.933553      -270.3057
   4   2.0000      -9.927987      -270.1542
   5   2.0000      -9.924265      -270.0530
   6   2.0000      -0.941426       -25.6175
   7   2.0000      -0.922731       -25.1088
   8   2.0000      -0.914623       -24.8882
   9   2.0000      -0.677372       -18.4322
  10   2.0000      -0.602889       -16.4055
  11   2.0000      -0.544289       -14.8109
  12   2.0000      -0.476055       -12.9541
  13   2.0000      -0.456333       -12.4175
  14   2.0000      -0.445250       -12.1159
  15   2.0000      -0.414724       -11.2852
  16   2.0000      -0.387211       -10.5366
  17   2.0000      -0.364956        -9.9309
  18   2.0000      -0.342923        -9.3314
  19   2.0000      -0.302548        -8.2328
  20   2.0000      -0.291858        -7.9418
  21   2.0000      -0.265372        -7.2211
  22   2.0000      -0.246053        -6.6954
  23   2.0000      -0.218202        -5.9376
  24   2.0000      -0.208186        -5.6650
  25   0.0000       0.008467         0.2304
  26   0.0000       0.025380         0.6906
  27   0.0000       0.063478         1.7273
  28   0.0000       0.077476         2.1082
  29   0.0000       0.100727         2.7409

MULLIKEN ATOMIC CHARGES
-----------------------
   0 C :    0.017084
   1 C :    0.017551
   2 C :   -0.008269
   3 O :   -0.436050
   4 O :   -0.431598
   5 O :   -0.441886
   6 H :    0.081799
   7 H :    0.098416
   8 H :    0.078737
   9 H :    0.079895
  10 H :    0.066292
  11 H :    0.303256
  12 H :    0.284377
  13 H :    0.290396
Sum of atomic charges:    0.0000000

LOEWDIN ATOMIC CHARGES
----------------------
   0 C :   -0.138255
   1 C :   -0.089616
   2 C :   -0.142436
   3 O :   -0.343870
   4 O :   -0.319524
   5 O :   -0.337508
   6 H :    0.101018
   7 H :    0.119481
   8 H :    0.119148
   9 H :    0.096656
  10 H :    0.094466
  11 H :    0.288648
  12 H :    0.273298
  13 H :    0.278494

  Mayer bond orders larger than 0.100000
B(  0-C ,  1-C ) :   1.0187 B(  0-C ,  5-O ) :   1.0483 B(  0-C ,  6-H ) :   0.9253
B(  0-C ,  7-H ) :   0.9149 B(  1-C ,  2-C ) :   1.0593 B(  1-C ,  4-O ) :   1.0384
B(  1-C ,  8-H ) :   0.8911 B(  2-C ,  3-O ) :   1.0731 B(  2-C ,  9-H ) :   0.9206
B(  2-C , 10-H ) :   0.9039 B(  3-O , 11-H ) :   0.8495 B(  4-O , 12-H ) :   0.8428
B(  5-O , 13-H ) :   0.8471

Dispersion correction           -0.009237249
FINAL SINGLE POINT ENERGY      -344.006489941315

DIPOLE MOMENT
-------------

Method             : SCF
Type of density    : Electron Density
Multiplicity       :   1
Irrep              :   0
Energy             :  -344.0801953100674950 Eh
Relativity type    :
Basis              : AO
                                X                 Y                 Z
Electronic contribution:     -0.290103895       0.402058473      -0.241597992
Nuclear contribution   :      0.335153435      -0.464001239      -0.321963630
                        -----------------------------------------
Total Dipole Moment    :      0.045049540      -0.061942766      -0.563561622
                        -----------------------------------------
Magnitude (a.u.)       :      0.568742533
Magnitude (Debye)      :      1.445628634

Rotational constants in cm-1:             0.155745             0.089097             0.067577
Rotational constants in MHz :          4669.118398          2671.061355          2025.908143

                             ****ORCA TERMINATED NORMALLY****
TOTAL RUN TIME: 0 days 0 hours 0 minutes 6 seconds 725 msec
