                         Program Version 6.0.0  -   RELEASE  -
|  1> ! r2scan-3c def2/J RI DEFGRID2 scfconv6 printgap
|  2> %output
|  3>     printlevel normal
|  4> end
|  5> * xyz 0 1
|  6> C -2.7037134598 0.6299719164 -0.4902849196
|  7> C -1.7198755423 0.3640441836 0.6499790992
|  8> C -0.5104899401 -0.3739498053 0.1355035832
|  9> O -0.5368253058 -1.4633111049 -0.4005490865
| 10> O 0.605471324 0.3144147998 0.3253354342
| 11> C 1.8420991232 -0.2628660271 -0.1290673455
| 12> C 2.9243610368 0.7943584807 -0.027048652
| 13> H -3.6083266774 1.0854090593 -0.0995117755
| 14> H -2.2632493076 1.2989786786 -1.2250868809
| 15> H -2.9609917114 -0.3046098037 -0.9827416134
| 16> H -2.198612165 -0.2673273739 1.3999647825
| 17> H -1.3913759073 1.2943776252 1.1103475742
| 18> H 2.0647946133 -1.1320315254 0.4982807959
| 19> H 1.7042025935 -0.6106795663 -1.1580822366
| 20> H 3.8697062323 0.3730963536 -0.3527998207
| 21> H 2.6752545028 1.6450512353 -0.6546121151
| 22> H 3.016400277 1.1323492857 1.0007649781
| 23> *
| 24>
| 25>                          ****END OF INPUT****

CARTESIAN COORDINATES (ANGSTROEM)
---------------------------------
  C     -2.703713    0.629972   -0.490285
  C     -1.719876    0.364044    0.649979
  C     -0.510490   -0.373950    0.135504
  O     -0.536825   -1.463311   -0.400549
  O      0.605471    0.314415    0.325335
  C      1.842099   -0.262866   -0.129067
  C      2.924361    0.794358   -0.027049
  H     -3.608327    1.085409   -0.099512
  H     -2.263249    1.298979   -1.225087
  H     -2.960992   -0.304610   -0.982742
  H     -2.198612   -0.267327    1.399965
  H     -1.391376    1.294378    1.110348
  H      2.064795   -1.132032    0.498281
  H      1.704203   -0.610680   -1.158082
  H      3.869706    0.373096   -0.352800
  H      2.675255    1.645051   -0.654612
  H      3.016400    1.132349    1.000765

 Total Charge           Charge          ....    0
 Multiplicity           Mult            ....    1
 Number of Electrons    NEL             ....   56
 Basis Dimension        Dim             ....  193

ORBITAL ENERGIES
----------------

  NO   OCC          E(Eh)            E(eV)
   0   2.0000     -18.997391      -516.9453
   1   2.0000     -18.926181      -515.0076
   2   2.0000     -10.150273      -276.2030
   3   2.0000     -10.091589      -274.6061
   4   2.0000     -10.043003      -273.2840
   5   2.0000     -10.032572      -273.0002
   6   2.0000     -10.027960      -272.8747
   7   2.0000      -1.071878       -29.1673
   8   2.0000      -0.973618       -26.4935
   9   2.0000      -0.764865       -20.8130
  10   2.0000      -0.733965       -19.9722
  11   2.0000      -0.640190       -17.4205
  12   2.0000      -0.590793       -16.0763
  13   2.0000      -0.533122       -14.5070
  14   2.0000      -0.466580       -12.6963
  15   2.0000      -0.462056       -12.5732
  16   2.0000      -0.440100       -11.9757
  17   2.0000      -0.415998       -11.3199
  18   2.0000      -0.395065       -10.7503
  19   2.0000      -0.380090       -10.3428
  20   2.0000      -0.373854       -10.1731
  21   2.0000      -0.347860        -9.4658
  22   2.0000      -0.341377        -9.2893
  23   2.0000      -0.329760        -8.9732
  24   2.0000      -0.316797        -8.6205
  25   2.0000      -0.311658        -8.4806
  26   2.0000      -0.271404        -7.3853
  27   2.0000      -0.233909        -6.3650
  28   0.0000      -0.014532        -0.3954
  29   0.0000       0.074454         2.0260
  30   0.0000       0.097502         2.6532
  31   0.0000       0.114677         3.1205
  32   0.0000       0.129648         3.5279

MULLIKEN ATOMIC CHARGES
-----------------------
   0 C :   -0.461324
   1 C :   -0.299218
   2 C :    0.391935
   3 O :   -0.429980
   4 O :   -0.164100
   5 C :   -0.152907
   6 C :   -0.440240
   7 H :    0.150550
   8 H :    0.144412
   9 H :    0.171829
  10 H :    0.161113
  11 H :    0.161303
  12 H :    0.151423
  13 H :    0.163576
  14 H :    0.147266
  15 H :    0.152128
  16 H :    0.152234
Sum of atomic charges:    0.0000000

LOEWDIN ATOMIC CHARGES
----------------------
   0 C :   -0.394673
   1 C :   -0.238034
   2 C :    0.355753
   3 O :   -0.430642
   4 O :   -0.599407
   5 C :    0.033534
   6 C :   -0.386835
   7 H :    0.151856
   8 H :    0.154424
   9 H :    0.164921
  10 H :    0.177428
  11 H :    0.173717
  12 H :    0.177069
  13 H :    0.182758
  14 H :    0.159600
  15 H :    0.159136
  16 H :    0.159395

  Mayer bond orders larger than 0.100000
B(  0-C ,  1-C ) :   0.9006 B(  0-C ,  7-H ) :   0.9731 B(  0-C ,  8-H ) :   0.9750
B(  0-C ,  9-H ) :   0.9725 B(  1-C ,  2-C ) :   0.9500 B(  1-C , 10-H ) :   0.9532
B(  1-C , 11-H ) :   0.9881 B(  2-C ,  3-O ) :   1.8039 B(  2-C ,  4-O ) :   1.0827
B(  4-O ,  5-C ) :   0.8045 B(  5-C ,  6-C ) :   0.9404 B(  5-C , 12-H ) :   0.9483
B(  5-C , 13-H ) :   0.9577 B(  6-C , 14-H ) :   0.9682 B(  6-C , 15-H ) :   0.9737
B(  6-C , 16-H ) :   0.9702

Dispersion correction           -0.003847059
FINAL SINGLE POINT ENERGY      -346.936271276695

DIPOLE MOMENT
-------------

Method             : SCF
Type of density    : Electron Density
Multiplicity       :   1
Irrep              :   0
Energy             :  -346.9427782020471795 Eh
Relativity type    :
Basis              : AO
                                X                 Y                 Z
Electronic contribution:     -0.502813063      -3.500701923       0.682865904
Nuclear contribution   :      0.852688241       4.218429036      -0.435933404
                        -----------------------------------------
Total Dipole Moment    :      0.349875178       0.717727112       0.246932500
                        -----------------------------------------
Magnitude (a.u.)       :      0.835775393
Magnitude (Debye)      :      2.124372223

Rotational constants in cm-1:             0.200885             0.045193             0.040331
Rotational constants in MHz :          6022.370059          1354.861272          1209.088371

                             ****ORCA TERMINATED NORMALLY****
TOTAL RUN TIME: 0 days 0 hours 0 minutes 21 seconds 543 msec
