                         Program Version 6.0.0  -   RELEASE  -
|  1> ! r2scan-3c def2/J RI DEFGRID2 scfconv6 printgap
|  2> %output
|  3>     printlevel normal
|  4> end
|  5> %cpcm
|  6>     smd true
|  7>     smdsolvent "water"
|  8> end
|  9> * xyz 0 1
| 10> C -2.7037134598 0.6299719164 -0.4902849196
| 11> C -1.7198755423 0.3640441836 0.6499790992
| 12> C -0.5104899401 -0.3739498053 0.1355035832
| 13> O -0.5368253058 -1.4633111049 -0.4005490865
| 14> O 0.605471324 0.3144147998 0.3253354342
| 15> C 1.8420991232 -0.2628660271 -0.1290673455
| 16> C 2.9243610368 0.7943584807 -0.027048652
| 17> H -3.6083266774 1.0854090593 -0.0995117755
| 18> H -2.2632493076 1.2989786786 -1.2250868809
| 19> H -2.9609917114 -0.3046098037 -0.9827416134
| 20> H -2.198612165 -0.2673273739 1.3999647825
| 21> H -1.3913759073 1.2943776252 1.1103475742
| 22> H 2.0647946133 -1.1320315254 0.4982807959
| 23> H 1.7042025935 -0.6106795663 -1.1580822366
| 24> H 3.8697062323 0.3730963536 -0.3527998207
| 25> H 2.6752545028 1.6450512353 -0.6546121151
| 26> H 3.016400277 1.1323492857 1.0007649781
| 27> *
| 28>
| 29>                          ****END OF INPUT****

CARTESIAN COORDINATES (ANGSTROEM)
---------------------------------
  C     -2.703713    0.629972   -0.490285
  C     -1.719876    0.364044    0.649979
  C     -0.510490   -0.373950    0.135504
  O     -0.536825   -1.463311   -0.400549
  O      0.605471    0.314415    0.325335
  C      1.842099   -0.262866   -0.129067
  C      2.924361    0.794358   -0.027049
  H     -3.608327    1.085409   -0.099512
  H     -2.263249    1.298979   -1.225087
  H     -2.960992   -0.304610   -0.982742
  H     -2.198612   -0.267327    1.399965
  H     -1.391376    1.294378    1.110348
  H      2.064795   -1.132032    0.498281
  H      1.704203   -0.610680   -1.158082
  H      3.869706    0.373096   -0.352800
  H      2.675255    1.645051   -0.654612
  H      3.016400    1.132349    1.000765

 Total Charge           Charge          ....    0
 Multiplicity           Mult            ....    1
 Number of Electrons    NEL             ....   56
 Basis Dimension        Dim             ....  193

ORBITAL ENERGIES
----------------

  NO   OCC          E(Eh)            E(eV)
   0   2.0000     -19.003472      -517.1108
   1   2.0000     -18.943222      -515.4713
   2   2.0000     -10.161767      -276.5157
   3   2.0000     -10.083897      -274.3968
   4   2.0000     -10.037540      -273.1354
   5   2.0000     -10.020703      -272.6772
   6   2.0000     -10.018963      -272.6298
   7   2.0000      -1.079745       -29.3814
   8   2.0000      -0.988354       -26.8945
   9   2.0000      -0.760944       -20.7063
  10   2.0000      -0.726181       -19.7604
  11   2.0000      -0.634553       -17.2671
  12   2.0000      -0.584053       -15.8929
  13   2.0000      -0.532153       -14.4806
  14   2.0000      -0.469499       -12.7757
  15   2.0000      -0.462026       -12.5724
  16   2.0000      -0.446986       -12.1631
  17   2.0000      -0.414576       -11.2812
  18   2.0000      -0.394014       -10.7217
  19   2.0000      -0.377731       -10.2786
  20   2.0000      -0.361975        -9.8498
  21   2.0000      -0.339984        -9.2514
  22   2.0000      -0.335928        -9.1411
  23   2.0000      -0.327471        -8.9109
  24   2.0000      -0.314346        -8.5538
  25   2.0000      -0.310501        -8.4492
  26   2.0000      -0.278251        -7.5716
  27   2.0000      -0.251443        -6.8421
  28   0.0000      -0.023145        -0.6298
  29   0.0000       0.077639         2.1127
  30   0.0000       0.107258         2.9186
  31   0.0000       0.122532         3.3343
  32   0.0000       0.137478         3.7410

MULLIKEN ATOMIC CHARGES
-----------------------
   0 C :   -0.492344
   1 C :   -0.310474
   2 C :    0.438036
   3 O :   -0.517772
   4 O :   -0.180023
   5 C :   -0.155274
   6 C :   -0.488675
   7 H :    0.170697
   8 H :    0.163267
   9 H :    0.166007
  10 H :    0.187176
  11 H :    0.176152
  12 H :    0.172302
  13 H :    0.171792
  14 H :    0.168912
  15 H :    0.165571
  16 H :    0.164651
Sum of atomic charges:    0.0000000

LOEWDIN ATOMIC CHARGES
----------------------
   0 C :   -0.397893
   1 C :   -0.233989
   2 C :    0.366497
   3 O :   -0.493446
   4 O :   -0.599954
   5 C :    0.035972
   6 C :   -0.389785
   7 H :    0.159768
   8 H :    0.159866
   9 H :    0.161263
  10 H :    0.186810
  11 H :    0.181291
  12 H :    0.183964
  13 H :    0.186057
  14 H :    0.168330
  15 H :    0.162530
  16 H :    0.162720

  Mayer bond orders larger than 0.100000
B(  0-C ,  1-C ) :   0.8846 B(  0-C ,  7-H ) :   0.9671 B(  0-C ,  8-H ) :   0.9718
B(  0-C ,  9-H ) :   0.9736 B(  1-C ,  2-C ) :   0.9514 B(  1-C , 10-H ) :   0.9457
B(  1-C , 11-H ) :   0.9792 B(  2-C ,  3-O ) :   1.7351 B(  2-C ,  4-O ) :   1.1098
B(  4-O ,  5-C ) :   0.7911 B(  5-C ,  6-C ) :   0.9417 B(  5-C , 12-H ) :   0.9396
B(  5-C , 13-H ) :   0.9511 B(  6-C , 14-H ) :   0.9616 B(  6-C , 15-H ) :   0.9722
B(  6-C , 16-H ) :   0.9677

Dispersion correction           -0.003847059
FINAL SINGLE POINT ENERGY      -346.941894766925

DIPOLE MOMENT
-------------

Method             : SCF
Type of density    : Electron Density
Multiplicity       :   1
Irrep              :   0
Energy             :  -346.9484016922764908 Eh
Relativity type    :
Basis              : AO
                                X                 Y                 Z
Electronic contribution:     -0.399132157      -3.204327789       0.815232202
Nuclear contribution   :      0.852688241       4.218429036      -0.435933404
                        -----------------------------------------
Total Dipole Moment    :      0.453556084       1.014101246       0.379298799
                        -----------------------------------------
Magnitude (a.u.)       :      1.173874797
Magnitude (Debye)      :      2.983752610

Rotational constants in cm-1:             0.200885             0.045193             0.040331
Rotational constants in MHz :          6022.370059          1354.861272          1209.088371

                             ****ORCA TERMINATED NORMALLY****
TOTAL RUN TIME: 0 days 0 hours 0 minutes 26 seconds 716 msec
