                         Program Version 6.0.0  -   RELEASE  -
|  1> ! r2scan-3c def2/J RI DEFGRID2 scfconv6 printgap
|  2> %output
|  3>     printlevel normal
|  4> end
|  5> * xyz 0 1
|  6> C -2.5952435514 -0.3497726701 -0.6941598273
|  7> C -1.7395228545 0.0593405877 0.5009521173
|  8> C -0.4898940193 0.8587254572 0.1020950644
|  9> C 0.8310228873 0.0635101232 0.0293136766
| 10> C 1.9349761566 0.9840980265 -0.5009000757
| 11> C 0.7215556027 -1.1726793799 -0.868788782
| 12> O 1.2513323199 -0.3186275742 1.3378953197
| 13> H -3.4674273648 -0.9067787563 -0.3587819623
| 14> H -2.0363442957 -0.9723243882 -1.3864795544
| 15> H -2.9396691046 0.5323725453 -1.2290585482
| 16> H -2.3522968259 0.6720499201 1.165253793
| 17> H -1.4579265693 -0.8328327271 1.0644056132
| 18> H -0.6600903871 1.328910985 -0.8668608611
| 19> H -0.3257131813 1.6564271361 0.8301980071
| 20> H 2.8859775423 0.4586340102 -0.4800927008
| 21> H 2.0179304665 1.8636121061 0.1319962083
| 22> H 1.7172265605 1.2923148994 -1.5184236255
| 23> H -0.0166906091 -1.8718756393 -0.4851550186
| 24> H 1.6839429829 -1.6784975841 -0.9034815176
| 25> H 0.4436204786 -0.8789164597 -1.8765125734
| 26> H 0.5779149041 -0.8870182309 1.7340840284
| 27> *
| 28>
| 29>                          ****END OF INPUT****

CARTESIAN COORDINATES (ANGSTROEM)
---------------------------------
  C     -2.595244   -0.349773   -0.694160
  C     -1.739523    0.059341    0.500952
  C     -0.489894    0.858725    0.102095
  C      0.831023    0.063510    0.029314
  C      1.934976    0.984098   -0.500900
  C      0.721556   -1.172679   -0.868789
  O      1.251332   -0.318628    1.337895
  H     -3.467427   -0.906779   -0.358782
  H     -2.036344   -0.972324   -1.386480
  H     -2.939669    0.532373   -1.229059
  H     -2.352297    0.672050    1.165254
  H     -1.457927   -0.832833    1.064406
  H     -0.660090    1.328911   -0.866861
  H     -0.325713    1.656427    0.830198
  H      2.885978    0.458634   -0.480093
  H      2.017930    1.863612    0.131996
  H      1.717227    1.292315   -1.518424
  H     -0.016691   -1.871876   -0.485155
  H      1.683943   -1.678498   -0.903482
  H      0.443620   -0.878916   -1.876513
  H      0.577915   -0.887018    1.734084

 Total Charge           Charge          ....    0
 Multiplicity           Mult            ....    1
 Number of Electrons    NEL             ....   58
 Basis Dimension        Dim             ....  208

ORBITAL ENERGIES
----------------

  NO   OCC          E(Eh)            E(eV)
   0   2.0000     -18.941027      -515.4116
   1   2.0000     -10.086938      -274.4795
   2   2.0000     -10.031898      -272.9818
   3   2.0000     -10.022591      -272.7286
   4   2.0000     -10.019951      -272.6567
   5   2.0000     -10.017107      -272.5793
   6   2.0000     -10.012927      -272.4656
   7   2.0000      -0.980514       -26.6812
   8   2.0000      -0.769863       -20.9490
   9   2.0000      -0.728489       -19.8232
  10   2.0000      -0.658621       -17.9220
  11   2.0000      -0.647925       -17.6309
  12   2.0000      -0.567287       -15.4367
  13   2.0000      -0.530850       -14.4452
  14   2.0000      -0.464069       -12.6280
  15   2.0000      -0.433931       -11.8079
  16   2.0000      -0.420211       -11.4345
  17   2.0000      -0.401556       -10.9269
  18   2.0000      -0.386257       -10.5106
  19   2.0000      -0.372058       -10.1242
  20   2.0000      -0.353634        -9.6229
  21   2.0000      -0.350659        -9.5419
  22   2.0000      -0.338284        -9.2052
  23   2.0000      -0.324884        -8.8406
  24   2.0000      -0.318733        -8.6732
  25   2.0000      -0.307420        -8.3653
  26   2.0000      -0.292662        -7.9637
  27   2.0000      -0.274434        -7.4677
  28   2.0000      -0.231775        -6.3069
  29   0.0000       0.057945         1.5768
  30   0.0000       0.094826         2.5803
  31   0.0000       0.097536         2.6541
  32   0.0000       0.114520         3.1162
  33   0.0000       0.122618         3.3366

MULLIKEN ATOMIC CHARGES
-----------------------
   0 C :   -0.498031
   1 C :   -0.232394
   2 C :   -0.247198
   3 C :    0.124839
   4 C :   -0.479754
   5 C :   -0.500919
   6 O :   -0.402366
   7 H :    0.145914
   8 H :    0.152900
   9 H :    0.149356
  10 H :    0.148745
  11 H :    0.117391
  12 H :    0.145133
  13 H :    0.163894
  14 H :    0.158354
  15 H :    0.151916
  16 H :    0.148015
  17 H :    0.150003
  18 H :    0.160754
  19 H :    0.160348
  20 H :    0.283099
Sum of atomic charges:    0.0000000

LOEWDIN ATOMIC CHARGES
----------------------
   0 C :   -0.424303
   1 C :   -0.314705
   2 C :   -0.280243
   3 C :    0.060107
   4 C :   -0.372121
   5 C :   -0.389605
   6 O :   -0.603135
   7 H :    0.150356
   8 H :    0.151338
   9 H :    0.150433
  10 H :    0.155821
  11 H :    0.145499
  12 H :    0.163968
  13 H :    0.170782
  14 H :    0.164968
  15 H :    0.164871
  16 H :    0.157697
  17 H :    0.156418
  18 H :    0.164655
  19 H :    0.159689
  20 H :    0.267511

  Mayer bond orders larger than 0.100000
B(  0-C ,  1-C ) :   0.9151 B(  0-C ,  7-H ) :   0.9736 B(  0-C ,  8-H ) :   0.9724
B(  0-C ,  9-H ) :   0.9872 B(  1-C ,  2-C ) :   0.8115 B(  1-C , 10-H ) :   0.9670
B(  1-C , 11-H ) :   0.9742 B(  2-C ,  3-C ) :   0.8956 B(  2-C , 12-H ) :   0.9836
B(  2-C , 13-H ) :   0.9735 B(  3-C ,  4-C ) :   0.9459 B(  3-C ,  5-C ) :   0.9328
B(  3-C ,  6-O ) :   0.8703 B(  4-C , 14-H ) :   0.9728 B(  4-C , 15-H ) :   0.9706
B(  4-C , 16-H ) :   0.9823 B(  5-C , 17-H ) :   0.9567 B(  5-C , 18-H ) :   0.9688
B(  5-C , 19-H ) :   0.9787 B(  6-O , 20-H ) :   0.8961

Dispersion correction           -0.005753222
FINAL SINGLE POINT ENERGY      -312.204424042787

DIPOLE MOMENT
-------------

Method             : SCF
Type of density    : Electron Density
Multiplicity       :   1
Irrep              :   0
Energy             :  -312.2097559686214368 Eh
Relativity type    :
Basis              : AO
                                X                 Y                 Z
Electronic contribution:      3.128952852       0.107854564       3.618531246
Nuclear contribution   :     -3.667985514      -0.214804310      -3.900644418
                        -----------------------------------------
Total Dipole Moment    :     -0.539032662      -0.106949746      -0.282113173
                        -----------------------------------------
Magnitude (a.u.)       :      0.617723483
Magnitude (Debye)      :      1.570128313

Rotational constants in cm-1:             0.134151             0.053069             0.051427
Rotational constants in MHz :          4021.755831          1590.969615          1541.730713

                             ****ORCA TERMINATED NORMALLY****
TOTAL RUN TIME: 0 days 0 hours 0 minutes 25 seconds 337 msec
