                         Program Version 6.0.0  -   RELEASE  -
|  1> ! r2scan-3c def2/J RI DEFGRID2 scfconv6 printgap
|  2> %output
|  3>     printlevel normal
|  4> end
|  5> %cpcm
|  6>     smd true
|  7>     smdsolvent "water"
|  8> end
|  9> * xyz 0 1
| 10> C -2.5952435514 -0.3497726701 -0.6941598273
| 11> C -1.7395228545 0.0593405877 0.5009521173
| 12> C -0.4898940193 0.8587254572 0.1020950644
| 13> C 0.8310228873 0.0635101232 0.0293136766
| 14> C 1.9349761566 0.9840980265 -0.5009000757
| 15> C 0.7215556027 -1.1726793799 -0.868788782
| 16> O 1.2513323199 -0.3186275742 1.3378953197
| 17> H -3.4674273648 -0.9067787563 -0.3587819623
| 18> H -2.0363442957 -0.9723243882 -1.3864795544
| 19> H -2.9396691046 0.5323725453 -1.2290585482
| 20> H -2.3522968259 0.6720499201 1.165253793
| 21> H -1.4579265693 -0.8328327271 1.0644056132
| 22> H -0.6600903871 1.328910985 -0.8668608611
| 23> H -0.3257131813 1.6564271361 0.8301980071
| 24> H 2.8859775423 0.4586340102 -0.4800927008
| 25> H 2.0179304665 1.8636121061 0.1319962083
| 26> H 1.7172265605 1.2923148994 -1.5184236255
| 27> H -0.0166906091 -1.8718756393 -0.4851550186
| 28> H 1.6839429829 -1.6784975841 -0.9034815176
| 29> H 0.4436204786 -0.8789164597 -1.8765125734
| 30> H 0.5779149041 -0.8870182309 1.7340840284
| 31> *
| 32>
| 33>                          ****END OF INPUT****

CARTESIAN COORDINATES (ANGSTROEM)
---------------------------------
  C     -2.595244   -0.349773   -0.694160
  C     -1.739523    0.059341    0.500952
  C     -0.489894    0.858725    0.102095
  C      0.831023    0.063510    0.029314
  C      1.934976    0.984098   -0.500900
  C      0.721556   -1.172679   -0.868789
  O      1.251332   -0.318628    1.337895
  H     -3.467427   -0.906779   -0.358782
  H     -2.036344   -0.972324   -1.386480
  H     -2.939669    0.532373   -1.229059
  H     -2.352297    0.672050    1.165254
  H     -1.457927   -0.832833    1.064406
  H     -0.660090    1.328911   -0.866861
  H     -0.325713    1.656427    0.830198
  H      2.885978    0.458634   -0.480093
  H      2.017930    1.863612    0.131996
  H      1.717227    1.292315   -1.518424
  H     -0.016691   -1.871876   -0.485155
  H      1.683943   -1.678498   -0.903482
  H      0.443620   -0.878916   -1.876513
  H      0.577915   -0.887018    1.734084

 Total Charge           Charge          ....    0
 Multiplicity           Mult            ....    1
 Number of Electrons    NEL             ....   58
 Basis Dimension        Dim             ....  208

ORBITAL ENERGIES
----------------

  NO   OCC          E(Eh)            E(eV)
   0   2.0000     -18.946418      -515.5582
   1   2.0000     -10.083156      -274.3766
   2   2.0000     -10.018123      -272.6070
   3   2.0000     -10.013733      -272.4875
   4   2.0000     -10.008349      -272.3410
   5   2.0000     -10.007384      -272.3148
   6   2.0000     -10.007307      -272.3127
   7   2.0000      -0.984608       -26.7926
   8   2.0000      -0.761612       -20.7245
   9   2.0000      -0.719830       -19.5876
  10   2.0000      -0.650906       -17.7120
  11   2.0000      -0.639836       -17.4108
  12   2.0000      -0.557518       -15.1708
  13   2.0000      -0.527019       -14.3409
  14   2.0000      -0.457989       -12.4625
  15   2.0000      -0.426383       -11.6025
  16   2.0000      -0.411026       -11.1846
  17   2.0000      -0.397135       -10.8066
  18   2.0000      -0.377116       -10.2618
  19   2.0000      -0.362265        -9.8577
  20   2.0000      -0.347007        -9.4425
  21   2.0000      -0.345015        -9.3883
  22   2.0000      -0.330808        -9.0018
  23   2.0000      -0.319556        -8.6956
  24   2.0000      -0.312538        -8.5046
  25   2.0000      -0.298310        -8.1174
  26   2.0000      -0.283591        -7.7169
  27   2.0000      -0.269990        -7.3468
  28   2.0000      -0.236495        -6.4354
  29   0.0000       0.073379         1.9968
  30   0.0000       0.107891         2.9359
  31   0.0000       0.110920         3.0183
  32   0.0000       0.122114         3.3229
  33   0.0000       0.131572         3.5803

MULLIKEN ATOMIC CHARGES
-----------------------
   0 C :   -0.531657
   1 C :   -0.247309
   2 C :   -0.282447
   3 C :    0.172413
   4 C :   -0.531098
   5 C :   -0.544421
   6 O :   -0.496853
   7 H :    0.154548
   8 H :    0.160746
   9 H :    0.158463
  10 H :    0.154667
  11 H :    0.147861
  12 H :    0.161929
  13 H :    0.167703
  14 H :    0.166330
  15 H :    0.161518
  16 H :    0.172128
  17 H :    0.172347
  18 H :    0.163314
  19 H :    0.178473
  20 H :    0.341343
Sum of atomic charges:    0.0000000

LOEWDIN ATOMIC CHARGES
----------------------
   0 C :   -0.431681
   1 C :   -0.316415
   2 C :   -0.280979
   3 C :    0.060842
   4 C :   -0.382619
   5 C :   -0.393651
   6 O :   -0.641624
   7 H :    0.152111
   8 H :    0.153298
   9 H :    0.152104
  10 H :    0.156994
  11 H :    0.156074
  12 H :    0.169864
  13 H :    0.169801
  14 H :    0.164599
  15 H :    0.164749
  16 H :    0.166695
  17 H :    0.164185
  18 H :    0.163630
  19 H :    0.166619
  20 H :    0.285406

  Mayer bond orders larger than 0.100000
B(  0-C ,  1-C ) :   0.9052 B(  0-C ,  7-H ) :   0.9722 B(  0-C ,  8-H ) :   0.9718
B(  0-C ,  9-H ) :   0.9842 B(  1-C ,  2-C ) :   0.8105 B(  1-C , 10-H ) :   0.9676
B(  1-C , 11-H ) :   0.9731 B(  2-C ,  3-C ) :   0.9030 B(  2-C , 12-H ) :   0.9801
B(  2-C , 13-H ) :   0.9737 B(  3-C ,  4-C ) :   0.9364 B(  3-C ,  5-C ) :   0.9251
B(  3-C ,  6-O ) :   0.8469 B(  4-C , 14-H ) :   0.9726 B(  4-C , 15-H ) :   0.9693
B(  4-C , 16-H ) :   0.9751 B(  5-C , 17-H ) :   0.9559 B(  5-C , 18-H ) :   0.9657
B(  5-C , 19-H ) :   0.9724 B(  6-O , 20-H ) :   0.8710

Dispersion correction           -0.005753222
FINAL SINGLE POINT ENERGY      -312.210546611011

DIPOLE MOMENT
-------------

Method             : SCF
Type of density    : Electron Density
Multiplicity       :   1
Irrep              :   0
Energy             :  -312.2158785368450822 Eh
Relativity type    :
Basis              : AO
                                X                 Y                 Z
Electronic contribution:      2.877823480       0.012638687       3.480296238
Nuclear contribution   :     -3.667985514      -0.214804310      -3.900644418
                        -----------------------------------------
Total Dipole Moment    :     -0.790162034      -0.202165623      -0.420348181
                        -----------------------------------------
Magnitude (a.u.)       :      0.917561754
Magnitude (Debye)      :      2.332256630

Rotational constants in cm-1:             0.134151             0.053069             0.051427
Rotational constants in MHz :          4021.755831          1590.969615          1541.730713

                             ****ORCA TERMINATED NORMALLY****
TOTAL RUN TIME: 0 days 0 hours 0 minutes 30 seconds 151 msec
