                         Program Version 6.0.0  -   RELEASE  -
|  1> ! r2scan-3c def2/J RI DEFGRID2 scfconv6 printgap
|  2> %output
|  3>     printlevel normal
|  4> end
|  5> * xyz 0 1
|  6> C -2.5272868711 0.1058945267 0.3134784736
|  7> C -1.2635658513 0.6802656663 -0.315629658
|  8> C -0.0011436426 -0.0180328696 0.19941226
|  9> C 1.2652753332 0.6882911674 -0.3064423698
| 10> C 2.5451933896 0.138215136 0.3156387097
| 11> O -0.0625305309 -1.3667049854 -0.2354941769
| 12> H -3.4093440399 0.5818153841 -0.1063757822
| 13> H -2.5804517001 -0.9627581819 0.1221854301
| 14> H -2.5236186404 0.2660077833 1.3894020336
| 15> H -1.3031474868 0.549167214 -1.3982004901
| 16> H -1.1913526869 1.746289376 -0.0972504222
| 17> H -0.0078606243 0.0076136582 1.3020691293
| 18> H 1.3071084528 0.5836509088 -1.3923545681
| 19> H 1.1783136079 1.7496108621 -0.0702166985
| 20> H 2.4925993822 0.1869168872 1.4014264076
| 21> H 2.7155693181 -0.8939667395 0.018791302
| 22> H 3.3992590731 0.7247111214 -0.0127211127
| 23> H 0.6954022624 -1.8470102024 0.1211547983
| 24> *
| 25>
| 26>                          ****END OF INPUT****

CARTESIAN COORDINATES (ANGSTROEM)
---------------------------------
  C     -2.527287    0.105895    0.313478
  C     -1.263566    0.680266   -0.315630
  C     -0.001144   -0.018033    0.199412
  C      1.265275    0.688291   -0.306442
  C      2.545193    0.138215    0.315639
  O     -0.062531   -1.366705   -0.235494
  H     -3.409344    0.581815   -0.106376
  H     -2.580452   -0.962758    0.122185
  H     -2.523619    0.266008    1.389402
  H     -1.303147    0.549167   -1.398200
  H     -1.191353    1.746289   -0.097250
  H     -0.007861    0.007614    1.302069
  H      1.307108    0.583651   -1.392355
  H      1.178314    1.749611   -0.070217
  H      2.492599    0.186917    1.401426
  H      2.715569   -0.893967    0.018791
  H      3.399259    0.724711   -0.012721
  H      0.695402   -1.847010    0.121155

 Total Charge           Charge          ....    0
 Multiplicity           Mult            ....    1
 Number of Electrons    NEL             ....   50
 Basis Dimension        Dim             ....  179

ORBITAL ENERGIES
----------------

  NO   OCC          E(Eh)            E(eV)
   0   2.0000     -18.944930      -515.5178
   1   2.0000     -10.076701      -274.2010
   2   2.0000     -10.025358      -272.8039
   3   2.0000     -10.024240      -272.7734
   4   2.0000     -10.021282      -272.6929
   5   2.0000     -10.008788      -272.3530
   6   2.0000      -0.983227       -26.7550
   7   2.0000      -0.757712       -20.6184
   8   2.0000      -0.722153       -19.6508
   9   2.0000      -0.641743       -17.4627
  10   2.0000      -0.568896       -15.4804
  11   2.0000      -0.541741       -14.7415
  12   2.0000      -0.486583       -13.2406
  13   2.0000      -0.431367       -11.7381
  14   2.0000      -0.406204       -11.0534
  15   2.0000      -0.390305       -10.6207
  16   2.0000      -0.385670       -10.4946
  17   2.0000      -0.365466        -9.9448
  18   2.0000      -0.337744        -9.1905
  19   2.0000      -0.324472        -8.8293
  20   2.0000      -0.316602        -8.6152
  21   2.0000      -0.308039        -8.3822
  22   2.0000      -0.304597        -8.2885
  23   2.0000      -0.276273        -7.5178
  24   2.0000      -0.232809        -6.3351
  25   0.0000       0.059375         1.6157
  26   0.0000       0.110121         2.9965
  27   0.0000       0.113439         3.0868
  28   0.0000       0.120873         3.2891
  29   0.0000       0.133792         3.6407

MULLIKEN ATOMIC CHARGES
-----------------------
   0 C :   -0.502478
   1 C :   -0.236150
   2 C :    0.041624
   3 C :   -0.234490
   4 C :   -0.504081
   5 O :   -0.438179
   6 H :    0.144439
   7 H :    0.171261
   8 H :    0.138533
   9 H :    0.146742
  10 H :    0.130904
  11 H :    0.124632
  12 H :    0.153372
  13 H :    0.133761
  14 H :    0.150508
  15 H :    0.137334
  16 H :    0.153260
  17 H :    0.289008
Sum of atomic charges:    0.0000000

LOEWDIN ATOMIC CHARGES
----------------------
   0 C :   -0.418827
   1 C :   -0.280680
   2 C :    0.053442
   3 C :   -0.296876
   4 C :   -0.426071
   5 O :   -0.618676
   6 H :    0.148978
   7 H :    0.163639
   8 H :    0.149024
   9 H :    0.165031
  10 H :    0.156705
  11 H :    0.161749
  12 H :    0.164196
  13 H :    0.158107
  14 H :    0.151829
  15 H :    0.145570
  16 H :    0.154791
  17 H :    0.268069

  Mayer bond orders larger than 0.100000
B(  0-C ,  1-C ) :   0.9032 B(  0-C ,  6-H ) :   0.9760 B(  0-C ,  7-H ) :   0.9784
B(  0-C ,  8-H ) :   0.9826 B(  1-C ,  2-C ) :   0.9568 B(  1-C ,  9-H ) :   0.9721
B(  1-C , 10-H ) :   0.9738 B(  2-C ,  3-C ) :   0.9091 B(  2-C ,  5-O ) :   0.8036
B(  2-C , 11-H ) :   0.9641 B(  3-C ,  4-C ) :   0.8787 B(  3-C , 12-H ) :   0.9732
B(  3-C , 13-H ) :   0.9730 B(  4-C , 14-H ) :   0.9852 B(  4-C , 15-H ) :   0.9817
B(  4-C , 16-H ) :   0.9717 B(  5-O , 17-H ) :   0.8999

Dispersion correction           -0.004179618
FINAL SINGLE POINT ENERGY      -272.903391675820

DIPOLE MOMENT
-------------

Method             : SCF
Type of density    : Electron Density
Multiplicity       :   1
Irrep              :   0
Energy             :  -272.9087282239768797 Eh
Relativity type    :
Basis              : AO
                                X                 Y                 Z
Electronic contribution:     -0.268406198      -2.248608287      -0.911646607
Nuclear contribution   :      0.723781767       2.505299067       1.195393867
                        -----------------------------------------
Total Dipole Moment    :      0.455375569       0.256690780       0.283747260
                        -----------------------------------------
Magnitude (a.u.)       :      0.594785317
Magnitude (Debye)      :      1.511824129

Rotational constants in cm-1:             0.240375             0.063467             0.055377
Rotational constants in MHz :          7206.248153          1902.678043          1660.164016

                             ****ORCA TERMINATED NORMALLY****
TOTAL RUN TIME: 0 days 0 hours 0 minutes 23 seconds 572 msec
