                         Program Version 6.0.0  -   RELEASE  -
|  1> ! r2scan-3c def2/J RI DEFGRID2 scfconv6 printgap
|  2> %output
|  3>     printlevel normal
|  4> end
|  5> %cpcm
|  6>     smd true
|  7>     smdsolvent "water"
|  8> end
|  9> * xyz 0 1
| 10> C -2.5272868711 0.1058945267 0.3134784736
| 11> C -1.2635658513 0.6802656663 -0.315629658
| 12> C -0.0011436426 -0.0180328696 0.19941226
| 13> C 1.2652753332 0.6882911674 -0.3064423698
| 14> C 2.5451933896 0.138215136 0.3156387097
| 15> O -0.0625305309 -1.3667049854 -0.2354941769
| 16> H -3.4093440399 0.5818153841 -0.1063757822
| 17> H -2.5804517001 -0.9627581819 0.1221854301
| 18> H -2.5236186404 0.2660077833 1.3894020336
| 19> H -1.3031474868 0.549167214 -1.3982004901
| 20> H -1.1913526869 1.746289376 -0.0972504222
| 21> H -0.0078606243 0.0076136582 1.3020691293
| 22> H 1.3071084528 0.5836509088 -1.3923545681
| 23> H 1.1783136079 1.7496108621 -0.0702166985
| 24> H 2.4925993822 0.1869168872 1.4014264076
| 25> H 2.7155693181 -0.8939667395 0.018791302
| 26> H 3.3992590731 0.7247111214 -0.0127211127
| 27> H 0.6954022624 -1.8470102024 0.1211547983
| 28> *
| 29>
| 30>                          ****END OF INPUT****

CARTESIAN COORDINATES (ANGSTROEM)
---------------------------------
  C     -2.527287    0.105895    0.313478
  C     -1.263566    0.680266   -0.315630
  C     -0.001144   -0.018033    0.199412
  C      1.265275    0.688291   -0.306442
  C      2.545193    0.138215    0.315639
  O     -0.062531   -1.366705   -0.235494
  H     -3.409344    0.581815   -0.106376
  H     -2.580452   -0.962758    0.122185
  H     -2.523619    0.266008    1.389402
  H     -1.303147    0.549167   -1.398200
  H     -1.191353    1.746289   -0.097250
  H     -0.007861    0.007614    1.302069
  H      1.307108    0.583651   -1.392355
  H      1.178314    1.749611   -0.070217
  H      2.492599    0.186917    1.401426
  H      2.715569   -0.893967    0.018791
  H      3.399259    0.724711   -0.012721
  H      0.695402   -1.847010    0.121155

 Total Charge           Charge          ....    0
 Multiplicity           Mult            ....    1
 Number of Electrons    NEL             ....   50
 Basis Dimension        Dim             ....  179

ORBITAL ENERGIES
----------------

  NO   OCC          E(Eh)            E(eV)
   0   2.0000     -18.948463      -515.6139
   1   2.0000     -10.071713      -274.0652
   2   2.0000     -10.017044      -272.5776
   3   2.0000     -10.016287      -272.5570
   4   2.0000     -10.010215      -272.3918
   5   2.0000     -10.007808      -272.3263
   6   2.0000      -0.985731       -26.8231
   7   2.0000      -0.751942       -20.4614
   8   2.0000      -0.715325       -19.4650
   9   2.0000      -0.636084       -17.3087
  10   2.0000      -0.561935       -15.2910
  11   2.0000      -0.538087       -14.6421
  12   2.0000      -0.483039       -13.1442
  13   2.0000      -0.424868       -11.5612
  14   2.0000      -0.398036       -10.8311
  15   2.0000      -0.388364       -10.5679
  16   2.0000      -0.381550       -10.3825
  17   2.0000      -0.357723        -9.7341
  18   2.0000      -0.334978        -9.1152
  19   2.0000      -0.317003        -8.6261
  20   2.0000      -0.314302        -8.5526
  21   2.0000      -0.303191        -8.2503
  22   2.0000      -0.299218        -8.1421
  23   2.0000      -0.273294        -7.4367
  24   2.0000      -0.235959        -6.4208
  25   0.0000       0.076389         2.0787
  26   0.0000       0.116921         3.1816
  27   0.0000       0.121416         3.3039
  28   0.0000       0.127775         3.4769
  29   0.0000       0.142288         3.8719

MULLIKEN ATOMIC CHARGES
-----------------------
   0 C :   -0.535699
   1 C :   -0.256182
   2 C :    0.059820
   3 C :   -0.268385
   4 C :   -0.528291
   5 O :   -0.523759
   6 H :    0.158867
   7 H :    0.160713
   8 H :    0.157175
   9 H :    0.154144
  10 H :    0.152089
  11 H :    0.140698
  12 H :    0.156089
  13 H :    0.150627
  14 H :    0.159854
  15 H :    0.156626
  16 H :    0.161699
  17 H :    0.343914
Sum of atomic charges:    0.0000000

LOEWDIN ATOMIC CHARGES
----------------------
   0 C :   -0.427622
   1 C :   -0.284773
   2 C :    0.054483
   3 C :   -0.297336
   4 C :   -0.431011
   5 O :   -0.654328
   6 H :    0.153278
   7 H :    0.157365
   8 H :    0.154236
   9 H :    0.164486
  10 H :    0.164372
  11 H :    0.169828
  12 H :    0.163350
  13 H :    0.163889
  14 H :    0.155597
  15 H :    0.152713
  16 H :    0.155822
  17 H :    0.285650

  Mayer bond orders larger than 0.100000
B(  0-C ,  1-C ) :   0.8905 B(  0-C ,  6-H ) :   0.9727 B(  0-C ,  7-H ) :   0.9804
B(  0-C ,  8-H ) :   0.9798 B(  1-C ,  2-C ) :   0.9454 B(  1-C ,  9-H ) :   0.9748
B(  1-C , 10-H ) :   0.9684 B(  2-C ,  3-C ) :   0.9217 B(  2-C ,  5-O ) :   0.7902
B(  2-C , 11-H ) :   0.9565 B(  3-C ,  4-C ) :   0.8837 B(  3-C , 12-H ) :   0.9749
B(  3-C , 13-H ) :   0.9717 B(  4-C , 14-H ) :   0.9808 B(  4-C , 15-H ) :   0.9752
B(  4-C , 16-H ) :   0.9708 B(  5-O , 17-H ) :   0.8746

Dispersion correction           -0.004179618
FINAL SINGLE POINT ENERGY      -272.908982950287

DIPOLE MOMENT
-------------

Method             : SCF
Type of density    : Electron Density
Multiplicity       :   1
Irrep              :   0
Energy             :  -272.9143194984438878 Eh
Relativity type    :
Basis              : AO
                                X                 Y                 Z
Electronic contribution:     -0.089146697      -2.111086552      -0.731859629
Nuclear contribution   :      0.723781767       2.505299067       1.195393867
                        -----------------------------------------
Total Dipole Moment    :      0.634635069       0.394212515       0.463534239
                        -----------------------------------------
Magnitude (a.u.)       :      0.879220774
Magnitude (Debye)      :      2.234801604

Rotational constants in cm-1:             0.240375             0.063467             0.055377
Rotational constants in MHz :          7206.248153          1902.678043          1660.164016

                             ****ORCA TERMINATED NORMALLY****
TOTAL RUN TIME: 0 days 0 hours 0 minutes 27 seconds 885 msec
