                         Program Version 6.0.0  -   RELEASE  -
|  1> ! r2scan-3c def2/J RI DEFGRID2 scfconv6 printgap
|  2> %output
|  3>     printlevel normal
|  4> end
|  5> * xyz 0 1
|  6> C -3.2280305127 0.4787680425 0.0772107097
|  7> C -1.893587167 -0.2387299639 0.2317107207
|  8> C -0.7322547456 0.6276177997 -0.265703878
|  9> C 0.5644833252 -0.1365803534 -0.2319650196
| 10> O 0.7276577915 -1.2464942226 -0.6948837612
| 11> O 1.521998941 0.5586831232 0.3700263959
| 12> C 2.8308642842 -0.0102069794 0.4836835824
| 13> H -4.0350364459 -0.1462365194 0.4494134473
| 14> H -3.2259150731 1.4100967707 0.6376263352
| 15> H -3.421170324 0.7046834825 -0.9682781591
| 16> H -1.8997728869 -1.171382244 -0.3355665103
| 17> H -1.7300482032 -0.4895752033 1.2815875558
| 18> H -0.6250305329 1.530089987 0.3347627703
| 19> H -0.9189349656 0.9108631029 -1.3039188865
| 20> H 3.5384905409 0.751507744 0.1651277502
| 21> H 2.904116645 -0.8980446583 -0.1452936274
| 22> H 3.0001487889 -0.2741794596 1.5266121978
| 23> *
| 24>
| 25>                          ****END OF INPUT****

CARTESIAN COORDINATES (ANGSTROEM)
---------------------------------
  C     -3.228031    0.478768    0.077211
  C     -1.893587   -0.238730    0.231711
  C     -0.732255    0.627618   -0.265704
  C      0.564483   -0.136580   -0.231965
  O      0.727658   -1.246494   -0.694884
  O      1.521999    0.558683    0.370026
  C      2.830864   -0.010207    0.483684
  H     -4.035036   -0.146237    0.449413
  H     -3.225915    1.410097    0.637626
  H     -3.421170    0.704683   -0.968278
  H     -1.899773   -1.171382   -0.335567
  H     -1.730048   -0.489575    1.281588
  H     -0.625031    1.530090    0.334763
  H     -0.918935    0.910863   -1.303919
  H      3.538491    0.751508    0.165128
  H      2.904117   -0.898045   -0.145294
  H      3.000149   -0.274179    1.526612

 Total Charge           Charge          ....    0
 Multiplicity           Mult            ....    1
 Number of Electrons    NEL             ....   56
 Basis Dimension        Dim             ....  193

ORBITAL ENERGIES
----------------

  NO   OCC          E(Eh)            E(eV)
   0   2.0000     -18.999794      -517.0107
   1   2.0000     -18.928290      -515.0650
   2   2.0000     -10.153090      -276.2796
   3   2.0000     -10.085002      -274.4268
   4   2.0000     -10.041817      -273.2517
   5   2.0000     -10.033987      -273.0387
   6   2.0000     -10.021503      -272.6990
   7   2.0000      -1.072594       -29.1868
   8   2.0000      -0.976417       -26.5697
   9   2.0000      -0.771154       -20.9842
  10   2.0000      -0.714081       -19.4311
  11   2.0000      -0.660850       -17.9826
  12   2.0000      -0.570631       -15.5277
  13   2.0000      -0.530448       -14.4342
  14   2.0000      -0.470465       -12.8020
  15   2.0000      -0.458025       -12.4635
  16   2.0000      -0.445940       -12.1347
  17   2.0000      -0.428111       -11.6495
  18   2.0000      -0.397756       -10.8235
  19   2.0000      -0.390180       -10.6173
  20   2.0000      -0.372678       -10.1411
  21   2.0000      -0.348526        -9.4839
  22   2.0000      -0.331817        -9.0292
  23   2.0000      -0.315441        -8.5836
  24   2.0000      -0.310287        -8.4433
  25   2.0000      -0.304594        -8.2884
  26   2.0000      -0.272336        -7.4106
  27   2.0000      -0.238222        -6.4824
  28   0.0000      -0.014755        -0.4015
  29   0.0000       0.069240         1.8841
  30   0.0000       0.097272         2.6469
  31   0.0000       0.104082         2.8322
  32   0.0000       0.130711         3.5568

MULLIKEN ATOMIC CHARGES
-----------------------
   0 C :   -0.467464
   1 C :   -0.232272
   2 C :   -0.332272
   3 C :    0.415493
   4 O :   -0.440063
   5 O :   -0.195668
   6 C :   -0.303697
   7 H :    0.150386
   8 H :    0.141355
   9 H :    0.144724
  10 H :    0.168476
  11 H :    0.137601
  12 H :    0.163192
  13 H :    0.165792
  14 H :    0.147567
  15 H :    0.188091
  16 H :    0.148758
Sum of atomic charges:    0.0000000

LOEWDIN ATOMIC CHARGES
----------------------
   0 C :   -0.420762
   1 C :   -0.291151
   2 C :   -0.229746
   3 C :    0.359568
   4 O :   -0.443032
   5 O :   -0.602641
   6 C :   -0.046560
   7 H :    0.153024
   8 H :    0.149987
   9 H :    0.150509
  10 H :    0.167484
  11 H :    0.155517
  12 H :    0.177398
  13 H :    0.180944
  14 H :    0.174140
  15 H :    0.192474
  16 H :    0.172847

  Mayer bond orders larger than 0.100000
B(  0-C ,  1-C ) :   0.8899 B(  0-C ,  7-H ) :   0.9740 B(  0-C ,  8-H ) :   0.9786
B(  0-C ,  9-H ) :   0.9880 B(  1-C ,  2-C ) :   0.9279 B(  1-C , 10-H ) :   0.9654
B(  1-C , 11-H ) :   0.9585 B(  2-C ,  3-C ) :   0.9870 B(  2-C , 12-H ) :   0.9744
B(  2-C , 13-H ) :   0.9532 B(  3-C ,  4-O ) :   1.8284 B(  3-C ,  5-O ) :   1.0621
B(  5-O ,  6-C ) :   0.8410 B(  6-C , 14-H ) :   0.9665 B(  6-C , 15-H ) :   0.9676
B(  6-C , 16-H ) :   0.9625

Dispersion correction           -0.003899729
FINAL SINGLE POINT ENERGY      -346.930143335975

DIPOLE MOMENT
-------------

Method             : SCF
Type of density    : Electron Density
Multiplicity       :   1
Irrep              :   0
Energy             :  -346.9370393911144106 Eh
Relativity type    :
Basis              : AO
                                X                 Y                 Z
Electronic contribution:      6.098487547      -1.553932494      -1.168712082
Nuclear contribution   :     -5.983255530       2.173689597       1.535722526
                        -----------------------------------------
Total Dipole Moment    :      0.115232017       0.619757102       0.367010444
                        -----------------------------------------
Magnitude (a.u.)       :      0.729433992
Magnitude (Debye)      :      1.854073863

Rotational constants in cm-1:             0.251221             0.040725             0.037280
Rotational constants in MHz :          7531.415581          1220.909316          1117.633293

                             ****ORCA TERMINATED NORMALLY****
TOTAL RUN TIME: 0 days 0 hours 0 minutes 22 seconds 592 msec
