                         Program Version 6.0.0  -   RELEASE  -
|  1> ! r2scan-3c def2/J RI DEFGRID2 scfconv6 printgap
|  2> %output
|  3>     printlevel normal
|  4> end
|  5> %cpcm
|  6>     smd true
|  7>     smdsolvent "water"
|  8> end
|  9> * xyz 0 1
| 10> C -3.2280305127 0.4787680425 0.0772107097
| 11> C -1.893587167 -0.2387299639 0.2317107207
| 12> C -0.7322547456 0.6276177997 -0.265703878
| 13> C 0.5644833252 -0.1365803534 -0.2319650196
| 14> O 0.7276577915 -1.2464942226 -0.6948837612
| 15> O 1.521998941 0.5586831232 0.3700263959
| 16> C 2.8308642842 -0.0102069794 0.4836835824
| 17> H -4.0350364459 -0.1462365194 0.4494134473
| 18> H -3.2259150731 1.4100967707 0.6376263352
| 19> H -3.421170324 0.7046834825 -0.9682781591
| 20> H -1.8997728869 -1.171382244 -0.3355665103
| 21> H -1.7300482032 -0.4895752033 1.2815875558
| 22> H -0.6250305329 1.530089987 0.3347627703
| 23> H -0.9189349656 0.9108631029 -1.3039188865
| 24> H 3.5384905409 0.751507744 0.1651277502
| 25> H 2.904116645 -0.8980446583 -0.1452936274
| 26> H 3.0001487889 -0.2741794596 1.5266121978
| 27> *
| 28>
| 29>                          ****END OF INPUT****

CARTESIAN COORDINATES (ANGSTROEM)
---------------------------------
  C     -3.228031    0.478768    0.077211
  C     -1.893587   -0.238730    0.231711
  C     -0.732255    0.627618   -0.265704
  C      0.564483   -0.136580   -0.231965
  O      0.727658   -1.246494   -0.694884
  O      1.521999    0.558683    0.370026
  C      2.830864   -0.010207    0.483684
  H     -4.035036   -0.146237    0.449413
  H     -3.225915    1.410097    0.637626
  H     -3.421170    0.704683   -0.968278
  H     -1.899773   -1.171382   -0.335567
  H     -1.730048   -0.489575    1.281588
  H     -0.625031    1.530090    0.334763
  H     -0.918935    0.910863   -1.303919
  H      3.538491    0.751508    0.165128
  H      2.904117   -0.898045   -0.145294
  H      3.000149   -0.274179    1.526612

 Total Charge           Charge          ....    0
 Multiplicity           Mult            ....    1
 Number of Electrons    NEL             ....   56
 Basis Dimension        Dim             ....  193

ORBITAL ENERGIES
----------------

  NO   OCC          E(Eh)            E(eV)
   0   2.0000     -19.004828      -517.1477
   1   2.0000     -18.942991      -515.4650
   2   2.0000     -10.162681      -276.5406
   3   2.0000     -10.074821      -274.1498
   4   2.0000     -10.035235      -273.0726
   5   2.0000     -10.027373      -272.8587
   6   2.0000     -10.011264      -272.4203
   7   2.0000      -1.078965       -29.3601
   8   2.0000      -0.989178       -26.9169
   9   2.0000      -0.765564       -20.8321
  10   2.0000      -0.708914       -19.2905
  11   2.0000      -0.653430       -17.7807
  12   2.0000      -0.563686       -15.3387
  13   2.0000      -0.528300       -14.3758
  14   2.0000      -0.471338       -12.8258
  15   2.0000      -0.459242       -12.4966
  16   2.0000      -0.450509       -12.2590
  17   2.0000      -0.425550       -11.5798
  18   2.0000      -0.392239       -10.6734
  19   2.0000      -0.387020       -10.5314
  20   2.0000      -0.368014       -10.0142
  21   2.0000      -0.343962        -9.3597
  22   2.0000      -0.327745        -8.9184
  23   2.0000      -0.313915        -8.5420
  24   2.0000      -0.305256        -8.3064
  25   2.0000      -0.296584        -8.0705
  26   2.0000      -0.279305        -7.6003
  27   2.0000      -0.253492        -6.8979
  28   0.0000      -0.021780        -0.5927
  29   0.0000       0.074157         2.0179
  30   0.0000       0.104570         2.8455
  31   0.0000       0.114237         3.1085
  32   0.0000       0.140855         3.8329

MULLIKEN ATOMIC CHARGES
-----------------------
   0 C :   -0.512761
   1 C :   -0.232678
   2 C :   -0.349528
   3 C :    0.452974
   4 O :   -0.523335
   5 O :   -0.212965
   6 C :   -0.318818
   7 H :    0.160969
   8 H :    0.156557
   9 H :    0.158638
  10 H :    0.157816
  11 H :    0.155568
  12 H :    0.178013
  13 H :    0.194893
  14 H :    0.174399
  15 H :    0.183716
  16 H :    0.176542
Sum of atomic charges:    0.0000000

LOEWDIN ATOMIC CHARGES
----------------------
   0 C :   -0.426105
   1 C :   -0.291449
   2 C :   -0.226997
   3 C :    0.369482
   4 O :   -0.503660
   5 O :   -0.604850
   6 C :   -0.041183
   7 H :    0.155704
   8 H :    0.154706
   9 H :    0.154356
  10 H :    0.162646
  11 H :    0.160326
  12 H :    0.184822
  13 H :    0.191408
  14 H :    0.185698
  15 H :    0.191256
  16 H :    0.183840

  Mayer bond orders larger than 0.100000
B(  0-C ,  1-C ) :   0.8874 B(  0-C ,  7-H ) :   0.9709 B(  0-C ,  8-H ) :   0.9765
B(  0-C ,  9-H ) :   0.9846 B(  1-C ,  2-C ) :   0.9141 B(  1-C , 10-H ) :   0.9667
B(  1-C , 11-H ) :   0.9582 B(  2-C ,  3-C ) :   0.9886 B(  2-C , 12-H ) :   0.9667
B(  2-C , 13-H ) :   0.9428 B(  3-C ,  4-O ) :   1.7663 B(  3-C ,  5-O ) :   1.0871
B(  5-O ,  6-C ) :   0.8279 B(  6-C , 14-H ) :   0.9570 B(  6-C , 15-H ) :   0.9638
B(  6-C , 16-H ) :   0.9536

Dispersion correction           -0.003899729
FINAL SINGLE POINT ENERGY      -346.934386011986

DIPOLE MOMENT
-------------

Method             : SCF
Type of density    : Electron Density
Multiplicity       :   1
Irrep              :   0
Energy             :  -346.9412820671253712 Eh
Relativity type    :
Basis              : AO
                                X                 Y                 Z
Electronic contribution:      6.139561536      -1.233760117      -1.019361536
Nuclear contribution   :     -5.983255530       2.173689597       1.535722526
                        -----------------------------------------
Total Dipole Moment    :      0.156306006       0.939929480       0.516360990
                        -----------------------------------------
Magnitude (a.u.)       :      1.083756276
Magnitude (Debye)      :      2.754689536

Rotational constants in cm-1:             0.251221             0.040725             0.037280
Rotational constants in MHz :          7531.415581          1220.909316          1117.633293

                             ****ORCA TERMINATED NORMALLY****
TOTAL RUN TIME: 0 days 0 hours 0 minutes 31 seconds 590 msec
