                         Program Version 6.0.0  -   RELEASE  -
|  1> ! pbe def2-sv(p) def2/J RI DEFGRID1 loosescf d4 GCP(DFT/SV(P)) printgap
|  2> %output
|  3>     printlevel normal
|  4> end
|  5> * xyz 0 1
|  6> C 5.7301220235 0.1674441619 -0.087253871
|  7> C 4.4579410023 -0.6709522321 -0.0844466057
|  8> C 3.2150499867 0.1964479883 -0.0502060468
|  9> O 3.2462457013 1.4141099217 -0.0322864084
| 10> N 2.0656882469 -0.5406903506 -0.0422026828
| 11> C 0.7447012985 -0.1067697135 -0.0143465997
| 12> C 0.3825409165 1.2396052459 0.0101494456
| 13> C -0.9501983665 1.6005401977 0.0371383324
| 14> C -1.9417990362 0.6323742408 0.0402695603
| 15> C -1.5869284227 -0.7109706021 0.0159012726
| 16> C -0.2559380273 -1.0807647535 -0.0112274496
| 17> Cl -2.812727167 -1.9365149041 0.0193869292
| 18> Cl -3.6136981833 1.0974055049 0.0743247642
| 19> H 5.7737112378 0.7890687532 0.8034540614
| 20> H 5.7455458736 0.8256515731 -0.95224342
| 21> H 6.6062980295 -0.4735504354 -0.1146326459
| 22> H 4.4461584934 -1.32691109 0.7878126499
| 23> H 4.4201263855 -1.2928959553 -0.9806042715
| 24> H 2.1763305851 -1.5469535796 -0.0590021866
| 25> H 1.147461041 1.9976567054 0.007987476
| 26> H -1.2287260447 2.6409638479 0.0560146641
| 27> H -0.0056951671 -2.129021603 -0.0298155991
| 28> *
| 29>
| 30>                          ****END OF INPUT****

CARTESIAN COORDINATES (ANGSTROEM)
---------------------------------
  C      5.730122    0.167444   -0.087254
  C      4.457941   -0.670952   -0.084447
  C      3.215050    0.196448   -0.050206
  O      3.246246    1.414110   -0.032286
  N      2.065688   -0.540690   -0.042203
  C      0.744701   -0.106770   -0.014347
  C      0.382541    1.239605    0.010149
  C     -0.950198    1.600540    0.037138
  C     -1.941799    0.632374    0.040270
  C     -1.586928   -0.710971    0.015901
  C     -0.255938   -1.080765   -0.011227
  Cl    -2.812727   -1.936515    0.019387
  Cl    -3.613698    1.097406    0.074325
  H      5.773711    0.789069    0.803454
  H      5.745546    0.825652   -0.952243
  H      6.606298   -0.473550   -0.114633
  H      4.446158   -1.326911    0.787813
  H      4.420126   -1.292896   -0.980604
  H      2.176331   -1.546954   -0.059002
  H      1.147461    1.997657    0.007987
  H     -1.228726    2.640964    0.056015
  H     -0.005695   -2.129022   -0.029816

 Total Charge           Charge          ....    0
 Multiplicity           Mult            ....    1
 Number of Electrons    NEL             ....  112
 Basis Dimension        Dim             ....  208

ORBITAL ENERGIES
----------------

  NO   OCC          E(Eh)            E(eV)
   0   2.0000    -100.647313     -2738.7526
   1   2.0000    -100.642434     -2738.6199
   2   2.0000     -18.739282      -509.9218
   3   2.0000     -14.049928      -382.3180
   4   2.0000     -10.002271      -272.1756
   5   2.0000      -9.964371      -271.1443
   6   2.0000      -9.958985      -270.9977
   7   2.0000      -9.956566      -270.9319
   8   2.0000      -9.917534      -269.8698
   9   2.0000      -9.912435      -269.7311
  10   2.0000      -9.911278      -269.6996
  11   2.0000      -9.900779      -269.4139
  12   2.0000      -9.885662      -269.0025
  13   2.0000      -9.183028      -249.8829
  14   2.0000      -9.178018      -249.7466
  15   2.0000      -7.014621      -190.8775
  16   2.0000      -7.009613      -190.7413
  17   2.0000      -7.003005      -190.5615
  18   2.0000      -7.002228      -190.5403
  19   2.0000      -6.997999      -190.4252
  20   2.0000      -6.997255      -190.4050
  21   2.0000      -0.956984       -26.0409
  22   2.0000      -0.875582       -23.8258
  23   2.0000      -0.835289       -22.7294
  24   2.0000      -0.781640       -21.2695
  25   2.0000      -0.763979       -20.7889
  26   2.0000      -0.716066       -19.4851
  27   2.0000      -0.683748       -18.6057
  28   2.0000      -0.663918       -18.0661
  29   2.0000      -0.603817       -16.4307
  30   2.0000      -0.580736       -15.8026
  31   2.0000      -0.554910       -15.0999
  32   2.0000      -0.522230       -14.2106
  33   2.0000      -0.500730       -13.6256
  34   2.0000      -0.454629       -12.3711
  35   2.0000      -0.445282       -12.1167
  36   2.0000      -0.439208       -11.9514
  37   2.0000      -0.433945       -11.8083
  38   2.0000      -0.410766       -11.1775
  39   2.0000      -0.398952       -10.8560
  40   2.0000      -0.392008       -10.6671
  41   2.0000      -0.376653       -10.2493
  42   2.0000      -0.367239        -9.9931
  43   2.0000      -0.357862        -9.7379
  44   2.0000      -0.341946        -9.3048
  45   2.0000      -0.336477        -9.1560
  46   2.0000      -0.329391        -8.9632
  47   2.0000      -0.323148        -8.7933
  48   2.0000      -0.310372        -8.4457
  49   2.0000      -0.305875        -8.3233
  50   2.0000      -0.283604        -7.7173
  51   2.0000      -0.265081        -7.2132
  52   2.0000      -0.260522        -7.0892
  53   2.0000      -0.232562        -6.3283
  54   2.0000      -0.219071        -5.9612
  55   2.0000      -0.202439        -5.5086
  56   0.0000      -0.058353        -1.5879
  57   0.0000      -0.053236        -1.4486
  58   0.0000      -0.019546        -0.5319
  59   0.0000      -0.006039        -0.1643
  60   0.0000       0.012168         0.3311

MULLIKEN ATOMIC CHARGES
-----------------------
   0 C :   -0.249991
   1 C :   -0.243327
   2 C :    0.091787
   3 O :   -0.203821
   4 N :   -0.187882
   5 C :    0.215735
   6 C :   -0.127736
   7 C :   -0.101896
   8 C :    0.089965
   9 C :    0.074378
  10 C :   -0.193411
  11 Cl:   -0.058192
  12 Cl:   -0.063101
  13 H :    0.114796
  14 H :    0.114973
  15 H :    0.102059
  16 H :    0.112971
  17 H :    0.113316
  18 H :    0.230904
  19 H :    0.081403
  20 H :    0.057744
  21 H :    0.029324
Sum of atomic charges:   -0.0000000

LOEWDIN ATOMIC CHARGES
----------------------
   0 C :   -0.334358
   1 C :   -0.266904
   2 C :    0.034971
   3 O :   -0.167846
   4 N :   -0.106848
   5 C :    0.008051
   6 C :   -0.140805
   7 C :   -0.122449
   8 C :   -0.166064
   9 C :   -0.148538
  10 C :   -0.162236
  11 Cl:    0.140560
  12 Cl:    0.134195
  13 H :    0.127786
  14 H :    0.127869
  15 H :    0.121187
  16 H :    0.134228
  17 H :    0.134468
  18 H :    0.240404
  19 H :    0.146307
  20 H :    0.136757
  21 H :    0.129264

  Mayer bond orders larger than 0.100000
B(  0-C ,  1-C ) :   1.1763 B(  0-C , 13-H ) :   0.9533 B(  0-C , 14-H ) :   0.9530
B(  0-C , 15-H ) :   0.9468 B(  1-C ,  2-C ) :   0.9914 B(  1-C , 16-H ) :   0.9055
B(  1-C , 17-H ) :   0.9052 B(  2-C ,  3-O ) :   2.0445 B(  2-C ,  4-N ) :   1.1611
B(  4-N ,  5-C ) :   1.0973 B(  4-N , 18-H ) :   0.8434 B(  5-C ,  6-C ) :   1.3636
B(  5-C , 10-C ) :   1.2641 B(  6-C ,  7-C ) :   1.3173 B(  6-C , 19-H ) :   0.9435
B(  7-C ,  8-C ) :   1.3664 B(  7-C , 20-H ) :   0.9667 B(  8-C ,  9-C ) :   1.4118
B(  8-C , 12-Cl) :   1.0273 B(  9-C , 10-C ) :   1.4014 B(  9-C , 11-Cl) :   1.0305
B( 10-C , 21-H ) :   0.9592

Dispersion correction           -0.027571168
FINAL SINGLE POINT ENERGY     -1397.095766318304

DIPOLE MOMENT
-------------

Method             : SCF
Type of density    : Electron Density
Multiplicity       :   1
Irrep              :   0
Energy             : -1397.1565675338792971 Eh
Relativity type    :
Basis              : AO
                                X                 Y                 Z
Electronic contribution:    -35.027690602      -1.705375092       0.545625594
Nuclear contribution   :     35.968227396       0.660124517      -0.577779472
                        -----------------------------------------
Total Dipole Moment    :      0.940536794      -1.045250575      -0.032153878
                        -----------------------------------------
Magnitude (a.u.)       :      1.406482171
Magnitude (Debye)      :      3.574993570

Rotational constants in cm-1:             0.053463             0.008473             0.007334
Rotational constants in MHz :          1602.767758           254.024432           219.869385

                             ****ORCA TERMINATED NORMALLY****
TOTAL RUN TIME: 0 days 0 hours 0 minutes 16 seconds 883 msec
