                         Program Version 6.0.0  -   RELEASE  -
|  1> ! r2scan-3c def2/J RI DEFGRID2 scfconv6 printgap
|  2> %output
|  3>     printlevel normal
|  4> end
|  5> * xyz 0 1
|  6> C -2.7877420644 0.226190386 0.0235445293
|  7> C -1.3882109934 -0.1865324916 -0.4125749958
|  8> C -0.3185860901 0.3963604807 0.5208701835
|  9> C 1.0424907488 -0.09477306 0.1126183668
| 10> O 1.4016542985 -1.2528693141 0.1600734256
| 11> O 1.8232535227 0.8728629489 -0.3401749594
| 12> H -2.8844452519 1.3087621928 0.0181332633
| 13> H -2.9961843333 -0.1347967206 1.0273315521
| 14> H -3.5287212228 -0.1900291146 -0.6534393499
| 15> H -1.2987283068 -1.2747160465 -0.4078069242
| 16> H -1.2035168991 0.1616493879 -1.4308348414
| 17> H -0.3293403265 1.4847142776 0.4846177108
| 18> H -0.5133959264 0.0580042801 1.539547866
| 19> H 2.6992130293 0.5520712854 -0.6317232108
| 20> *
| 21>
| 22>                          ****END OF INPUT****

CARTESIAN COORDINATES (ANGSTROEM)
---------------------------------
  C     -2.787742    0.226190    0.023545
  C     -1.388211   -0.186532   -0.412575
  C     -0.318586    0.396360    0.520870
  C      1.042491   -0.094773    0.112618
  O      1.401654   -1.252869    0.160073
  O      1.823254    0.872863   -0.340175
  H     -2.884445    1.308762    0.018133
  H     -2.996184   -0.134797    1.027332
  H     -3.528721   -0.190029   -0.653439
  H     -1.298728   -1.274716   -0.407807
  H     -1.203517    0.161649   -1.430835
  H     -0.329340    1.484714    0.484618
  H     -0.513396    0.058004    1.539548
  H      2.699213    0.552071   -0.631723

 Total Charge           Charge          ....    0
 Multiplicity           Mult            ....    1
 Number of Electrons    NEL             ....   48
 Basis Dimension        Dim             ....  164

ORBITAL ENERGIES
----------------

  NO   OCC          E(Eh)            E(eV)
   0   2.0000     -19.004217      -517.1310
   1   2.0000     -18.932324      -515.1747
   2   2.0000     -10.160631      -276.4848
   3   2.0000     -10.046311      -273.3740
   4   2.0000     -10.040349      -273.2118
   5   2.0000     -10.025210      -272.7998
   6   2.0000      -1.078087       -29.3362
   7   2.0000      -0.977625       -26.6025
   8   2.0000      -0.774238       -21.0681
   9   2.0000      -0.692732       -18.8502
  10   2.0000      -0.605001       -16.4629
  11   2.0000      -0.560080       -15.2406
  12   2.0000      -0.466331       -12.6895
  13   2.0000      -0.449738       -12.2380
  14   2.0000      -0.438461       -11.9311
  15   2.0000      -0.423187       -11.5155
  16   2.0000      -0.387535       -10.5454
  17   2.0000      -0.364298        -9.9130
  18   2.0000      -0.362369        -9.8606
  19   2.0000      -0.328021        -8.9259
  20   2.0000      -0.319607        -8.6970
  21   2.0000      -0.311680        -8.4813
  22   2.0000      -0.289006        -7.8643
  23   2.0000      -0.239401        -6.5144
  24   0.0000      -0.020890        -0.5685
  25   0.0000       0.056590         1.5399
  26   0.0000       0.101300         2.7565
  27   0.0000       0.114613         3.1188
  28   0.0000       0.132239         3.5984

MULLIKEN ATOMIC CHARGES
-----------------------
   0 C :   -0.464173
   1 C :   -0.235131
   2 C :   -0.301124
   3 C :    0.362851
   4 O :   -0.407091
   5 O :   -0.348465
   6 H :    0.142885
   7 H :    0.145223
   8 H :    0.151696
   9 H :    0.166114
  10 H :    0.139382
  11 H :    0.157735
  12 H :    0.161789
  13 H :    0.328310
Sum of atomic charges:   -0.0000000

LOEWDIN ATOMIC CHARGES
----------------------
   0 C :   -0.419494
   1 C :   -0.287739
   2 C :   -0.236703
   3 C :    0.336949
   4 O :   -0.425653
   5 O :   -0.401833
   6 H :    0.150689
   7 H :    0.151317
   8 H :    0.153961
   9 H :    0.165732
  10 H :    0.156266
  11 H :    0.176056
  12 H :    0.180814
  13 H :    0.299637

  Mayer bond orders larger than 0.100000
B(  0-C ,  1-C ) :   0.8941 B(  0-C ,  6-H ) :   0.9801 B(  0-C ,  7-H ) :   0.9847
B(  0-C ,  8-H ) :   0.9723 B(  1-C ,  2-C ) :   0.9241 B(  1-C ,  9-H ) :   0.9646
B(  1-C , 10-H ) :   0.9593 B(  2-C ,  3-C ) :   0.9875 B(  2-C , 11-H ) :   0.9709
B(  2-C , 12-H ) :   0.9496 B(  3-C ,  4-O ) :   1.9181 B(  3-C ,  5-O ) :   1.0451
B(  5-O , 13-H ) :   0.8598

Dispersion correction           -0.003029088
FINAL SINGLE POINT ENERGY      -307.647557825513

DIPOLE MOMENT
-------------

Method             : SCF
Type of density    : Electron Density
Multiplicity       :   1
Irrep              :   0
Energy             :  -307.6521789097262172 Eh
Relativity type    :
Basis              : AO
                                X                 Y                 Z
Electronic contribution:      9.168346483      -1.142635803      -0.092808221
Nuclear contribution   :     -9.385541013       1.838484570      -0.053499766
                        -----------------------------------------
Total Dipole Moment    :     -0.217194529       0.695848767      -0.146307988
                        -----------------------------------------
Magnitude (a.u.)       :      0.743495123
Magnitude (Debye)      :      1.889814417

Rotational constants in cm-1:             0.279613             0.062271             0.055625
Rotational constants in MHz :          8382.594266          1866.825888          1667.597583

                             ****ORCA TERMINATED NORMALLY****
TOTAL RUN TIME: 0 days 0 hours 0 minutes 18 seconds 663 msec
