                         Program Version 6.0.0  -   RELEASE  -
|  1> ! r2scan-3c def2/J RI DEFGRID2 scfconv6 printgap
|  2> %output
|  3>     printlevel normal
|  4> end
|  5> %cpcm
|  6>     smd true
|  7>     smdsolvent "water"
|  8> end
|  9> * xyz 0 1
| 10> C -2.7877420644 0.226190386 0.0235445293
| 11> C -1.3882109934 -0.1865324916 -0.4125749958
| 12> C -0.3185860901 0.3963604807 0.5208701835
| 13> C 1.0424907488 -0.09477306 0.1126183668
| 14> O 1.4016542985 -1.2528693141 0.1600734256
| 15> O 1.8232535227 0.8728629489 -0.3401749594
| 16> H -2.8844452519 1.3087621928 0.0181332633
| 17> H -2.9961843333 -0.1347967206 1.0273315521
| 18> H -3.5287212228 -0.1900291146 -0.6534393499
| 19> H -1.2987283068 -1.2747160465 -0.4078069242
| 20> H -1.2035168991 0.1616493879 -1.4308348414
| 21> H -0.3293403265 1.4847142776 0.4846177108
| 22> H -0.5133959264 0.0580042801 1.539547866
| 23> H 2.6992130293 0.5520712854 -0.6317232108
| 24> *
| 25>
| 26>                          ****END OF INPUT****

CARTESIAN COORDINATES (ANGSTROEM)
---------------------------------
  C     -2.787742    0.226190    0.023545
  C     -1.388211   -0.186532   -0.412575
  C     -0.318586    0.396360    0.520870
  C      1.042491   -0.094773    0.112618
  O      1.401654   -1.252869    0.160073
  O      1.823254    0.872863   -0.340175
  H     -2.884445    1.308762    0.018133
  H     -2.996184   -0.134797    1.027332
  H     -3.528721   -0.190029   -0.653439
  H     -1.298728   -1.274716   -0.407807
  H     -1.203517    0.161649   -1.430835
  H     -0.329340    1.484714    0.484618
  H     -0.513396    0.058004    1.539548
  H      2.699213    0.552071   -0.631723

 Total Charge           Charge          ....    0
 Multiplicity           Mult            ....    1
 Number of Electrons    NEL             ....   48
 Basis Dimension        Dim             ....  164

ORBITAL ENERGIES
----------------

  NO   OCC          E(Eh)            E(eV)
   0   2.0000     -19.001923      -517.0686
   1   2.0000     -18.943326      -515.4741
   2   2.0000     -10.166859      -276.6543
   3   2.0000     -10.036377      -273.1037
   4   2.0000     -10.030149      -272.9342
   5   2.0000     -10.012046      -272.4416
   6   2.0000      -1.078729       -29.3537
   7   2.0000      -0.985984       -26.8300
   8   2.0000      -0.764760       -20.8102
   9   2.0000      -0.683460       -18.5979
  10   2.0000      -0.596072       -16.2200
  11   2.0000      -0.550129       -14.9698
  12   2.0000      -0.469380       -12.7725
  13   2.0000      -0.451569       -12.2878
  14   2.0000      -0.435726       -11.8567
  15   2.0000      -0.419447       -11.4137
  16   2.0000      -0.379638       -10.3305
  17   2.0000      -0.363163        -9.8822
  18   2.0000      -0.352543        -9.5932
  19   2.0000      -0.321051        -8.7362
  20   2.0000      -0.308655        -8.3989
  21   2.0000      -0.302865        -8.2414
  22   2.0000      -0.293859        -7.9963
  23   2.0000      -0.251909        -6.8548
  24   0.0000      -0.024627        -0.6701
  25   0.0000       0.076142         2.0719
  26   0.0000       0.114472         3.1150
  27   0.0000       0.129544         3.5251
  28   0.0000       0.142026         3.8647

MULLIKEN ATOMIC CHARGES
-----------------------
   0 C :   -0.508834
   1 C :   -0.231321
   2 C :   -0.319750
   3 C :    0.397350
   4 O :   -0.496131
   5 O :   -0.372851
   6 H :    0.157470
   7 H :    0.158419
   8 H :    0.162123
   9 H :    0.158999
  10 H :    0.155938
  11 H :    0.174121
  12 H :    0.186084
  13 H :    0.378384
Sum of atomic charges:   -0.0000000

LOEWDIN ATOMIC CHARGES
----------------------
   0 C :   -0.425116
   1 C :   -0.287102
   2 C :   -0.235091
   3 C :    0.348401
   4 O :   -0.491351
   5 O :   -0.392261
   6 H :    0.155032
   7 H :    0.154782
   8 H :    0.156513
   9 H :    0.162225
  10 H :    0.161044
  11 H :    0.183690
  12 H :    0.189028
  13 H :    0.320207

  Mayer bond orders larger than 0.100000
B(  0-C ,  1-C ) :   0.8888 B(  0-C ,  6-H ) :   0.9779 B(  0-C ,  7-H ) :   0.9819
B(  0-C ,  8-H ) :   0.9694 B(  1-C ,  2-C ) :   0.9106 B(  1-C ,  9-H ) :   0.9663
B(  1-C , 10-H ) :   0.9581 B(  2-C ,  3-C ) :   0.9894 B(  2-C , 11-H ) :   0.9647
B(  2-C , 12-H ) :   0.9432 B(  3-C ,  4-O ) :   1.8462 B(  3-C ,  5-O ) :   1.0832
B(  5-O , 13-H ) :   0.8349

Dispersion correction           -0.003029088
FINAL SINGLE POINT ENERGY      -307.657596343130

DIPOLE MOMENT
-------------

Method             : SCF
Type of density    : Electron Density
Multiplicity       :   1
Irrep              :   0
Energy             :  -307.6622174273428527 Eh
Relativity type    :
Basis              : AO
                                X                 Y                 Z
Electronic contribution:      9.141025414      -0.825622656      -0.131710353
Nuclear contribution   :     -9.385541013       1.838484570      -0.053499766
                        -----------------------------------------
Total Dipole Moment    :     -0.244515598       1.012861914      -0.185210120
                        -----------------------------------------
Magnitude (a.u.)       :      1.058291039
Magnitude (Debye)      :      2.689962047

Rotational constants in cm-1:             0.279613             0.062271             0.055625
Rotational constants in MHz :          8382.594266          1866.825888          1667.597583

                             ****ORCA TERMINATED NORMALLY****
TOTAL RUN TIME: 0 days 0 hours 0 minutes 20 seconds 234 msec
