                         Program Version 6.0.0  -   RELEASE  -
|  1> ! r2scan-3c def2/J RI DEFGRID2 scfconv6 printgap
|  2> %output
|  3>     printlevel normal
|  4> end
|  5> * xyz 0 1
|  6> C -4.0896495499 -0.9518084744 1.1333920687
|  7> C -3.4713443749 0.2332810135 0.4095495738
|  8> O -2.0421613008 0.1835223299 0.5342740423
|  9> C -1.2944237628 0.1862063281 -0.5686727281
| 10> O -1.763326638 0.2514444937 -1.6943210135
| 11> C 0.1462750262 0.1099793773 -0.2834177484
| 12> C 1.0436435286 0.1501476501 -1.3508347101
| 13> C 2.4017026177 0.0854513738 -1.1289829029
| 14> C 2.8901027301 -0.0233975332 0.1732588092
| 15> C 1.9935143897 -0.066577439 1.2443892046
| 16> C 0.6379916461 0.0002986272 1.0193414251
| 17> O 4.2059514616 -0.089659691 0.4501093025
| 18> H -3.7679799835 -1.8835757608 0.6754757732
| 19> H -3.7862027137 -0.9496013742 2.1762845102
| 20> H -5.170851009 -0.8815783846 1.0743457364
| 21> H -3.7884745759 1.1768845849 0.8616712508
| 22> H -3.7282758787 0.2328439567 -0.6543925743
| 23> H 0.6482626476 0.2347872127 -2.3517447907
| 24> H 3.0855540934 0.1197430952 -1.9635916741
| 25> H 2.3911204785 -0.1526777658 2.2426703778
| 26> H -0.0537461592 -0.0324805475 1.8450956786
| 27> H 4.7413252875 -0.0517023013 -0.3586641913
| 28> *
| 29>
| 30>                          ****END OF INPUT****

CARTESIAN COORDINATES (ANGSTROEM)
---------------------------------
  C     -4.089650   -0.951808    1.133392
  C     -3.471344    0.233281    0.409550
  O     -2.042161    0.183522    0.534274
  C     -1.294424    0.186206   -0.568673
  O     -1.763327    0.251444   -1.694321
  C      0.146275    0.109979   -0.283418
  C      1.043644    0.150148   -1.350835
  C      2.401703    0.085451   -1.128983
  C      2.890103   -0.023398    0.173259
  C      1.993514   -0.066577    1.244389
  C      0.637992    0.000299    1.019341
  O      4.205951   -0.089660    0.450109
  H     -3.767980   -1.883576    0.675476
  H     -3.786203   -0.949601    2.176285
  H     -5.170851   -0.881578    1.074346
  H     -3.788475    1.176885    0.861671
  H     -3.728276    0.232844   -0.654393
  H      0.648263    0.234787   -2.351745
  H      3.085554    0.119743   -1.963592
  H      2.391120   -0.152678    2.242670
  H     -0.053746   -0.032481    1.845096
  H      4.741325   -0.051702   -0.358664

 Total Charge           Charge          ....    0
 Multiplicity           Mult            ....    1
 Number of Electrons    NEL             ....   88
 Basis Dimension        Dim             ....  293

ORBITAL ENERGIES
----------------

  NO   OCC          E(Eh)            E(eV)
   0   2.0000     -19.002124      -517.0741
   1   2.0000     -18.993008      -516.8260
   2   2.0000     -18.922147      -514.8978
   3   2.0000     -10.150946      -276.2213
   4   2.0000     -10.113588      -275.2047
   5   2.0000     -10.087289      -274.4891
   6   2.0000     -10.048275      -273.4275
   7   2.0000     -10.048156      -273.4242
   8   2.0000     -10.046261      -273.3726
   9   2.0000     -10.046058      -273.3671
  10   2.0000     -10.041004      -273.2296
  11   2.0000     -10.029236      -272.9094
  12   2.0000      -1.066129       -29.0109
  13   2.0000      -1.048967       -28.5438
  14   2.0000      -0.969325       -26.3767
  15   2.0000      -0.835863       -22.7450
  16   2.0000      -0.753272       -20.4976
  17   2.0000      -0.732011       -19.9190
  18   2.0000      -0.722012       -19.6470
  19   2.0000      -0.638241       -17.3674
  20   2.0000      -0.611018       -16.6266
  21   2.0000      -0.582244       -15.8437
  22   2.0000      -0.534023       -14.5315
  23   2.0000      -0.529923       -14.4199
  24   2.0000      -0.504679       -13.7330
  25   2.0000      -0.458359       -12.4726
  26   2.0000      -0.447354       -12.1731
  27   2.0000      -0.429033       -11.6746
  28   2.0000      -0.418722       -11.3940
  29   2.0000      -0.407901       -11.0996
  30   2.0000      -0.402973       -10.9654
  31   2.0000      -0.397183       -10.8079
  32   2.0000      -0.383091       -10.4244
  33   2.0000      -0.372788       -10.1441
  34   2.0000      -0.363005        -9.8779
  35   2.0000      -0.354172        -9.6375
  36   2.0000      -0.338996        -9.2245
  37   2.0000      -0.318503        -8.6669
  38   2.0000      -0.316869        -8.6224
  39   2.0000      -0.301963        -8.2168
  40   2.0000      -0.266735        -7.2582
  41   2.0000      -0.249606        -6.7921
  42   2.0000      -0.235998        -6.4218
  43   2.0000      -0.218626        -5.9491
  44   0.0000      -0.063996        -1.7414
  45   0.0000      -0.041992        -1.1427
  46   0.0000       0.036572         0.9952
  47   0.0000       0.045973         1.2510
  48   0.0000       0.070677         1.9232

MULLIKEN ATOMIC CHARGES
-----------------------
   0 C :   -0.445312
   1 C :   -0.167466
   2 O :   -0.154138
   3 C :    0.372311
   4 O :   -0.451042
   5 C :    0.065002
   6 C :   -0.219081
   7 C :   -0.331216
   8 C :    0.449631
   9 C :   -0.302645
  10 C :   -0.174429
  11 O :   -0.400679
  12 H :    0.154240
  13 H :    0.151547
  14 H :    0.146329
  15 H :    0.142109
  16 H :    0.191399
  17 H :    0.183252
  18 H :    0.140188
  19 H :    0.157289
  20 H :    0.173252
  21 H :    0.319459
Sum of atomic charges:   -0.0000000

LOEWDIN ATOMIC CHARGES
----------------------
   0 C :   -0.387823
   1 C :    0.032193
   2 O :   -0.606867
   3 C :    0.389631
   4 O :   -0.459345
   5 C :   -0.053239
   6 C :   -0.092250
   7 C :   -0.168216
   8 C :    0.197849
   9 C :   -0.140429
  10 C :   -0.100268
  11 O :   -0.480506
  12 H :    0.158975
  13 H :    0.156727
  14 H :    0.158888
  15 H :    0.174719
  16 H :    0.197329
  17 H :    0.191851
  18 H :    0.170863
  19 H :    0.181585
  20 H :    0.189251
  21 H :    0.289081

  Mayer bond orders larger than 0.100000
B(  0-C ,  1-C ) :   0.9484 B(  0-C , 12-H ) :   0.9724 B(  0-C , 13-H ) :   0.9732
B(  0-C , 14-H ) :   0.9668 B(  1-C ,  2-O ) :   0.7671 B(  1-C , 15-H ) :   0.9540
B(  1-C , 16-H ) :   0.9723 B(  2-O ,  3-C ) :   1.1603 B(  2-O ,  5-C ) :  -0.1252
B(  3-C ,  4-O ) :   1.8673 B(  3-C ,  5-C ) :   1.0569 B(  5-C ,  6-C ) :   1.4881
B(  5-C , 10-C ) :   1.3535 B(  6-C ,  7-C ) :   1.3777 B(  6-C , 17-H ) :   0.9320
B(  7-C ,  8-C ) :   1.3005 B(  7-C , 18-H ) :   0.9309 B(  8-C ,  9-C ) :   1.3839
B(  8-C , 11-O ) :   0.9414 B(  9-C , 10-C ) :   1.3598 B(  9-C , 11-O ) :   0.1033
B(  9-C , 19-H ) :   0.9542 B( 10-C , 20-H ) :   0.9499 B( 11-O , 21-H ) :   0.8769

Dispersion correction           -0.007350092
FINAL SINGLE POINT ENERGY      -574.552377524384

DIPOLE MOMENT
-------------

Method             : SCF
Type of density    : Electron Density
Multiplicity       :   1
Irrep              :   0
Energy             :  -574.5558868073237591 Eh
Relativity type    :
Basis              : AO
                                X                 Y                 Z
Electronic contribution:      9.335612808       1.963857024      -2.952047404
Nuclear contribution   :     -8.840331539      -2.046999926       3.317316857
                        -----------------------------------------
Total Dipole Moment    :      0.495281269      -0.083142902       0.365269453
                        -----------------------------------------
Magnitude (a.u.)       :      0.620997626
Magnitude (Debye)      :      1.578450524

Rotational constants in cm-1:             0.088884             0.014781             0.012972
Rotational constants in MHz :          2664.670438           443.130184           388.901940

                             ****ORCA TERMINATED NORMALLY****
TOTAL RUN TIME: 0 days 0 hours 0 minutes 41 seconds 541 msec
