                         Program Version 6.0.0  -   RELEASE  -
|  1> ! r2scan-3c def2/J RI DEFGRID2 scfconv6 printgap
|  2> %output
|  3>     printlevel normal
|  4> end
|  5> %cpcm
|  6>     smd true
|  7>     smdsolvent "water"
|  8> end
|  9> * xyz 0 1
| 10> C -4.0896495499 -0.9518084744 1.1333920687
| 11> C -3.4713443749 0.2332810135 0.4095495738
| 12> O -2.0421613008 0.1835223299 0.5342740423
| 13> C -1.2944237628 0.1862063281 -0.5686727281
| 14> O -1.763326638 0.2514444937 -1.6943210135
| 15> C 0.1462750262 0.1099793773 -0.2834177484
| 16> C 1.0436435286 0.1501476501 -1.3508347101
| 17> C 2.4017026177 0.0854513738 -1.1289829029
| 18> C 2.8901027301 -0.0233975332 0.1732588092
| 19> C 1.9935143897 -0.066577439 1.2443892046
| 20> C 0.6379916461 0.0002986272 1.0193414251
| 21> O 4.2059514616 -0.089659691 0.4501093025
| 22> H -3.7679799835 -1.8835757608 0.6754757732
| 23> H -3.7862027137 -0.9496013742 2.1762845102
| 24> H -5.170851009 -0.8815783846 1.0743457364
| 25> H -3.7884745759 1.1768845849 0.8616712508
| 26> H -3.7282758787 0.2328439567 -0.6543925743
| 27> H 0.6482626476 0.2347872127 -2.3517447907
| 28> H 3.0855540934 0.1197430952 -1.9635916741
| 29> H 2.3911204785 -0.1526777658 2.2426703778
| 30> H -0.0537461592 -0.0324805475 1.8450956786
| 31> H 4.7413252875 -0.0517023013 -0.3586641913
| 32> *
| 33>
| 34>                          ****END OF INPUT****

CARTESIAN COORDINATES (ANGSTROEM)
---------------------------------
  C     -4.089650   -0.951808    1.133392
  C     -3.471344    0.233281    0.409550
  O     -2.042161    0.183522    0.534274
  C     -1.294424    0.186206   -0.568673
  O     -1.763327    0.251444   -1.694321
  C      0.146275    0.109979   -0.283418
  C      1.043644    0.150148   -1.350835
  C      2.401703    0.085451   -1.128983
  C      2.890103   -0.023398    0.173259
  C      1.993514   -0.066577    1.244389
  C      0.637992    0.000299    1.019341
  O      4.205951   -0.089660    0.450109
  H     -3.767980   -1.883576    0.675476
  H     -3.786203   -0.949601    2.176285
  H     -5.170851   -0.881578    1.074346
  H     -3.788475    1.176885    0.861671
  H     -3.728276    0.232844   -0.654393
  H      0.648263    0.234787   -2.351745
  H      3.085554    0.119743   -1.963592
  H      2.391120   -0.152678    2.242670
  H     -0.053746   -0.032481    1.845096
  H      4.741325   -0.051702   -0.358664

 Total Charge           Charge          ....    0
 Multiplicity           Mult            ....    1
 Number of Electrons    NEL             ....   88
 Basis Dimension        Dim             ....  293

ORBITAL ENERGIES
----------------

  NO   OCC          E(Eh)            E(eV)
   0   2.0000     -18.999997      -517.0162
   1   2.0000     -18.993189      -516.8310
   2   2.0000     -18.939601      -515.3727
   3   2.0000     -10.164964      -276.6027
   4   2.0000     -10.111845      -275.1573
   5   2.0000     -10.082496      -274.3587
   6   2.0000     -10.048201      -273.4254
   7   2.0000     -10.047784      -273.4141
   8   2.0000     -10.047567      -273.4082
   9   2.0000     -10.040839      -273.2251
  10   2.0000     -10.038623      -273.1648
  11   2.0000     -10.018180      -272.6085
  12   2.0000      -1.075823       -29.2746
  13   2.0000      -1.039838       -28.2954
  14   2.0000      -0.985354       -26.8128
  15   2.0000      -0.836075       -22.7507
  16   2.0000      -0.751790       -20.4573
  17   2.0000      -0.730320       -19.8730
  18   2.0000      -0.718165       -19.5423
  19   2.0000      -0.635460       -17.2917
  20   2.0000      -0.606617       -16.5069
  21   2.0000      -0.578967       -15.7545
  22   2.0000      -0.532498       -14.4900
  23   2.0000      -0.523724       -14.2512
  24   2.0000      -0.506742       -13.7891
  25   2.0000      -0.460404       -12.5282
  26   2.0000      -0.447563       -12.1788
  27   2.0000      -0.440161       -11.9774
  28   2.0000      -0.419624       -11.4186
  29   2.0000      -0.407123       -11.0784
  30   2.0000      -0.398968       -10.8565
  31   2.0000      -0.394454       -10.7337
  32   2.0000      -0.381429       -10.3792
  33   2.0000      -0.367103        -9.9894
  34   2.0000      -0.361860        -9.8467
  35   2.0000      -0.351335        -9.5603
  36   2.0000      -0.336166        -9.1475
  37   2.0000      -0.319558        -8.6956
  38   2.0000      -0.313817        -8.5394
  39   2.0000      -0.302601        -8.2342
  40   2.0000      -0.275534        -7.4977
  41   2.0000      -0.255202        -6.9444
  42   2.0000      -0.250181        -6.8078
  43   2.0000      -0.219697        -5.9783
  44   0.0000      -0.070192        -1.9100
  45   0.0000      -0.041738        -1.1358
  46   0.0000       0.030903         0.8409
  47   0.0000       0.072067         1.9611
  48   0.0000       0.079902         2.1742

MULLIKEN ATOMIC CHARGES
-----------------------
   0 C :   -0.485680
   1 C :   -0.153526
   2 O :   -0.167833
   3 C :    0.408011
   4 O :   -0.528300
   5 C :    0.063263
   6 C :   -0.230079
   7 C :   -0.346881
   8 C :    0.413608
   9 C :   -0.338921
  10 C :   -0.201005
  11 O :   -0.432002
  12 H :    0.163931
  13 H :    0.165586
  14 H :    0.168310
  15 H :    0.168201
  16 H :    0.184330
  17 H :    0.196625
  18 H :    0.188926
  19 H :    0.188196
  20 H :    0.196455
  21 H :    0.378786
Sum of atomic charges:   -0.0000000

LOEWDIN ATOMIC CHARGES
----------------------
   0 C :   -0.390831
   1 C :    0.037642
   2 O :   -0.607320
   3 C :    0.393107
   4 O :   -0.520449
   5 C :   -0.068804
   6 C :   -0.105258
   7 C :   -0.155500
   8 C :    0.195912
   9 C :   -0.146143
  10 C :   -0.105476
  11 O :   -0.483969
  12 H :    0.160966
  13 H :    0.161162
  14 H :    0.167525
  15 H :    0.185603
  16 H :    0.195429
  17 H :    0.194522
  18 H :    0.190857
  19 H :    0.191757
  20 H :    0.196966
  21 H :    0.312304

  Mayer bond orders larger than 0.100000
B(  0-C ,  1-C ) :   0.9437 B(  0-C , 12-H ) :   0.9698 B(  0-C , 13-H ) :   0.9702
B(  0-C , 14-H ) :   0.9607 B(  1-C ,  2-O ) :   0.7561 B(  1-C , 15-H ) :   0.9449
B(  1-C , 16-H ) :   0.9677 B(  2-O ,  3-C ) :   1.1742 B(  2-O ,  5-C ) :  -0.1101
B(  3-C ,  4-O ) :   1.8066 B(  3-C ,  5-C ) :   1.0629 B(  5-C ,  6-C ) :   1.3940
B(  5-C , 10-C ) :   1.3034 B(  6-C ,  7-C ) :   1.3678 B(  6-C , 17-H ) :   0.9481
B(  7-C ,  8-C ) :   1.2998 B(  7-C , 18-H ) :   0.9524 B(  8-C ,  9-C ) :   1.3287
B(  8-C , 11-O ) :   0.9620 B(  9-C , 10-C ) :   1.3814 B(  9-C , 19-H ) :   0.9585
B( 10-C , 20-H ) :   0.9585 B( 11-O , 21-H ) :   0.8440

Dispersion correction           -0.007350092
FINAL SINGLE POINT ENERGY      -574.565380915678

DIPOLE MOMENT
-------------

Method             : SCF
Type of density    : Electron Density
Multiplicity       :   1
Irrep              :   0
Energy             :  -574.5688901986177370 Eh
Relativity type    :
Basis              : AO
                                X                 Y                 Z
Electronic contribution:      9.705089963       1.946996934      -2.774646799
Nuclear contribution   :     -8.840331539      -2.046999926       3.317316857
                        -----------------------------------------
Total Dipole Moment    :      0.864758424      -0.100002992       0.542670058
                        -----------------------------------------
Magnitude (a.u.)       :      1.025816028
Magnitude (Debye)      :      2.607417127

Rotational constants in cm-1:             0.088884             0.014781             0.012972
Rotational constants in MHz :          2664.670438           443.130184           388.901940

                             ****ORCA TERMINATED NORMALLY****
TOTAL RUN TIME: 0 days 0 hours 0 minutes 53 seconds 488 msec
