                         Program Version 6.0.0  -   RELEASE  -
|  1> ! r2scan-3c def2/J RI DEFGRID2 scfconv6 printgap
|  2> %output
|  3>     printlevel normal
|  4> end
|  5> * xyz 0 1
|  6> C -2.2022462909 0.8850841109 0.7307586062
|  7> C -1.8076289679 0.3820674911 -0.6524905023
|  8> C -0.9166222879 -0.8643983008 -0.5714882796
|  9> C 0.4068915392 -0.5450154904 0.0723218008
| 10> O 0.8074962745 -1.0116776789 1.1186830175
| 11> O 1.1073788618 0.3255250636 -0.6463974486
| 12> C 2.3819303022 0.7266340062 -0.1405317727
| 13> H -2.8238372311 1.7726882414 0.649141554
| 14> H -2.7578544118 0.1215529174 1.2700685919
| 15> H -1.3193438659 1.134674067 1.316431713
| 16> H -1.2725305598 1.16400042 -1.1931022048
| 17> H -2.7058853729 0.129295829 -1.2165898395
| 18> H -0.7184916327 -1.2330820965 -1.5783832799
| 19> H -1.4011396502 -1.6445422369 0.0153465699
| 20> H 2.7704739176 1.441631962 -0.8587122691
| 21> H 3.0385905108 -0.1399876962 -0.0548726677
| 22> H 2.2676744535 1.1818767962 0.8440955571
| 23> *
| 24>
| 25>                          ****END OF INPUT****

CARTESIAN COORDINATES (ANGSTROEM)
---------------------------------
  C     -2.202246    0.885084    0.730759
  C     -1.807629    0.382067   -0.652491
  C     -0.916622   -0.864398   -0.571488
  C      0.406892   -0.545015    0.072322
  O      0.807496   -1.011678    1.118683
  O      1.107379    0.325525   -0.646397
  C      2.381930    0.726634   -0.140532
  H     -2.823837    1.772688    0.649142
  H     -2.757854    0.121553    1.270069
  H     -1.319344    1.134674    1.316432
  H     -1.272531    1.164000   -1.193102
  H     -2.705885    0.129296   -1.216590
  H     -0.718492   -1.233082   -1.578383
  H     -1.401140   -1.644542    0.015347
  H      2.770474    1.441632   -0.858712
  H      3.038591   -0.139988   -0.054873
  H      2.267674    1.181877    0.844096

 Total Charge           Charge          ....    0
 Multiplicity           Mult            ....    1
 Number of Electrons    NEL             ....   56
 Basis Dimension        Dim             ....  193

ORBITAL ENERGIES
----------------

  NO   OCC          E(Eh)            E(eV)
   0   2.0000     -18.999934      -517.0145
   1   2.0000     -18.928997      -515.0842
   2   2.0000     -10.152021      -276.2505
   3   2.0000     -10.087841      -274.5041
   4   2.0000     -10.042333      -273.2658
   5   2.0000     -10.037855      -273.1439
   6   2.0000     -10.020591      -272.6741
   7   2.0000      -1.074170       -29.2296
   8   2.0000      -0.975653       -26.5489
   9   2.0000      -0.774795       -21.0832
  10   2.0000      -0.709411       -19.3041
  11   2.0000      -0.661417       -17.9981
  12   2.0000      -0.575496       -15.6600
  13   2.0000      -0.533971       -14.5301
  14   2.0000      -0.471260       -12.8236
  15   2.0000      -0.457265       -12.4428
  16   2.0000      -0.440080       -11.9752
  17   2.0000      -0.418326       -11.3832
  18   2.0000      -0.415997       -11.3198
  19   2.0000      -0.384226       -10.4553
  20   2.0000      -0.364413        -9.9162
  21   2.0000      -0.357774        -9.7355
  22   2.0000      -0.332062        -9.0359
  23   2.0000      -0.315978        -8.5982
  24   2.0000      -0.313267        -8.5244
  25   2.0000      -0.311055        -8.4642
  26   2.0000      -0.274508        -7.4697
  27   2.0000      -0.233391        -6.3509
  28   0.0000      -0.016780        -0.4566
  29   0.0000       0.061938         1.6854
  30   0.0000       0.094006         2.5580
  31   0.0000       0.112404         3.0587
  32   0.0000       0.122724         3.3395

MULLIKEN ATOMIC CHARGES
-----------------------
   0 C :   -0.479595
   1 C :   -0.230348
   2 C :   -0.302623
   3 C :    0.348621
   4 O :   -0.414117
   5 O :   -0.182749
   6 C :   -0.289256
   7 H :    0.147691
   8 H :    0.148860
   9 H :    0.155257
  10 H :    0.152542
  11 H :    0.146148
  12 H :    0.158355
  13 H :    0.168267
  14 H :    0.150110
  15 H :    0.161529
  16 H :    0.161309
Sum of atomic charges:   -0.0000000

LOEWDIN ATOMIC CHARGES
----------------------
   0 C :   -0.414786
   1 C :   -0.292893
   2 C :   -0.230931
   3 C :    0.346445
   4 O :   -0.420628
   5 O :   -0.608065
   6 C :   -0.044152
   7 H :    0.151868
   8 H :    0.153370
   9 H :    0.156190
  10 H :    0.163749
  11 H :    0.153343
  12 H :    0.179548
  13 H :    0.177524
  14 H :    0.175958
  15 H :    0.176796
  16 H :    0.176665

  Mayer bond orders larger than 0.100000
B(  0-C ,  1-C ) :   0.9146 B(  0-C ,  7-H ) :   0.9703 B(  0-C ,  8-H ) :   0.9778
B(  0-C ,  9-H ) :   0.9708 B(  1-C ,  2-C ) :   0.8843 B(  1-C , 10-H ) :   0.9730
B(  1-C , 11-H ) :   0.9644 B(  2-C ,  3-C ) :   0.9597 B(  2-C , 12-H ) :   0.9457
B(  2-C , 13-H ) :   1.0003 B(  3-C ,  4-O ) :   1.8335 B(  3-C ,  5-O ) :   1.0390
B(  5-O ,  6-C ) :   0.8532 B(  6-C , 14-H ) :   0.9692 B(  6-C , 15-H ) :   0.9632
B(  6-C , 16-H ) :   0.9621

Dispersion correction           -0.004168053
FINAL SINGLE POINT ENERGY      -346.931568850564

DIPOLE MOMENT
-------------

Method             : SCF
Type of density    : Electron Density
Multiplicity       :   1
Irrep              :   0
Energy             :  -346.9380384603222183 Eh
Relativity type    :
Basis              : AO
                                X                 Y                 Z
Electronic contribution:      4.525073108      -3.160301799       0.083966282
Nuclear contribution   :     -4.589591308       3.675049274      -0.749701227
                        -----------------------------------------
Total Dipole Moment    :     -0.064518201       0.514747475      -0.665734945
                        -----------------------------------------
Magnitude (a.u.)       :      0.843996788
Magnitude (Debye)      :      2.145269348

Rotational constants in cm-1:             0.147424             0.055028             0.051539
Rotational constants in MHz :          4419.661739          1649.686463          1545.088655

                             ****ORCA TERMINATED NORMALLY****
TOTAL RUN TIME: 0 days 0 hours 0 minutes 26 seconds 23 msec
