                         Program Version 6.0.0  -   RELEASE  -
|  1> ! r2scan-3c def2/J RI DEFGRID2 scfconv6 printgap
|  2> %output
|  3>     printlevel normal
|  4> end
|  5> %cpcm
|  6>     smd true
|  7>     smdsolvent "water"
|  8> end
|  9> * xyz 0 1
| 10> C -2.2022462909 0.8850841109 0.7307586062
| 11> C -1.8076289679 0.3820674911 -0.6524905023
| 12> C -0.9166222879 -0.8643983008 -0.5714882796
| 13> C 0.4068915392 -0.5450154904 0.0723218008
| 14> O 0.8074962745 -1.0116776789 1.1186830175
| 15> O 1.1073788618 0.3255250636 -0.6463974486
| 16> C 2.3819303022 0.7266340062 -0.1405317727
| 17> H -2.8238372311 1.7726882414 0.649141554
| 18> H -2.7578544118 0.1215529174 1.2700685919
| 19> H -1.3193438659 1.134674067 1.316431713
| 20> H -1.2725305598 1.16400042 -1.1931022048
| 21> H -2.7058853729 0.129295829 -1.2165898395
| 22> H -0.7184916327 -1.2330820965 -1.5783832799
| 23> H -1.4011396502 -1.6445422369 0.0153465699
| 24> H 2.7704739176 1.441631962 -0.8587122691
| 25> H 3.0385905108 -0.1399876962 -0.0548726677
| 26> H 2.2676744535 1.1818767962 0.8440955571
| 27> *
| 28>
| 29>                          ****END OF INPUT****

CARTESIAN COORDINATES (ANGSTROEM)
---------------------------------
  C     -2.202246    0.885084    0.730759
  C     -1.807629    0.382067   -0.652491
  C     -0.916622   -0.864398   -0.571488
  C      0.406892   -0.545015    0.072322
  O      0.807496   -1.011678    1.118683
  O      1.107379    0.325525   -0.646397
  C      2.381930    0.726634   -0.140532
  H     -2.823837    1.772688    0.649142
  H     -2.757854    0.121553    1.270069
  H     -1.319344    1.134674    1.316432
  H     -1.272531    1.164000   -1.193102
  H     -2.705885    0.129296   -1.216590
  H     -0.718492   -1.233082   -1.578383
  H     -1.401140   -1.644542    0.015347
  H      2.770474    1.441632   -0.858712
  H      3.038591   -0.139988   -0.054873
  H      2.267674    1.181877    0.844096

 Total Charge           Charge          ....    0
 Multiplicity           Mult            ....    1
 Number of Electrons    NEL             ....   56
 Basis Dimension        Dim             ....  193

ORBITAL ENERGIES
----------------

  NO   OCC          E(Eh)            E(eV)
   0   2.0000     -19.004261      -517.1322
   1   2.0000     -18.944725      -515.5122
   2   2.0000     -10.162214      -276.5279
   3   2.0000     -10.076784      -274.2032
   4   2.0000     -10.036032      -273.0943
   5   2.0000     -10.028974      -272.9023
   6   2.0000     -10.011748      -272.4335
   7   2.0000      -1.080368       -29.3983
   8   2.0000      -0.988997       -26.9120
   9   2.0000      -0.768948       -20.9241
  10   2.0000      -0.703855       -19.1529
  11   2.0000      -0.654368       -17.8063
  12   2.0000      -0.568916       -15.4810
  13   2.0000      -0.531167       -14.4538
  14   2.0000      -0.469328       -12.7711
  15   2.0000      -0.458430       -12.4745
  16   2.0000      -0.451361       -12.2822
  17   2.0000      -0.412095       -11.2137
  18   2.0000      -0.408007       -11.1024
  19   2.0000      -0.382571       -10.4103
  20   2.0000      -0.358636        -9.7590
  21   2.0000      -0.356926        -9.7124
  22   2.0000      -0.328959        -8.9514
  23   2.0000      -0.313918        -8.5421
  24   2.0000      -0.307502        -8.3675
  25   2.0000      -0.302901        -8.2424
  26   2.0000      -0.280317        -7.6278
  27   2.0000      -0.249057        -6.7772
  28   0.0000      -0.024443        -0.6651
  29   0.0000       0.068163         1.8548
  30   0.0000       0.102421         2.7870
  31   0.0000       0.122211         3.3255
  32   0.0000       0.130787         3.5589

MULLIKEN ATOMIC CHARGES
-----------------------
   0 C :   -0.527540
   1 C :   -0.222597
   2 C :   -0.324352
   3 C :    0.391383
   4 O :   -0.502340
   5 O :   -0.195560
   6 C :   -0.324990
   7 H :    0.161830
   8 H :    0.162833
   9 H :    0.161772
  10 H :    0.155935
  11 H :    0.163720
  12 H :    0.187268
  13 H :    0.178288
  14 H :    0.178369
  15 H :    0.178035
  16 H :    0.177946
Sum of atomic charges:   -0.0000000

LOEWDIN ATOMIC CHARGES
----------------------
   0 C :   -0.423042
   1 C :   -0.289371
   2 C :   -0.228982
   3 C :    0.356242
   4 O :   -0.483795
   5 O :   -0.607909
   6 C :   -0.041767
   7 H :    0.156425
   8 H :    0.156136
   9 H :    0.156030
  10 H :    0.164691
  11 H :    0.160351
  12 H :    0.190923
  13 H :    0.181525
  14 H :    0.188274
  15 H :    0.182070
  16 H :    0.182202

  Mayer bond orders larger than 0.100000
B(  0-C ,  1-C ) :   0.8985 B(  0-C ,  7-H ) :   0.9663 B(  0-C ,  8-H ) :   0.9768
B(  0-C ,  9-H ) :   0.9699 B(  1-C ,  2-C ) :   0.8754 B(  1-C , 10-H ) :   0.9724
B(  1-C , 11-H ) :   0.9613 B(  2-C ,  3-C ) :   0.9598 B(  2-C , 12-H ) :   0.9365
B(  2-C , 13-H ) :   0.9961 B(  3-C ,  4-O ) :   1.7634 B(  3-C ,  5-O ) :   1.0687
B(  5-O ,  6-C ) :   0.8331 B(  6-C , 14-H ) :   0.9593 B(  6-C , 15-H ) :   0.9578
B(  6-C , 16-H ) :   0.9569

Dispersion correction           -0.004168053
FINAL SINGLE POINT ENERGY      -346.936943355849

DIPOLE MOMENT
-------------

Method             : SCF
Type of density    : Electron Density
Multiplicity       :   1
Irrep              :   0
Energy             :  -346.9434129656075925 Eh
Relativity type    :
Basis              : AO
                                X                 Y                 Z
Electronic contribution:      4.466528635      -2.984689987      -0.225958840
Nuclear contribution   :     -4.589591308       3.675049274      -0.749701227
                        -----------------------------------------
Total Dipole Moment    :     -0.123062673       0.690359287      -0.975660067
                        -----------------------------------------
Magnitude (a.u.)       :      1.201521091
Magnitude (Debye)      :      3.054023907

Rotational constants in cm-1:             0.147424             0.055028             0.051539
Rotational constants in MHz :          4419.661739          1649.686463          1545.088655

                             ****ORCA TERMINATED NORMALLY****
TOTAL RUN TIME: 0 days 0 hours 0 minutes 30 seconds 224 msec
