                         Program Version 6.0.0  -   RELEASE  -
|  1> ! pbe def2-sv(p) def2/J RI DEFGRID1 loosescf d4 GCP(DFT/SV(P)) printgap
|  2> %output
|  3>     printlevel normal
|  4> end
|  5> * xyz 0 1
|  6> C -0.2803154641 2.151388908 -0.942734492
|  7> N -0.1012434901 0.7249210327 -0.7599830591
|  8> C -1.2499671717 -0.1056500662 -0.9419797063
|  9> C -2.1268459604 -0.2179452397 0.3140216027
| 10> F -3.1240424367 -1.1111956523 0.1414651559
| 11> F -1.4606990105 -0.6085147372 1.4104453207
| 12> F -2.7265575722 0.942621985 0.6386221229
| 13> C 1.1348016162 0.2090627935 -0.4170085309
| 14> C 2.2831736809 1.0041857813 -0.5175865445
| 15> C 3.527235313 0.5000155337 -0.1937302763
| 16> C 3.6736624806 -0.8080580245 0.2347959445
| 17> C 2.5464080704 -1.6036585856 0.3406412341
| 18> C 1.2954823114 -1.1087625542 0.0256376803
| 19> H 0.1931409048 2.6998270645 -0.1282194422
| 20> H -1.3410287774 2.3870755594 -0.9311943796
| 21> H 0.1427415681 2.4843185093 -1.8944935771
| 22> H -1.8940600665 0.3039331833 -1.7269607877
| 23> H -0.9620763926 -1.1210638188 -1.2247557634
| 24> H 2.2130347208 2.0217320573 -0.861836377
| 25> H 4.3939869683 1.1382675626 -0.2832941353
| 26> H 4.6472866429 -1.1996439223 0.4855000547
| 27> H 2.6358746445 -2.6248020701 0.681442524
| 28> H 0.4469525353 -1.7613218752 0.1556985891
| 29> *
| 30>
| 31>                          ****END OF INPUT****

CARTESIAN COORDINATES (ANGSTROEM)
---------------------------------
  C     -0.280315    2.151389   -0.942734
  N     -0.101243    0.724921   -0.759983
  C     -1.249967   -0.105650   -0.941980
  C     -2.126846   -0.217945    0.314022
  F     -3.124042   -1.111196    0.141465
  F     -1.460699   -0.608515    1.410445
  F     -2.726558    0.942622    0.638622
  C      1.134802    0.209063   -0.417009
  C      2.283174    1.004186   -0.517587
  C      3.527235    0.500016   -0.193730
  C      3.673662   -0.808058    0.234796
  C      2.546408   -1.603659    0.340641
  C      1.295482   -1.108763    0.025638
  H      0.193141    2.699827   -0.128219
  H     -1.341029    2.387076   -0.931194
  H      0.142742    2.484319   -1.894494
  H     -1.894060    0.303933   -1.726961
  H     -0.962076   -1.121064   -1.224756
  H      2.213035    2.021732   -0.861836
  H      4.393987    1.138268   -0.283294
  H      4.647287   -1.199644    0.485500
  H      2.635875   -2.624802    0.681443
  H      0.446953   -1.761322    0.155699

 Total Charge           Charge          ....    0
 Multiplicity           Mult            ....    1
 Number of Electrons    NEL             ....   98
 Basis Dimension        Dim             ....  202

ORBITAL ENERGIES
----------------

  NO   OCC          E(Eh)            E(eV)
   0   2.0000     -24.289717      -660.9568
   1   2.0000     -24.288872      -660.9338
   2   2.0000     -24.286111      -660.8587
   3   2.0000     -14.029861      -381.7719
   4   2.0000     -10.124711      -275.5074
   5   2.0000      -9.954080      -270.8643
   6   2.0000      -9.933017      -270.2911
   7   2.0000      -9.926114      -270.1033
   8   2.0000      -9.888390      -269.0768
   9   2.0000      -9.887783      -269.0603
  10   2.0000      -9.883873      -268.9539
  11   2.0000      -9.883275      -268.9376
  12   2.0000      -9.879810      -268.8433
  13   2.0000      -1.192149       -32.4400
  14   2.0000      -1.099582       -29.9211
  15   2.0000      -1.097002       -29.8509
  16   2.0000      -0.881724       -23.9929
  17   2.0000      -0.767043       -20.8723
  18   2.0000      -0.709213       -19.2987
  19   2.0000      -0.677043       -18.4233
  20   2.0000      -0.662872       -18.0377
  21   2.0000      -0.620780       -16.8923
  22   2.0000      -0.593618       -16.1532
  23   2.0000      -0.543297       -14.7839
  24   2.0000      -0.535377       -14.5683
  25   2.0000      -0.527705       -14.3596
  26   2.0000      -0.522578       -14.2201
  27   2.0000      -0.499325       -13.5873
  28   2.0000      -0.481710       -13.1080
  29   2.0000      -0.445831       -12.1317
  30   2.0000      -0.430975       -11.7274
  31   2.0000      -0.407196       -11.0804
  32   2.0000      -0.406610       -11.0644
  33   2.0000      -0.398722       -10.8498
  34   2.0000      -0.397898       -10.8274
  35   2.0000      -0.384303       -10.4574
  36   2.0000      -0.379793       -10.3347
  37   2.0000      -0.370519       -10.0823
  38   2.0000      -0.357753        -9.7349
  39   2.0000      -0.352507        -9.5922
  40   2.0000      -0.350629        -9.5411
  41   2.0000      -0.342458        -9.3187
  42   2.0000      -0.338435        -9.2093
  43   2.0000      -0.329129        -8.9560
  44   2.0000      -0.312205        -8.4955
  45   2.0000      -0.294899        -8.0246
  46   2.0000      -0.259412        -7.0590
  47   2.0000      -0.224256        -6.1023
  48   2.0000      -0.173733        -4.7275
  49   0.0000      -0.030066        -0.8181
  50   0.0000      -0.015144        -0.4121
  51   0.0000       0.032936         0.8962
  52   0.0000       0.048619         1.3230
  53   0.0000       0.061070         1.6618

MULLIKEN ATOMIC CHARGES
-----------------------
   0 C :   -0.175395
   1 N :   -0.247848
   2 C :   -0.130276
   3 C :    0.391288
   4 F :   -0.145671
   5 F :   -0.127688
   6 F :   -0.142531
   7 C :    0.256708
   8 C :   -0.166934
   9 C :   -0.055189
  10 C :   -0.047740
  11 C :   -0.061019
  12 C :   -0.162435
  13 H :    0.126229
  14 H :    0.122527
  15 H :    0.112465
  16 H :    0.121069
  17 H :    0.129503
  18 H :    0.030831
  19 H :    0.048207
  20 H :    0.044393
  21 H :    0.048968
  22 H :    0.030537
Sum of atomic charges:   -0.0000000

LOEWDIN ATOMIC CHARGES
----------------------
   0 C :   -0.251484
   1 N :   -0.058798
   2 C :   -0.185466
   3 C :    0.101960
   4 F :   -0.056535
   5 F :   -0.037947
   6 F :   -0.051455
   7 C :    0.009204
   8 C :   -0.165551
   9 C :   -0.115529
  10 C :   -0.154903
  11 C :   -0.115299
  12 C :   -0.165165
  13 H :    0.125124
  14 H :    0.122459
  15 H :    0.113291
  16 H :    0.136864
  17 H :    0.140611
  18 H :    0.123670
  19 H :    0.122335
  20 H :    0.120659
  21 H :    0.122928
  22 H :    0.119026

  Mayer bond orders larger than 0.100000
B(  0-C ,  1-N ) :   1.0197 B(  0-C , 13-H ) :   0.9419 B(  0-C , 14-H ) :   0.9402
B(  0-C , 15-H ) :   0.9414 B(  1-N ,  2-C ) :   1.0603 B(  1-N ,  7-C ) :   1.0974
B(  2-C ,  3-C ) :   1.0230 B(  2-C , 16-H ) :   0.8963 B(  2-C , 17-H ) :   0.8839
B(  3-C ,  4-F ) :   1.1512 B(  3-C ,  5-F ) :   1.1786 B(  3-C ,  6-F ) :   1.1526
B(  7-C ,  8-C ) :   1.3197 B(  7-C , 12-C ) :   1.3179 B(  8-C ,  9-C ) :   1.3846
B(  8-C , 18-H ) :   0.9550 B(  9-C , 10-C ) :   1.3686 B(  9-C , 19-H ) :   0.9609
B( 10-C , 11-C ) :   1.3649 B( 10-C , 20-H ) :   0.9684 B( 11-C , 12-C ) :   1.3978
B( 11-C , 21-H ) :   0.9597 B( 12-C , 22-H ) :   0.9486

Dispersion correction           -0.025602757
FINAL SINGLE POINT ENERGY      -701.830929603580

DIPOLE MOMENT
-------------

Method             : SCF
Type of density    : Electron Density
Multiplicity       :   1
Irrep              :   0
Energy             :  -701.9240342108906816 Eh
Relativity type    :
Basis              : AO
                                X                 Y                 Z
Electronic contribution:    -16.678944029      -4.391596993       6.703141495
Nuclear contribution   :     16.601668299       4.784686830      -7.407709636
                        -----------------------------------------
Total Dipole Moment    :     -0.077275730       0.393089837      -0.704568141
                        -----------------------------------------
Magnitude (a.u.)       :      0.810498257
Magnitude (Debye)      :      2.060122848

Rotational constants in cm-1:             0.054955             0.016005             0.013562
Rotational constants in MHz :          1647.495887           479.805807           406.575435

                             ****ORCA TERMINATED NORMALLY****
TOTAL RUN TIME: 0 days 0 hours 0 minutes 14 seconds 814 msec
