                         Program Version 6.0.0  -   RELEASE  -
|  1> ! r2scan-3c def2/J RI DEFGRID2 scfconv6 printgap
|  2> %output
|  3>     printlevel normal
|  4> end
|  5> * xyz 0 1
|  6> C -2.2024765928 1.0387800159 0.5883438039
|  7> C -2.0893213452 -0.301832463 -0.1273998153
|  8> C -0.8170746857 -0.3816539765 -0.9760656307
|  9> C 0.4146054068 -0.3912060736 -0.108873393
| 10> O 0.5878449174 -1.1073897855 0.8547693463
| 11> O 1.3189275418 0.4873213088 -0.5303123227
| 12> C 2.5509587232 0.569134947 0.1908198677
| 13> H -3.1220787895 1.0837024726 1.1654978071
| 14> H -1.3646719307 1.1768347832 1.2693491646
| 15> H -2.2023503031 1.8566050249 -0.1283024562
| 16> H -2.9544790613 -0.4461187126 -0.7748145703
| 17> H -2.0695216299 -1.1090363332 0.6071578168
| 18> H -0.7490345933 0.4582265104 -1.6665148299
| 19> H -0.8182105759 -1.3132942641 -1.5451232989
| 20> H 3.1625891593 1.2815904875 -0.3533134083
| 21> H 3.027236924 -0.4112349505 0.2283886689
| 22> H 2.3639239514 0.9113535584 1.2093322464
| 23> *
| 24>
| 25>                          ****END OF INPUT****

CARTESIAN COORDINATES (ANGSTROEM)
---------------------------------
  C     -2.202477    1.038780    0.588344
  C     -2.089321   -0.301832   -0.127400
  C     -0.817075   -0.381654   -0.976066
  C      0.414605   -0.391206   -0.108873
  O      0.587845   -1.107390    0.854769
  O      1.318928    0.487321   -0.530312
  C      2.550959    0.569135    0.190820
  H     -3.122079    1.083702    1.165498
  H     -1.364672    1.176835    1.269349
  H     -2.202350    1.856605   -0.128302
  H     -2.954479   -0.446119   -0.774815
  H     -2.069522   -1.109036    0.607158
  H     -0.749035    0.458227   -1.666515
  H     -0.818211   -1.313294   -1.545123
  H      3.162589    1.281590   -0.353313
  H      3.027237   -0.411235    0.228389
  H      2.363924    0.911354    1.209332

 Total Charge           Charge          ....    0
 Multiplicity           Mult            ....    1
 Number of Electrons    NEL             ....   56
 Basis Dimension        Dim             ....  193

ORBITAL ENERGIES
----------------

  NO   OCC          E(Eh)            E(eV)
   0   2.0000     -19.000561      -517.0315
   1   2.0000     -18.929705      -515.1035
   2   2.0000     -10.152582      -276.2658
   3   2.0000     -10.087209      -274.4869
   4   2.0000     -10.042085      -273.2590
   5   2.0000     -10.033947      -273.0376
   6   2.0000     -10.019516      -272.6449
   7   2.0000      -1.073939       -29.2234
   8   2.0000      -0.976861       -26.5817
   9   2.0000      -0.771700       -20.9990
  10   2.0000      -0.711521       -19.3615
  11   2.0000      -0.660609       -17.9761
  12   2.0000      -0.574467       -15.6320
  13   2.0000      -0.527034       -14.3413
  14   2.0000      -0.472662       -12.8618
  15   2.0000      -0.459042       -12.4912
  16   2.0000      -0.444302       -12.0901
  17   2.0000      -0.420063       -11.4305
  18   2.0000      -0.412765       -11.2319
  19   2.0000      -0.376606       -10.2480
  20   2.0000      -0.372203       -10.1281
  21   2.0000      -0.356608        -9.7038
  22   2.0000      -0.328670        -8.9436
  23   2.0000      -0.311232        -8.4691
  24   2.0000      -0.310834        -8.4582
  25   2.0000      -0.308897        -8.4055
  26   2.0000      -0.275411        -7.4943
  27   2.0000      -0.237881        -6.4731
  28   0.0000      -0.017119        -0.4658
  29   0.0000       0.065431         1.7805
  30   0.0000       0.090387         2.4596
  31   0.0000       0.111442         3.0325
  32   0.0000       0.126624         3.4456

MULLIKEN ATOMIC CHARGES
-----------------------
   0 C :   -0.493814
   1 C :   -0.211815
   2 C :   -0.294008
   3 C :    0.335998
   4 O :   -0.418370
   5 O :   -0.181325
   6 C :   -0.296119
   7 H :    0.148603
   8 H :    0.156456
   9 H :    0.145457
  10 H :    0.143536
  11 H :    0.160656
  12 H :    0.164323
  13 H :    0.166617
  14 H :    0.150598
  15 H :    0.163465
  16 H :    0.159743
Sum of atomic charges:   -0.0000000

LOEWDIN ATOMIC CHARGES
----------------------
   0 C :   -0.416639
   1 C :   -0.294345
   2 C :   -0.232641
   3 C :    0.350036
   4 O :   -0.427900
   5 O :   -0.603635
   6 C :   -0.045386
   7 H :    0.153047
   8 H :    0.155996
   9 H :    0.150224
  10 H :    0.152902
  11 H :    0.168128
  12 H :    0.177687
  13 H :    0.182510
  14 H :    0.176225
  15 H :    0.177941
  16 H :    0.175851

  Mayer bond orders larger than 0.100000
B(  0-C ,  1-C ) :   0.9069 B(  0-C ,  7-H ) :   0.9687 B(  0-C ,  8-H ) :   0.9734
B(  0-C ,  9-H ) :   0.9821 B(  1-C ,  2-C ) :   0.8919 B(  1-C , 10-H ) :   0.9653
B(  1-C , 11-H ) :   0.9647 B(  2-C ,  3-C ) :   0.9441 B(  2-C , 12-H ) :   1.0026
B(  2-C , 13-H ) :   0.9305 B(  3-C ,  4-O ) :   1.8182 B(  3-C ,  5-O ) :   1.0570
B(  5-O ,  6-C ) :   0.8532 B(  6-C , 14-H ) :   0.9689 B(  6-C , 15-H ) :   0.9629
B(  6-C , 16-H ) :   0.9620

Dispersion correction           -0.004109883
FINAL SINGLE POINT ENERGY      -346.932476844721

DIPOLE MOMENT
-------------

Method             : SCF
Type of density    : Electron Density
Multiplicity       :   1
Irrep              :   0
Energy             :  -346.9390302999594837 Eh
Relativity type    :
Basis              : AO
                                X                 Y                 Z
Electronic contribution:      4.497180428      -2.747399613      -0.503405547
Nuclear contribution   :     -4.406068031       3.263723676       0.015746797
                        -----------------------------------------
Total Dipole Moment    :      0.091112397       0.516324063      -0.487658750
                        -----------------------------------------
Magnitude (a.u.)       :      0.716032865
Magnitude (Debye)      :      1.820010904

Rotational constants in cm-1:             0.167791             0.050850             0.048813
Rotational constants in MHz :          5030.242761          1524.453028          1463.362059

                             ****ORCA TERMINATED NORMALLY****
TOTAL RUN TIME: 0 days 0 hours 0 minutes 25 seconds 630 msec
