                         Program Version 6.0.0  -   RELEASE  -
|  1> ! r2scan-3c def2/J RI DEFGRID2 scfconv6 printgap
|  2> %output
|  3>     printlevel normal
|  4> end
|  5> %cpcm
|  6>     smd true
|  7>     smdsolvent "water"
|  8> end
|  9> * xyz 0 1
| 10> C -2.2024765928 1.0387800159 0.5883438039
| 11> C -2.0893213452 -0.301832463 -0.1273998153
| 12> C -0.8170746857 -0.3816539765 -0.9760656307
| 13> C 0.4146054068 -0.3912060736 -0.108873393
| 14> O 0.5878449174 -1.1073897855 0.8547693463
| 15> O 1.3189275418 0.4873213088 -0.5303123227
| 16> C 2.5509587232 0.569134947 0.1908198677
| 17> H -3.1220787895 1.0837024726 1.1654978071
| 18> H -1.3646719307 1.1768347832 1.2693491646
| 19> H -2.2023503031 1.8566050249 -0.1283024562
| 20> H -2.9544790613 -0.4461187126 -0.7748145703
| 21> H -2.0695216299 -1.1090363332 0.6071578168
| 22> H -0.7490345933 0.4582265104 -1.6665148299
| 23> H -0.8182105759 -1.3132942641 -1.5451232989
| 24> H 3.1625891593 1.2815904875 -0.3533134083
| 25> H 3.027236924 -0.4112349505 0.2283886689
| 26> H 2.3639239514 0.9113535584 1.2093322464
| 27> *
| 28>
| 29>                          ****END OF INPUT****

CARTESIAN COORDINATES (ANGSTROEM)
---------------------------------
  C     -2.202477    1.038780    0.588344
  C     -2.089321   -0.301832   -0.127400
  C     -0.817075   -0.381654   -0.976066
  C      0.414605   -0.391206   -0.108873
  O      0.587845   -1.107390    0.854769
  O      1.318928    0.487321   -0.530312
  C      2.550959    0.569135    0.190820
  H     -3.122079    1.083702    1.165498
  H     -1.364672    1.176835    1.269349
  H     -2.202350    1.856605   -0.128302
  H     -2.954479   -0.446119   -0.774815
  H     -2.069522   -1.109036    0.607158
  H     -0.749035    0.458227   -1.666515
  H     -0.818211   -1.313294   -1.545123
  H      3.162589    1.281590   -0.353313
  H      3.027237   -0.411235    0.228389
  H      2.363924    0.911354    1.209332

 Total Charge           Charge          ....    0
 Multiplicity           Mult            ....    1
 Number of Electrons    NEL             ....   56
 Basis Dimension        Dim             ....  193

ORBITAL ENERGIES
----------------

  NO   OCC          E(Eh)            E(eV)
   0   2.0000     -19.005341      -517.1616
   1   2.0000     -18.944865      -515.5160
   2   2.0000     -10.162498      -276.5356
   3   2.0000     -10.076441      -274.1939
   4   2.0000     -10.035760      -273.0869
   5   2.0000     -10.027621      -272.8654
   6   2.0000     -10.011366      -272.4231
   7   2.0000      -1.080379       -29.3986
   8   2.0000      -0.989723       -26.9317
   9   2.0000      -0.766961       -20.8701
  10   2.0000      -0.706794       -19.2328
  11   2.0000      -0.653866       -17.7926
  12   2.0000      -0.568351       -15.4656
  13   2.0000      -0.525439       -14.2979
  14   2.0000      -0.473277       -12.8785
  15   2.0000      -0.460084       -12.5195
  16   2.0000      -0.451106       -12.2752
  17   2.0000      -0.414631       -11.2827
  18   2.0000      -0.411215       -11.1897
  19   2.0000      -0.372168       -10.1272
  20   2.0000      -0.366120        -9.9626
  21   2.0000      -0.356973        -9.7137
  22   2.0000      -0.328071        -8.9273
  23   2.0000      -0.306144        -8.3306
  24   2.0000      -0.305344        -8.3088
  25   2.0000      -0.303145        -8.2490
  26   2.0000      -0.282450        -7.6859
  27   2.0000      -0.253838        -6.9073
  28   0.0000      -0.024253        -0.6599
  29   0.0000       0.070127         1.9083
  30   0.0000       0.097759         2.6602
  31   0.0000       0.122771         3.3408
  32   0.0000       0.133710         3.6384

MULLIKEN ATOMIC CHARGES
-----------------------
   0 C :   -0.527996
   1 C :   -0.222594
   2 C :   -0.309778
   3 C :    0.381118
   4 O :   -0.503816
   5 O :   -0.198544
   6 C :   -0.331356
   7 H :    0.161222
   8 H :    0.161594
   9 H :    0.161394
  10 H :    0.162739
  11 H :    0.153536
  12 H :    0.180030
  13 H :    0.196828
  14 H :    0.178490
  15 H :    0.177834
  16 H :    0.179298
Sum of atomic charges:    0.0000000

LOEWDIN ATOMIC CHARGES
----------------------
   0 C :   -0.423733
   1 C :   -0.293959
   2 C :   -0.229568
   3 C :    0.360507
   4 O :   -0.488705
   5 O :   -0.605636
   6 C :   -0.042997
   7 H :    0.156164
   8 H :    0.156125
   9 H :    0.155627
  10 H :    0.160428
  11 H :    0.163703
  12 H :    0.185327
  13 H :    0.193331
  14 H :    0.188393
  15 H :    0.182727
  16 H :    0.182266

  Mayer bond orders larger than 0.100000
B(  0-C ,  1-C ) :   0.9019 B(  0-C ,  7-H ) :   0.9660 B(  0-C ,  8-H ) :   0.9711
B(  0-C ,  9-H ) :   0.9782 B(  1-C ,  2-C ) :   0.8768 B(  1-C , 10-H ) :   0.9610
B(  1-C , 11-H ) :   0.9701 B(  2-C ,  3-C ) :   0.9476 B(  2-C , 12-H ) :   0.9922
B(  2-C , 13-H ) :   0.9231 B(  3-C ,  4-O ) :   1.7527 B(  3-C ,  5-O ) :   1.0808
B(  5-O ,  6-C ) :   0.8338 B(  6-C , 14-H ) :   0.9590 B(  6-C , 15-H ) :   0.9576
B(  6-C , 16-H ) :   0.9562

Dispersion correction           -0.004109883
FINAL SINGLE POINT ENERGY      -346.937579389616

DIPOLE MOMENT
-------------

Method             : SCF
Type of density    : Electron Density
Multiplicity       :   1
Irrep              :   0
Energy             :  -346.9441328448541526 Eh
Relativity type    :
Basis              : AO
                                X                 Y                 Z
Electronic contribution:      4.507093814      -2.526088421      -0.777206322
Nuclear contribution   :     -4.406068031       3.263723676       0.015746797
                        -----------------------------------------
Total Dipole Moment    :      0.101025783       0.737635255      -0.761459524
                        -----------------------------------------
Magnitude (a.u.)       :      1.064956612
Magnitude (Debye)      :      2.706904586

Rotational constants in cm-1:             0.167791             0.050850             0.048813
Rotational constants in MHz :          5030.242761          1524.453028          1463.362059

                             ****ORCA TERMINATED NORMALLY****
TOTAL RUN TIME: 0 days 0 hours 0 minutes 29 seconds 847 msec
