                         Program Version 6.0.0  -   RELEASE  -
|  1> ! r2scan-3c def2/J RI DEFGRID2 scfconv6 printgap
|  2> %output
|  3>     printlevel normal
|  4> end
|  5> * xyz 0 1
|  6> C -3.2016739574 0.54186052 0.0368176786
|  7> C -1.8072330774 0.2576832256 -0.5058829472
|  8> C -0.8049002717 0.0235320714 0.6310737042
|  9> C 0.5428520341 -0.3488532121 0.0742832497
| 10> O 0.7616995566 -1.3158291665 -0.6258046088
| 11> O 1.4786786873 0.5201969649 0.4369303098
| 12> C 2.8203065334 0.3141652414 -0.016611989
| 13> H -3.1893938251 1.4230258645 0.6732249525
| 14> H -3.893957416 0.7168040016 -0.7821004101
| 15> H -3.5632170416 -0.3010371075 0.6201042209
| 16> H -1.4704109386 1.1000585255 -1.1133436148
| 17> H -1.8252353164 -0.6283884565 -1.1434690921
| 18> H -1.1551008112 -0.8059827287 1.2478237207
| 19> H -0.6986234465 0.9160372412 1.2461443027
| 20> H 3.4689682175 0.6996236613 0.7649038595
| 21> H 2.9715241891 0.8632300742 -0.9458391725
| 22> H 2.995722535 -0.7486142318 -0.1871504959
| 23> *
| 24>
| 25>                          ****END OF INPUT****

CARTESIAN COORDINATES (ANGSTROEM)
---------------------------------
  C     -3.201674    0.541861    0.036818
  C     -1.807233    0.257683   -0.505883
  C     -0.804900    0.023532    0.631074
  C      0.542852   -0.348853    0.074283
  O      0.761700   -1.315829   -0.625805
  O      1.478679    0.520197    0.436930
  C      2.820307    0.314165   -0.016612
  H     -3.189394    1.423026    0.673225
  H     -3.893957    0.716804   -0.782100
  H     -3.563217   -0.301037    0.620104
  H     -1.470411    1.100059   -1.113344
  H     -1.825235   -0.628388   -1.143469
  H     -1.155101   -0.805983    1.247824
  H     -0.698623    0.916037    1.246144
  H      3.468968    0.699624    0.764904
  H      2.971524    0.863230   -0.945839
  H      2.995723   -0.748614   -0.187150

 Total Charge           Charge          ....    0
 Multiplicity           Mult            ....    1
 Number of Electrons    NEL             ....   56
 Basis Dimension        Dim             ....  193

ORBITAL ENERGIES
----------------

  NO   OCC          E(Eh)            E(eV)
   0   2.0000     -19.000123      -517.0196
   1   2.0000     -18.927720      -515.0495
   2   2.0000     -10.152161      -276.2544
   3   2.0000     -10.085934      -274.4522
   4   2.0000     -10.041634      -273.2468
   5   2.0000     -10.036062      -273.0951
   6   2.0000     -10.022550      -272.7275
   7   2.0000      -1.072876       -29.1944
   8   2.0000      -0.975788       -26.5525
   9   2.0000      -0.772020       -21.0077
  10   2.0000      -0.713865       -19.4252
  11   2.0000      -0.661195       -17.9920
  12   2.0000      -0.571228       -15.5439
  13   2.0000      -0.531889       -14.4734
  14   2.0000      -0.470081       -12.7915
  15   2.0000      -0.456478       -12.4214
  16   2.0000      -0.447825       -12.1859
  17   2.0000      -0.427188       -11.6244
  18   2.0000      -0.398734       -10.8501
  19   2.0000      -0.389658       -10.6031
  20   2.0000      -0.371083       -10.0977
  21   2.0000      -0.350957        -9.5500
  22   2.0000      -0.332753        -9.0547
  23   2.0000      -0.316355        -8.6084
  24   2.0000      -0.310708        -8.4548
  25   2.0000      -0.306272        -8.3341
  26   2.0000      -0.272952        -7.4274
  27   2.0000      -0.236769        -6.4428
  28   0.0000      -0.015304        -0.4164
  29   0.0000       0.068013         1.8507
  30   0.0000       0.098487         2.6800
  31   0.0000       0.103144         2.8067
  32   0.0000       0.130678         3.5559

MULLIKEN ATOMIC CHARGES
-----------------------
   0 C :   -0.469417
   1 C :   -0.229304
   2 C :   -0.334479
   3 C :    0.412839
   4 O :   -0.435749
   5 O :   -0.194060
   6 C :   -0.298020
   7 H :    0.142500
   8 H :    0.150728
   9 H :    0.145452
  10 H :    0.137952
  11 H :    0.166500
  12 H :    0.163383
  13 H :    0.161574
  14 H :    0.148869
  15 H :    0.151265
  16 H :    0.179967
Sum of atomic charges:   -0.0000000

LOEWDIN ATOMIC CHARGES
----------------------
   0 C :   -0.420520
   1 C :   -0.289315
   2 C :   -0.229968
   3 C :    0.356400
   4 O :   -0.436060
   5 O :   -0.603367
   6 C :   -0.045869
   7 H :    0.150293
   8 H :    0.153184
   9 H :    0.150927
  10 H :    0.155449
  11 H :    0.165917
  12 H :    0.179882
  13 H :    0.176835
  14 H :    0.175226
  15 H :    0.172652
  16 H :    0.188332

  Mayer bond orders larger than 0.100000
B(  0-C ,  1-C ) :   0.8924 B(  0-C ,  7-H ) :   0.9802 B(  0-C ,  8-H ) :   0.9733
B(  0-C ,  9-H ) :   0.9869 B(  1-C ,  2-C ) :   0.9271 B(  1-C , 10-H ) :   0.9579
B(  1-C , 11-H ) :   0.9638 B(  2-C ,  3-C ) :   0.9773 B(  2-C , 12-H ) :   0.9585
B(  2-C , 13-H ) :   0.9795 B(  3-C ,  4-O ) :   1.8224 B(  3-C ,  5-O ) :   1.0592
B(  5-O ,  6-C ) :   0.8445 B(  6-C , 14-H ) :   0.9694 B(  6-C , 15-H ) :   0.9606
B(  6-C , 16-H ) :   0.9657

Dispersion correction           -0.003911456
FINAL SINGLE POINT ENERGY      -346.930521172277

DIPOLE MOMENT
-------------

Method             : SCF
Type of density    : Electron Density
Multiplicity       :   1
Irrep              :   0
Energy             :  -346.9373280124490861 Eh
Relativity type    :
Basis              : AO
                                X                 Y                 Z
Electronic contribution:      6.009755156      -2.364374646      -0.014186693
Nuclear contribution   :     -5.933268131       3.022946608       0.353983085
                        -----------------------------------------
Total Dipole Moment    :      0.076487025       0.658571962       0.339796392
                        -----------------------------------------
Magnitude (a.u.)       :      0.745002605
Magnitude (Debye)      :      1.893646131

Rotational constants in cm-1:             0.238892             0.041265             0.037924
Rotational constants in MHz :          7161.800549          1237.080479          1136.944011

                             ****ORCA TERMINATED NORMALLY****
TOTAL RUN TIME: 0 days 0 hours 0 minutes 25 seconds 56 msec
