                         Program Version 6.0.0  -   RELEASE  -
|  1> ! r2scan-3c def2/J RI DEFGRID2 scfconv6 printgap
|  2> %output
|  3>     printlevel normal
|  4> end
|  5> %cpcm
|  6>     smd true
|  7>     smdsolvent "water"
|  8> end
|  9> * xyz 0 1
| 10> C -3.2016739574 0.54186052 0.0368176786
| 11> C -1.8072330774 0.2576832256 -0.5058829472
| 12> C -0.8049002717 0.0235320714 0.6310737042
| 13> C 0.5428520341 -0.3488532121 0.0742832497
| 14> O 0.7616995566 -1.3158291665 -0.6258046088
| 15> O 1.4786786873 0.5201969649 0.4369303098
| 16> C 2.8203065334 0.3141652414 -0.016611989
| 17> H -3.1893938251 1.4230258645 0.6732249525
| 18> H -3.893957416 0.7168040016 -0.7821004101
| 19> H -3.5632170416 -0.3010371075 0.6201042209
| 20> H -1.4704109386 1.1000585255 -1.1133436148
| 21> H -1.8252353164 -0.6283884565 -1.1434690921
| 22> H -1.1551008112 -0.8059827287 1.2478237207
| 23> H -0.6986234465 0.9160372412 1.2461443027
| 24> H 3.4689682175 0.6996236613 0.7649038595
| 25> H 2.9715241891 0.8632300742 -0.9458391725
| 26> H 2.995722535 -0.7486142318 -0.1871504959
| 27> *
| 28>
| 29>                          ****END OF INPUT****

CARTESIAN COORDINATES (ANGSTROEM)
---------------------------------
  C     -3.201674    0.541861    0.036818
  C     -1.807233    0.257683   -0.505883
  C     -0.804900    0.023532    0.631074
  C      0.542852   -0.348853    0.074283
  O      0.761700   -1.315829   -0.625805
  O      1.478679    0.520197    0.436930
  C      2.820307    0.314165   -0.016612
  H     -3.189394    1.423026    0.673225
  H     -3.893957    0.716804   -0.782100
  H     -3.563217   -0.301037    0.620104
  H     -1.470411    1.100059   -1.113344
  H     -1.825235   -0.628388   -1.143469
  H     -1.155101   -0.805983    1.247824
  H     -0.698623    0.916037    1.246144
  H      3.468968    0.699624    0.764904
  H      2.971524    0.863230   -0.945839
  H      2.995723   -0.748614   -0.187150

 Total Charge           Charge          ....    0
 Multiplicity           Mult            ....    1
 Number of Electrons    NEL             ....   56
 Basis Dimension        Dim             ....  193

ORBITAL ENERGIES
----------------

  NO   OCC          E(Eh)            E(eV)
   0   2.0000     -19.005109      -517.1553
   1   2.0000     -18.943267      -515.4725
   2   2.0000     -10.162324      -276.5309
   3   2.0000     -10.075490      -274.1680
   4   2.0000     -10.035142      -273.0701
   5   2.0000     -10.028651      -272.8935
   6   2.0000     -10.011557      -272.4283
   7   2.0000      -1.079478       -29.3741
   8   2.0000      -0.989107       -26.9150
   9   2.0000      -0.766151       -20.8480
  10   2.0000      -0.708524       -19.2799
  11   2.0000      -0.653627       -17.7861
  12   2.0000      -0.563759       -15.3407
  13   2.0000      -0.529688       -14.4135
  14   2.0000      -0.470954       -12.8153
  15   2.0000      -0.459022       -12.4906
  16   2.0000      -0.450526       -12.2594
  17   2.0000      -0.425473       -11.5777
  18   2.0000      -0.392638       -10.6842
  19   2.0000      -0.386925       -10.5288
  20   2.0000      -0.366277        -9.9669
  21   2.0000      -0.345745        -9.4082
  22   2.0000      -0.328815        -8.9475
  23   2.0000      -0.314814        -8.5665
  24   2.0000      -0.305222        -8.3055
  25   2.0000      -0.297553        -8.0968
  26   2.0000      -0.280254        -7.6261
  27   2.0000      -0.252703        -6.8764
  28   0.0000      -0.022749        -0.6190
  29   0.0000       0.072885         1.9833
  30   0.0000       0.106149         2.8885
  31   0.0000       0.113676         3.0933
  32   0.0000       0.139769         3.8033

MULLIKEN ATOMIC CHARGES
-----------------------
   0 C :   -0.514078
   1 C :   -0.226676
   2 C :   -0.353632
   3 C :    0.453276
   4 O :   -0.520690
   5 O :   -0.210221
   6 C :   -0.320723
   7 H :    0.157370
   8 H :    0.161492
   9 H :    0.158947
  10 H :    0.155572
  11 H :    0.158321
  12 H :    0.189755
  13 H :    0.176515
  14 H :    0.175852
  15 H :    0.179190
  16 H :    0.179732
Sum of atomic charges:   -0.0000000

LOEWDIN ATOMIC CHARGES
----------------------
   0 C :   -0.425699
   1 C :   -0.288802
   2 C :   -0.227248
   3 C :    0.366088
   4 O :   -0.497773
   5 O :   -0.604822
   6 C :   -0.041560
   7 H :    0.154840
   8 H :    0.155993
   9 H :    0.154560
  10 H :    0.160558
  11 H :    0.162017
  12 H :    0.189183
  13 H :    0.184250
  14 H :    0.187128
  15 H :    0.182817
  16 H :    0.188470

  Mayer bond orders larger than 0.100000
B(  0-C ,  1-C ) :   0.8881 B(  0-C ,  7-H ) :   0.9781 B(  0-C ,  8-H ) :   0.9701
B(  0-C ,  9-H ) :   0.9838 B(  1-C ,  2-C ) :   0.9133 B(  1-C , 10-H ) :   0.9570
B(  1-C , 11-H ) :   0.9650 B(  2-C ,  3-C ) :   0.9778 B(  2-C , 12-H ) :   0.9502
B(  2-C , 13-H ) :   0.9717 B(  3-C ,  4-O ) :   1.7580 B(  3-C ,  5-O ) :   1.0848
B(  5-O ,  6-C ) :   0.8289 B(  6-C , 14-H ) :   0.9595 B(  6-C , 15-H ) :   0.9526
B(  6-C , 16-H ) :   0.9618

Dispersion correction           -0.003911456
FINAL SINGLE POINT ENERGY      -346.935156620832

DIPOLE MOMENT
-------------

Method             : SCF
Type of density    : Electron Density
Multiplicity       :   1
Irrep              :   0
Energy             :  -346.9419634610039793 Eh
Relativity type    :
Basis              : AO
                                X                 Y                 Z
Electronic contribution:      6.031242775      -2.070444408       0.176791188
Nuclear contribution   :     -5.933268131       3.022946608       0.353983085
                        -----------------------------------------
Total Dipole Moment    :      0.097974645       0.952502200       0.530774272
                        -----------------------------------------
Magnitude (a.u.)       :      1.094797150
Magnitude (Debye)      :      2.782753207

Rotational constants in cm-1:             0.238892             0.041265             0.037924
Rotational constants in MHz :          7161.800549          1237.080479          1136.944011

                             ****ORCA TERMINATED NORMALLY****
TOTAL RUN TIME: 0 days 0 hours 0 minutes 30 seconds 504 msec
