                         Program Version 6.0.0  -   RELEASE  -
|  1> ! pbe def2-sv(p) def2/J RI DEFGRID1 loosescf d4 GCP(DFT/SV(P)) printgap
|  2> %output
|  3>     printlevel normal
|  4> end
|  5> * xyz 0 1
|  6> C -3.1673408813 0.5655708271 0.1309494842
|  7> C -1.8011035801 -0.0392612115 0.4262949214
|  8> C -0.7566376976 0.4178314406 -0.6020554911
|  9> C 0.560874002 -0.2479093463 -0.3108327104
| 10> O 0.7952431817 -1.4254800748 -0.4895101018
| 11> O 1.4342175902 0.6084545827 0.2034055706
| 12> C 2.7334995674 0.1402685614 0.5801875744
| 13> H -3.8913353345 0.2325358593 0.8693980723
| 14> H -3.1172190031 1.6508520382 0.1605356894
| 15> H -3.5137213193 0.2619471947 -0.8534563821
| 16> H -1.8614750031 -1.1292243655 0.4038364026
| 17> H -1.4747292085 0.2593244889 1.4244871399
| 18> H -0.6272205587 1.4981657668 -0.557924959
| 19> H -1.0814957492 0.1201433345 -1.5994616787
| 20> H 2.9219384345 0.4964257704 1.5903347925
| 21> H 3.4613386154 0.5600247655 -0.1125040853
| 22> H 2.7598752674 -0.9491898931 0.5405209707
| 23> *
| 24>
| 25>                          ****END OF INPUT****

CARTESIAN COORDINATES (ANGSTROEM)
---------------------------------
  C     -3.167341    0.565571    0.130949
  C     -1.801104   -0.039261    0.426295
  C     -0.756638    0.417831   -0.602055
  C      0.560874   -0.247909   -0.310833
  O      0.795243   -1.425480   -0.489510
  O      1.434218    0.608455    0.203406
  C      2.733500    0.140269    0.580188
  H     -3.891335    0.232536    0.869398
  H     -3.117219    1.650852    0.160536
  H     -3.513721    0.261947   -0.853456
  H     -1.861475   -1.129224    0.403836
  H     -1.474729    0.259324    1.424487
  H     -0.627221    1.498166   -0.557925
  H     -1.081496    0.120143   -1.599462
  H      2.921938    0.496426    1.590335
  H      3.461339    0.560025   -0.112504
  H      2.759875   -0.949190    0.540521

 Total Charge           Charge          ....    0
 Multiplicity           Mult            ....    1
 Number of Electrons    NEL             ....   56
 Basis Dimension        Dim             ....  118

ORBITAL ENERGIES
----------------

  NO   OCC          E(Eh)            E(eV)
   0   2.0000     -18.798931      -511.5449
   1   2.0000     -18.729568      -509.6574
   2   2.0000     -10.003911      -272.2203
   3   2.0000      -9.939286      -270.4617
   4   2.0000      -9.896033      -269.2847
   5   2.0000      -9.894577      -269.2451
   6   2.0000      -9.879980      -268.8479
   7   2.0000      -1.003592       -27.3091
   8   2.0000      -0.907177       -24.6855
   9   2.0000      -0.726333       -19.7645
  10   2.0000      -0.673473       -18.3261
  11   2.0000      -0.620942       -16.8967
  12   2.0000      -0.537009       -14.6127
  13   2.0000      -0.504943       -13.7402
  14   2.0000      -0.448170       -12.1953
  15   2.0000      -0.434418       -11.8211
  16   2.0000      -0.427402       -11.6302
  17   2.0000      -0.402618       -10.9558
  18   2.0000      -0.382613       -10.4114
  19   2.0000      -0.374153       -10.1812
  20   2.0000      -0.351020        -9.5517
  21   2.0000      -0.338052        -9.1989
  22   2.0000      -0.319794        -8.7020
  23   2.0000      -0.302089        -8.2203
  24   2.0000      -0.297335        -8.0909
  25   2.0000      -0.291286        -7.9263
  26   2.0000      -0.253737        -6.9045
  27   2.0000      -0.217320        -5.9136
  28   0.0000      -0.017538        -0.4772
  29   0.0000       0.041186         1.1207
  30   0.0000       0.058775         1.5994
  31   0.0000       0.078388         2.1330
  32   0.0000       0.082792         2.2529

MULLIKEN ATOMIC CHARGES
-----------------------
   0 C :   -0.245741
   1 C :   -0.235184
   2 C :   -0.130304
   3 C :    0.108554
   4 O :   -0.209121
   5 O :   -0.240755
   6 C :   -0.130052
   7 H :    0.107307
   8 H :    0.098736
   9 H :    0.100462
  10 H :    0.108625
  11 H :    0.094954
  12 H :    0.092377
  13 H :    0.103987
  14 H :    0.121509
  15 H :    0.121787
  16 H :    0.132859
Sum of atomic charges:   -0.0000000

LOEWDIN ATOMIC CHARGES
----------------------
   0 C :   -0.339222
   1 C :   -0.224694
   2 C :   -0.243165
   3 C :    0.036403
   4 O :   -0.174547
   5 O :   -0.074377
   6 C :   -0.209557
   7 H :    0.121994
   8 H :    0.117894
   9 H :    0.119044
  10 H :    0.123705
  11 H :    0.118265
  12 H :    0.127000
  13 H :    0.136691
  14 H :    0.120264
  15 H :    0.120236
  16 H :    0.124067

  Mayer bond orders larger than 0.100000
B(  0-C ,  1-C ) :   1.1579 B(  0-C ,  7-H ) :   0.9520 B(  0-C ,  8-H ) :   0.9529
B(  0-C ,  9-H ) :   0.9539 B(  1-C ,  2-C ) :   1.1273 B(  1-C , 10-H ) :   0.9244
B(  1-C , 11-H ) :   0.9289 B(  2-C ,  3-C ) :   1.0150 B(  2-C , 12-H ) :   0.9061
B(  2-C , 13-H ) :   0.8990 B(  3-C ,  4-O ) :   2.0637 B(  3-C ,  5-O ) :   1.2166
B(  5-O ,  6-C ) :   0.9360 B(  6-C , 14-H ) :   0.9609 B(  6-C , 15-H ) :   0.9608
B(  6-C , 16-H ) :   0.9288

Dispersion correction           -0.011759160
FINAL SINGLE POINT ENERGY      -346.238718903511

DIPOLE MOMENT
-------------

Method             : SCF
Type of density    : Electron Density
Multiplicity       :   1
Irrep              :   0
Energy             :  -346.3035119502579278 Eh
Relativity type    :
Basis              : AO
                                X                 Y                 Z
Electronic contribution:      6.092017878      -2.161094902      -1.465018868
Nuclear contribution   :     -5.993772914       2.803331077       1.746158601
                        -----------------------------------------
Total Dipole Moment    :      0.098244963       0.642236174       0.281139733
                        -----------------------------------------
Magnitude (a.u.)       :      0.707925791
Magnitude (Debye)      :      1.799404360

Rotational constants in cm-1:             0.221833             0.042214             0.038734
Rotational constants in MHz :          6650.374099          1265.537214          1161.223555

                             ****ORCA TERMINATED NORMALLY****
TOTAL RUN TIME: 0 days 0 hours 0 minutes 9 seconds 638 msec
