                         Program Version 6.0.0  -   RELEASE  -
|  1> ! pbe def2-sv(p) def2/J RI DEFGRID1 loosescf d4 GCP(DFT/SV(P)) printgap
|  2> %output
|  3>     printlevel normal
|  4> end
|  5> * xyz 0 1
|  6> C 1.7757891496 -0.8598276501 1.1899079347
|  7> C 1.4802530728 -0.2639238964 -0.1806061946
|  8> C 0.2973368542 0.7142521972 -0.2176461174
|  9> H 0.4567694763 1.4828796459 0.5485908468
| 10> C -1.1156353636 0.1165984052 -0.0107110775
| 11> C -1.3073754053 -1.2484938861 -0.6700304761
| 12> C -1.5115507069 0.0567076627 1.4638154456
| 13> O 0.3369704956 1.4479068138 -1.437074734
| 14> H 1.0129133327 -1.5739303791 1.4855123287
| 15> H 1.8305656208 -0.0775713045 1.9430265369
| 16> H 2.7304849414 -1.3798943939 1.1645583672
| 17> H 2.3531100476 0.3062279954 -0.5105587005
| 18> H 1.3191026747 -1.0641214852 -0.9047044656
| 19> H -1.7928283553 0.8284107781 -0.5006463314
| 20> H -1.0156883335 -1.2278561937 -1.7175372651
| 21> H -0.7279642821 -2.0127655992 -0.1592639198
| 22> H -2.3564227515 -1.5308848997 -0.6201008962
| 23> H -1.4027155988 1.0334372707 1.9291193694
| 24> H -0.8997568297 -0.6544154553 2.0094995632
| 25> H -2.5513790014 -0.2496910814 1.5520032609
| 26> H 0.2372370273 0.8289133613 -2.1732071011
| 27> *
| 28>
| 29>                          ****END OF INPUT****

CARTESIAN COORDINATES (ANGSTROEM)
---------------------------------
  C      1.775789   -0.859828    1.189908
  C      1.480253   -0.263924   -0.180606
  C      0.297337    0.714252   -0.217646
  H      0.456769    1.482880    0.548591
  C     -1.115635    0.116598   -0.010711
  C     -1.307375   -1.248494   -0.670030
  C     -1.511551    0.056708    1.463815
  O      0.336970    1.447907   -1.437075
  H      1.012913   -1.573930    1.485512
  H      1.830566   -0.077571    1.943027
  H      2.730485   -1.379894    1.164558
  H      2.353110    0.306228   -0.510559
  H      1.319103   -1.064121   -0.904704
  H     -1.792828    0.828411   -0.500646
  H     -1.015688   -1.227856   -1.717537
  H     -0.727964   -2.012766   -0.159264
  H     -2.356423   -1.530885   -0.620101
  H     -1.402716    1.033437    1.929119
  H     -0.899757   -0.654415    2.009500
  H     -2.551379   -0.249691    1.552003
  H      0.237237    0.828913   -2.173207

 Total Charge           Charge          ....    0
 Multiplicity           Mult            ....    1
 Number of Electrons    NEL             ....   58
 Basis Dimension        Dim             ....  126

ORBITAL ENERGIES
----------------

  NO   OCC          E(Eh)            E(eV)
   0   2.0000     -18.733966      -509.7771
   1   2.0000      -9.930077      -270.2111
   2   2.0000      -9.891394      -269.1585
   3   2.0000      -9.882784      -268.9242
   4   2.0000      -9.878788      -268.8155
   5   2.0000      -9.877472      -268.7797
   6   2.0000      -9.873270      -268.6653
   7   2.0000      -0.912057       -24.8183
   8   2.0000      -0.726054       -19.7569
   9   2.0000      -0.685224       -18.6459
  10   2.0000      -0.615394       -16.7457
  11   2.0000      -0.600212       -16.3326
  12   2.0000      -0.542374       -14.7588
  13   2.0000      -0.499962       -13.6047
  14   2.0000      -0.447502       -12.1772
  15   2.0000      -0.417812       -11.3692
  16   2.0000      -0.401589       -10.9278
  17   2.0000      -0.386850       -10.5267
  18   2.0000      -0.371298       -10.1035
  19   2.0000      -0.349313        -9.5053
  20   2.0000      -0.341382        -9.2895
  21   2.0000      -0.338840        -9.2203
  22   2.0000      -0.329199        -8.9579
  23   2.0000      -0.311882        -8.4868
  24   2.0000      -0.304870        -8.2959
  25   2.0000      -0.292447        -7.9579
  26   2.0000      -0.270779        -7.3683
  27   2.0000      -0.258697        -7.0395
  28   2.0000      -0.206408        -5.6167
  29   0.0000       0.024611         0.6697
  30   0.0000       0.037305         1.0151
  31   0.0000       0.061485         1.6731
  32   0.0000       0.072291         1.9671
  33   0.0000       0.076448         2.0803

MULLIKEN ATOMIC CHARGES
-----------------------
   0 C :   -0.287853
   1 C :   -0.174261
   2 C :    0.056992
   3 H :    0.058558
   4 C :   -0.153850
   5 C :   -0.265222
   6 C :   -0.256407
   7 O :   -0.427948
   8 H :    0.117689
   9 H :    0.101824
  10 H :    0.103095
  11 H :    0.092505
  12 H :    0.074702
  13 H :    0.075568
  14 H :    0.087913
  15 H :    0.105050
  16 H :    0.103406
  17 H :    0.101573
  18 H :    0.098852
  19 H :    0.097743
  20 H :    0.290069
Sum of atomic charges:    0.0000000

LOEWDIN ATOMIC CHARGES
----------------------
   0 C :   -0.341796
   1 C :   -0.247870
   2 C :   -0.044300
   3 H :    0.109544
   4 C :   -0.172014
   5 C :   -0.332432
   6 C :   -0.330776
   7 O :   -0.328291
   8 H :    0.114980
   9 H :    0.119414
  10 H :    0.122006
  11 H :    0.121187
  12 H :    0.111659
  13 H :    0.119398
  14 H :    0.108528
  15 H :    0.117959
  16 H :    0.122032
  17 H :    0.118482
  18 H :    0.116282
  19 H :    0.118449
  20 H :    0.277558

  Mayer bond orders larger than 0.100000
B(  0-C ,  1-C ) :   1.1509 B(  0-C ,  8-H ) :   0.9370 B(  0-C ,  9-H ) :   0.9513
B(  0-C , 10-H ) :   0.9451 B(  1-C ,  2-C ) :   1.0939 B(  1-C , 11-H ) :   0.9159
B(  1-C , 12-H ) :   0.8992 B(  2-C ,  3-H ) :   0.9010 B(  2-C ,  4-C ) :   1.0062
B(  2-C ,  7-O ) :   1.0291 B(  4-C ,  5-C ) :   1.1039 B(  4-C ,  6-C ) :   1.1038
B(  4-C , 13-H ) :   0.8950 B(  5-C , 14-H ) :   0.9455 B(  5-C , 15-H ) :   0.9367
B(  5-C , 16-H ) :   0.9463 B(  6-C , 17-H ) :   0.9472 B(  6-C , 18-H ) :   0.9413
B(  6-C , 19-H ) :   0.9474 B(  7-O , 20-H ) :   0.8542

Dispersion correction           -0.017160883
FINAL SINGLE POINT ENERGY      -311.514299627587

DIPOLE MOMENT
-------------

Method             : SCF
Type of density    : Electron Density
Multiplicity       :   1
Irrep              :   0
Energy             :  -311.5936296374629251 Eh
Relativity type    :
Basis              : AO
                                X                 Y                 Z
Electronic contribution:      0.676759409       4.347348901      -3.766341982
Nuclear contribution   :     -0.751695575      -4.942580826       3.774755973
                        -----------------------------------------
Total Dipole Moment    :     -0.074936166      -0.595231925       0.008413991
                        -----------------------------------------
Magnitude (a.u.)       :      0.599989391
Magnitude (Debye)      :      1.525051833

Rotational constants in cm-1:             0.085846             0.073503             0.055048
Rotational constants in MHz :          2573.593190          2203.565881          1650.301579

                             ****ORCA TERMINATED NORMALLY****
TOTAL RUN TIME: 0 days 0 hours 0 minutes 9 seconds 292 msec
