                         Program Version 6.0.0  -   RELEASE  -
|  1> ! pbe def2-sv(p) def2/J RI DEFGRID1 loosescf d4 GCP(DFT/SV(P)) printgap
|  2> %output
|  3>     printlevel normal
|  4> end
|  5> * xyz 0 1
|  6> C -1.7978294926 1.4421705674 0.3296905193
|  7> C -1.1459491399 0.3349717555 -0.4903978992
|  8> C -0.2439311091 -0.5843736337 0.3419621656
|  9> H -0.7478375461 -0.8188232058 1.285590368
| 10> C 0.0232282234 -1.8919293356 -0.4056533149
| 11> C 1.0762428091 0.1129474239 0.7104764814
| 12> O 1.8331863601 0.5394341325 -0.4013588335
| 13> H -1.0491465823 2.1094705521 0.7487208259
| 14> H -2.4616585715 2.0314000143 -0.2981837595
| 15> H -2.3804492498 1.0205238417 1.1460190592
| 16> H -0.5481069563 0.7798355614 -1.2889693819
| 17> H -1.9295784385 -0.268484389 -0.9530675246
| 18> H 0.7277650101 -2.512531944 0.1440058904
| 19> H 0.4228638819 -1.6936069694 -1.3977242166
| 20> H -0.902022318 -2.4499288276 -0.5243211123
| 21> H 1.6769776556 -0.5570607922 1.3414366391
| 22> H 0.8722380916 1.0205135728 1.2824597795
| 23> H 2.1042048371 -0.2384633254 -0.9073196411
| 24> *
| 25>
| 26>                          ****END OF INPUT****

CARTESIAN COORDINATES (ANGSTROEM)
---------------------------------
  C     -1.797829    1.442171    0.329691
  C     -1.145949    0.334972   -0.490398
  C     -0.243931   -0.584374    0.341962
  H     -0.747838   -0.818823    1.285590
  C      0.023228   -1.891929   -0.405653
  C      1.076243    0.112947    0.710476
  O      1.833186    0.539434   -0.401359
  H     -1.049147    2.109471    0.748721
  H     -2.461659    2.031400   -0.298184
  H     -2.380449    1.020524    1.146019
  H     -0.548107    0.779836   -1.288969
  H     -1.929578   -0.268484   -0.953068
  H      0.727765   -2.512532    0.144006
  H      0.422864   -1.693607   -1.397724
  H     -0.902022   -2.449929   -0.524321
  H      1.676978   -0.557061    1.341437
  H      0.872238    1.020514    1.282460
  H      2.104205   -0.238463   -0.907320

 Total Charge           Charge          ....    0
 Multiplicity           Mult            ....    1
 Number of Electrons    NEL             ....   50
 Basis Dimension        Dim             ....  108

ORBITAL ENERGIES
----------------

  NO   OCC          E(Eh)            E(eV)
   0   2.0000     -18.742014      -509.9961
   1   2.0000      -9.924834      -270.0685
   2   2.0000      -9.892391      -269.1856
   3   2.0000      -9.879455      -268.8336
   4   2.0000      -9.877785      -268.7882
   5   2.0000      -9.870058      -268.5779
   6   2.0000      -0.918343       -24.9894
   7   2.0000      -0.726176       -19.7603
   8   2.0000      -0.655308       -17.8319
   9   2.0000      -0.609066       -16.5735
  10   2.0000      -0.554310       -15.0835
  11   2.0000      -0.504109       -13.7175
  12   2.0000      -0.442791       -12.0490
  13   2.0000      -0.426016       -11.5925
  14   2.0000      -0.401786       -10.9332
  15   2.0000      -0.380520       -10.3545
  16   2.0000      -0.365820        -9.9545
  17   2.0000      -0.354115        -9.6360
  18   2.0000      -0.329343        -8.9619
  19   2.0000      -0.321143        -8.7387
  20   2.0000      -0.294926        -8.0254
  21   2.0000      -0.287419        -7.8211
  22   2.0000      -0.283007        -7.7010
  23   2.0000      -0.262865        -7.1529
  24   2.0000      -0.213252        -5.8029
  25   0.0000       0.020539         0.5589
  26   0.0000       0.047969         1.3053
  27   0.0000       0.068248         1.8571
  28   0.0000       0.078556         2.1376
  29   0.0000       0.092666         2.5216

MULLIKEN ATOMIC CHARGES
-----------------------
   0 C :   -0.273208
   1 C :   -0.151559
   2 C :   -0.194325
   3 H :    0.066106
   4 C :   -0.263126
   5 C :    0.033533
   6 O :   -0.435398
   7 H :    0.106146
   8 H :    0.101916
   9 H :    0.094089
  10 H :    0.087219
  11 H :    0.078573
  12 H :    0.097765
  13 H :    0.089812
  14 H :    0.107933
  15 H :    0.070510
  16 H :    0.087328
  17 H :    0.296685
Sum of atomic charges:   -0.0000000

LOEWDIN ATOMIC CHARGES
----------------------
   0 C :   -0.340848
   1 C :   -0.229541
   2 C :   -0.176646
   3 H :    0.116249
   4 C :   -0.337749
   5 C :   -0.114627
   6 O :   -0.334634
   7 H :    0.117696
   8 H :    0.120306
   9 H :    0.114964
  10 H :    0.116907
  11 H :    0.112261
  12 H :    0.115566
  13 H :    0.112271
  14 H :    0.123212
  15 H :    0.093456
  16 H :    0.110309
  17 H :    0.280849

  Mayer bond orders larger than 0.100000
B(  0-C ,  1-C ) :   1.1616 B(  0-C ,  7-H ) :   0.9489 B(  0-C ,  8-H ) :   0.9506
B(  0-C ,  9-H ) :   0.9535 B(  1-C ,  2-C ) :   1.0694 B(  1-C , 10-H ) :   0.9083
B(  1-C , 11-H ) :   0.9299 B(  2-C ,  3-H ) :   0.8918 B(  2-C ,  4-C ) :   1.1022
B(  2-C ,  5-C ) :   1.0426 B(  4-C , 12-H ) :   0.9508 B(  4-C , 13-H ) :   0.9410
B(  4-C , 14-H ) :   0.9484 B(  5-C ,  6-O ) :   1.0669 B(  5-C , 15-H ) :   0.9229
B(  5-C , 16-H ) :   0.9271 B(  6-O , 17-H ) :   0.8486

Dispersion correction           -0.013126778
FINAL SINGLE POINT ENERGY      -272.301290980712

DIPOLE MOMENT
-------------

Method             : SCF
Type of density    : Electron Density
Multiplicity       :   1
Irrep              :   0
Energy             :  -272.3713098175019240 Eh
Relativity type    :
Basis              : AO
                                X                 Y                 Z
Electronic contribution:      3.804930893       0.891016536      -0.487275095
Nuclear contribution   :     -3.926920013      -1.471624866       0.536909153
                        -----------------------------------------
Total Dipole Moment    :     -0.121989121      -0.580608330       0.049634058
                        -----------------------------------------
Magnitude (a.u.)       :      0.595357806
Magnitude (Debye)      :      1.513279282

Rotational constants in cm-1:             0.138747             0.088393             0.065305
Rotational constants in MHz :          4159.544140          2649.946169          1957.809381

                             ****ORCA TERMINATED NORMALLY****
TOTAL RUN TIME: 0 days 0 hours 0 minutes 7 seconds 935 msec
