                         Program Version 6.0.0  -   RELEASE  -
|  1> ! pbe def2-sv(p) def2/J RI DEFGRID1 loosescf d4 GCP(DFT/SV(P)) printgap
|  2> %output
|  3>     printlevel normal
|  4> end
|  5> * xyz 0 1
|  6> C 1.8244344534 1.1109679171 0.2959261067
|  7> C 1.3916036586 -0.1852841562 -0.3883452945
|  8> H 2.0529893677 -0.3628218975 -1.2464546821
|  9> C -0.0507424917 -0.139936548 -0.9299682822
| 10> C -1.1379718738 0.4696478889 -0.0342851106
| 11> C -2.4517412877 0.5038910674 -0.8172919827
| 12> C -1.3414444824 -0.302324185 1.2689298115
| 13> O 1.6279632651 -1.3151102981 0.4351444822
| 14> H 1.6811084928 1.9498474883 -0.3784230967
| 15> H 1.2527838975 1.2837139415 1.2039662522
| 16> H 2.8773116347 1.0473566265 0.5600907057
| 17> H -0.0258733093 0.4315190885 -1.8600711934
| 18> H -0.3319909591 -1.1657144278 -1.1825198766
| 19> H -0.8625942577 1.5013821004 0.2052787966
| 20> H -2.7712790578 -0.5061270078 -1.0647979346
| 21> H -2.3346947363 1.0627352234 -1.7426875054
| 22> H -3.2341811319 0.9769281733 -0.2286668341
| 23> H -2.2415221061 0.0475292377 1.7704755106
| 24> H -1.4564670055 -1.3651780229 1.0677912084
| 25> H -0.5100006055 -0.1578358316 1.9544491498
| 26> H 1.1056532549 -1.2296871975 1.2442004908
| 27> *
| 28>
| 29>                          ****END OF INPUT****

CARTESIAN COORDINATES (ANGSTROEM)
---------------------------------
  C      1.824434    1.110968    0.295926
  C      1.391604   -0.185284   -0.388345
  H      2.052989   -0.362822   -1.246455
  C     -0.050742   -0.139937   -0.929968
  C     -1.137972    0.469648   -0.034285
  C     -2.451741    0.503891   -0.817292
  C     -1.341444   -0.302324    1.268930
  O      1.627963   -1.315110    0.435144
  H      1.681108    1.949847   -0.378423
  H      1.252784    1.283714    1.203966
  H      2.877312    1.047357    0.560091
  H     -0.025873    0.431519   -1.860071
  H     -0.331991   -1.165714   -1.182520
  H     -0.862594    1.501382    0.205279
  H     -2.771279   -0.506127   -1.064798
  H     -2.334695    1.062735   -1.742688
  H     -3.234181    0.976928   -0.228667
  H     -2.241522    0.047529    1.770476
  H     -1.456467   -1.365178    1.067791
  H     -0.510001   -0.157836    1.954449
  H      1.105653   -1.229687    1.244200

 Total Charge           Charge          ....    0
 Multiplicity           Mult            ....    1
 Number of Electrons    NEL             ....   58
 Basis Dimension        Dim             ....  126

ORBITAL ENERGIES
----------------

  NO   OCC          E(Eh)            E(eV)
   0   2.0000     -18.733120      -509.7541
   1   2.0000      -9.933058      -270.2923
   2   2.0000      -9.898604      -269.3547
   3   2.0000      -9.881882      -268.8997
   4   2.0000      -9.878814      -268.8162
   5   2.0000      -9.874716      -268.7047
   6   2.0000      -9.874630      -268.7023
   7   2.0000      -0.911680       -24.8081
   8   2.0000      -0.733857       -19.9693
   9   2.0000      -0.675634       -18.3849
  10   2.0000      -0.619500       -16.8575
  11   2.0000      -0.608913       -16.5694
  12   2.0000      -0.544191       -14.8082
  13   2.0000      -0.497315       -13.5326
  14   2.0000      -0.439822       -11.9682
  15   2.0000      -0.418938       -11.3999
  16   2.0000      -0.404266       -11.0006
  17   2.0000      -0.393910       -10.7188
  18   2.0000      -0.372183       -10.1276
  19   2.0000      -0.361618        -9.8401
  20   2.0000      -0.347806        -9.4643
  21   2.0000      -0.332398        -9.0450
  22   2.0000      -0.327708        -8.9174
  23   2.0000      -0.312792        -8.5115
  24   2.0000      -0.302465        -8.2305
  25   2.0000      -0.288644        -7.8544
  26   2.0000      -0.283403        -7.7118
  27   2.0000      -0.254589        -6.9277
  28   2.0000      -0.207444        -5.6448
  29   0.0000       0.020540         0.5589
  30   0.0000       0.052836         1.4377
  31   0.0000       0.059648         1.6231
  32   0.0000       0.064787         1.7629
  33   0.0000       0.080110         2.1799

MULLIKEN ATOMIC CHARGES
-----------------------
   0 C :   -0.267109
   1 C :    0.045057
   2 H :    0.065860
   3 C :   -0.134062
   4 C :   -0.196039
   5 C :   -0.237417
   6 C :   -0.273682
   7 O :   -0.433828
   8 H :    0.098154
   9 H :    0.099845
  10 H :    0.110566
  11 H :    0.075915
  12 H :    0.083402
  13 H :    0.078121
  14 H :    0.095079
  15 H :    0.097915
  16 H :    0.098267
  17 H :    0.101635
  18 H :    0.104012
  19 H :    0.099781
  20 H :    0.288527
Sum of atomic charges:   -0.0000000

LOEWDIN ATOMIC CHARGES
----------------------
   0 C :   -0.353166
   1 C :   -0.057693
   2 H :    0.113052
   3 C :   -0.233123
   4 C :   -0.161051
   5 C :   -0.326854
   6 C :   -0.336878
   7 O :   -0.331320
   8 H :    0.123033
   9 H :    0.115497
  10 H :    0.124289
  11 H :    0.118406
  12 H :    0.119128
  13 H :    0.114754
  14 H :    0.117291
  15 H :    0.116999
  16 H :    0.115934
  17 H :    0.120929
  18 H :    0.120291
  19 H :    0.107286
  20 H :    0.273197

  Mayer bond orders larger than 0.100000
B(  0-C ,  1-C ) :   1.1161 B(  0-C ,  8-H ) :   0.9390 B(  0-C ,  9-H ) :   0.9310
B(  0-C , 10-H ) :   0.9431 B(  1-C ,  2-H ) :   0.9042 B(  1-C ,  3-C ) :   1.0625
B(  1-C ,  7-O ) :   1.0469 B(  3-C ,  4-C ) :   1.0967 B(  3-C , 11-H ) :   0.9060
B(  3-C , 12-H ) :   0.9084 B(  4-C ,  5-C ) :   1.1154 B(  4-C ,  6-C ) :   1.1062
B(  4-C , 13-H ) :   0.8922 B(  5-C , 14-H ) :   0.9510 B(  5-C , 15-H ) :   0.9499
B(  5-C , 16-H ) :   0.9491 B(  6-C , 17-H ) :   0.9452 B(  6-C , 18-H ) :   0.9461
B(  6-C , 19-H ) :   0.9300 B(  7-O , 20-H ) :   0.8464

Dispersion correction           -0.016872497
FINAL SINGLE POINT ENERGY      -311.516300997782

DIPOLE MOMENT
-------------

Method             : SCF
Type of density    : Electron Density
Multiplicity       :   1
Irrep              :   0
Energy             :  -311.5961230830951649 Eh
Relativity type    :
Basis              : AO
                                X                 Y                 Z
Electronic contribution:      4.055488656      -2.794733134      -0.132553349
Nuclear contribution   :     -4.477858205       3.276858742       0.290375245
                        -----------------------------------------
Total Dipole Moment    :     -0.422369550       0.482125609       0.157821896
                        -----------------------------------------
Magnitude (a.u.)       :      0.660112786
Magnitude (Debye)      :      1.677873359

Rotational constants in cm-1:             0.132980             0.052283             0.048679
Rotational constants in MHz :          3986.626997          1567.403293          1459.352597

                             ****ORCA TERMINATED NORMALLY****
TOTAL RUN TIME: 0 days 0 hours 0 minutes 10 seconds 232 msec
