                         Program Version 6.0.0  -   RELEASE  -
|  1> ! pbe def2-sv(p) def2/J RI DEFGRID1 loosescf d4 GCP(DFT/SV(P)) printgap
|  2> %output
|  3>     printlevel normal
|  4> end
|  5> * xyz 0 1
|  6> C 1.560051432 -0.3283019909 -1.1139522107
|  7> C 1.3150291444 -0.1192128781 0.3783771417
|  8> H 2.1031208526 -0.6499925257 0.9303847054
|  9> C -0.0212532673 -0.6762739849 0.9126738599
| 10> C -1.3594681941 -0.3336866096 0.2294993118
| 11> C -1.5436412329 1.1567817507 -0.0522121758
| 12> C -1.6291324891 -1.1574745899 -1.0303406127
| 13> O 1.5206454449 1.2346775739 0.7495835016
| 14> H 1.4182240763 -1.3729610938 -1.3718734854
| 15> H 0.8898698647 0.2844382685 -1.7105076534
| 16> H 2.5824540067 -0.0429085605 -1.3527146252
| 17> H 0.0700689577 -1.764122241 0.9352923303
| 18> H -0.0804298846 -0.334998582 1.9502052573
| 19> H -2.1267044075 -0.6214916845 0.9601513015
| 20> H -2.5776283121 1.3536404614 -0.328492939
| 21> H -0.9168267273 1.4825499148 -0.8788484294
| 22> H -1.3119371316 1.7448610485 0.8325848448
| 23> H -0.9874124241 -0.8624307801 -1.8535700907
| 24> H -1.4742133913 -2.2157298337 -0.834259688
| 25> H -2.6620504665 -1.0180066978 -1.3428762862
| 26> H 0.9361727097 1.7946690295 0.2208948904
| 27> *
| 28>
| 29>                          ****END OF INPUT****

CARTESIAN COORDINATES (ANGSTROEM)
---------------------------------
  C      1.560051   -0.328302   -1.113952
  C      1.315029   -0.119213    0.378377
  H      2.103121   -0.649993    0.930385
  C     -0.021253   -0.676274    0.912674
  C     -1.359468   -0.333687    0.229499
  C     -1.543641    1.156782   -0.052212
  C     -1.629132   -1.157475   -1.030341
  O      1.520645    1.234678    0.749584
  H      1.418224   -1.372961   -1.371873
  H      0.889870    0.284438   -1.710508
  H      2.582454   -0.042909   -1.352715
  H      0.070069   -1.764122    0.935292
  H     -0.080430   -0.334999    1.950205
  H     -2.126704   -0.621492    0.960151
  H     -2.577628    1.353640   -0.328493
  H     -0.916827    1.482550   -0.878848
  H     -1.311937    1.744861    0.832585
  H     -0.987412   -0.862431   -1.853570
  H     -1.474213   -2.215730   -0.834260
  H     -2.662050   -1.018007   -1.342876
  H      0.936173    1.794669    0.220895

 Total Charge           Charge          ....    0
 Multiplicity           Mult            ....    1
 Number of Electrons    NEL             ....   58
 Basis Dimension        Dim             ....  126

ORBITAL ENERGIES
----------------

  NO   OCC          E(Eh)            E(eV)
   0   2.0000     -18.734153      -509.7822
   1   2.0000      -9.934249      -270.3247
   2   2.0000      -9.898327      -269.3472
   3   2.0000      -9.880702      -268.8676
   4   2.0000      -9.878345      -268.8034
   5   2.0000      -9.875630      -268.7296
   6   2.0000      -9.873855      -268.6812
   7   2.0000      -0.912392       -24.8274
   8   2.0000      -0.730689       -19.8831
   9   2.0000      -0.674524       -18.3547
  10   2.0000      -0.617755       -16.8100
  11   2.0000      -0.615419       -16.7464
  12   2.0000      -0.543328       -14.7847
  13   2.0000      -0.496508       -13.5107
  14   2.0000      -0.431647       -11.7457
  15   2.0000      -0.423169       -11.5150
  16   2.0000      -0.394210       -10.7270
  17   2.0000      -0.392796       -10.6885
  18   2.0000      -0.380238       -10.3468
  19   2.0000      -0.368262       -10.0209
  20   2.0000      -0.347387        -9.4529
  21   2.0000      -0.330966        -9.0061
  22   2.0000      -0.327122        -8.9014
  23   2.0000      -0.321033        -8.7357
  24   2.0000      -0.298078        -8.1111
  25   2.0000      -0.286348        -7.7919
  26   2.0000      -0.276979        -7.5370
  27   2.0000      -0.253307        -6.8928
  28   2.0000      -0.208316        -5.6686
  29   0.0000       0.019364         0.5269
  30   0.0000       0.048330         1.3151
  31   0.0000       0.064396         1.7523
  32   0.0000       0.069957         1.9036
  33   0.0000       0.082140         2.2351

MULLIKEN ATOMIC CHARGES
-----------------------
   0 C :   -0.262259
   1 C :    0.017258
   2 H :    0.067056
   3 C :   -0.123899
   4 C :   -0.170202
   5 C :   -0.279536
   6 C :   -0.252557
   7 O :   -0.433964
   8 H :    0.100989
   9 H :    0.103781
  10 H :    0.108493
  11 H :    0.073841
  12 H :    0.085646
  13 H :    0.073345
  14 H :    0.102155
  15 H :    0.096829
  16 H :    0.110449
  17 H :    0.098905
  18 H :    0.096577
  19 H :    0.097054
  20 H :    0.290037
Sum of atomic charges:    0.0000000

LOEWDIN ATOMIC CHARGES
----------------------
   0 C :   -0.353659
   1 C :   -0.056920
   2 H :    0.113768
   3 C :   -0.234893
   4 C :   -0.157186
   5 C :   -0.340263
   6 C :   -0.333609
   7 O :   -0.331142
   8 H :    0.123752
   9 H :    0.113557
  10 H :    0.123817
  11 H :    0.117077
  12 H :    0.121343
  13 H :    0.119370
  14 H :    0.121483
  15 H :    0.108857
  16 H :    0.119589
  17 H :    0.116075
  18 H :    0.116927
  19 H :    0.117675
  20 H :    0.274382

  Mayer bond orders larger than 0.100000
B(  0-C ,  1-C ) :   1.1284 B(  0-C ,  8-H ) :   0.9346 B(  0-C ,  9-H ) :   0.9273
B(  0-C , 10-H ) :   0.9392 B(  1-C ,  2-H ) :   0.9006 B(  1-C ,  3-C ) :   1.0731
B(  1-C ,  7-O ) :   1.0416 B(  3-C ,  4-C ) :   1.0937 B(  3-C , 11-H ) :   0.9061
B(  3-C , 12-H ) :   0.9053 B(  4-C ,  5-C ) :   1.1099 B(  4-C ,  6-C ) :   1.1139
B(  4-C , 13-H ) :   0.8986 B(  5-C , 14-H ) :   0.9434 B(  5-C , 15-H ) :   0.9311
B(  5-C , 16-H ) :   0.9435 B(  6-C , 17-H ) :   0.9417 B(  6-C , 18-H ) :   0.9493
B(  6-C , 19-H ) :   0.9484 B(  7-O , 20-H ) :   0.8451

Dispersion correction           -0.017409957
FINAL SINGLE POINT ENERGY      -311.513456237471

DIPOLE MOMENT
-------------

Method             : SCF
Type of density    : Electron Density
Multiplicity       :   1
Irrep              :   0
Energy             :  -311.5929956398379090 Eh
Relativity type    :
Basis              : AO
                                X                 Y                 Z
Electronic contribution:      3.399675660       1.889740225       3.204995848
Nuclear contribution   :     -3.858889243      -2.066729223      -3.594829031
                        -----------------------------------------
Total Dipole Moment    :     -0.459213583      -0.176988997      -0.389833184
                        -----------------------------------------
Magnitude (a.u.)       :      0.627831292
Magnitude (Debye)      :      1.595820323

Rotational constants in cm-1:             0.114714             0.062363             0.053346
Rotational constants in MHz :          3439.050295          1869.602294          1599.274143

                             ****ORCA TERMINATED NORMALLY****
TOTAL RUN TIME: 0 days 0 hours 0 minutes 9 seconds 548 msec
