                         Program Version 6.0.0  -   RELEASE  -
|  1> ! r2scan-3c def2/J RI DEFGRID2 scfconv6 printgap
|  2> %output
|  3>     printlevel normal
|  4> end
|  5> * xyz 0 1
|  6> C 4.6682877797 -1.3292145071 -0.7288411168
|  7> C 4.603983943 -0.0787694748 0.1405342329
|  8> C 3.2502445135 0.5788785762 0.3158136802
|  9> O 3.1641334896 1.7290942952 0.7237528177
| 10> N 2.1797010067 -0.200532125 0.0134809681
| 11> C 0.824253919 0.10290541 0.0837720846
| 12> C 0.3357648299 1.3396317584 0.5029802027
| 13> C -1.0251716466 1.570344377 0.5476658862
| 14> C -1.919626801 0.5785503196 0.1776862193
| 15> C -1.4384758685 -0.6560042158 -0.2414144074
| 16> C -0.078478012 -0.8949840729 -0.2893474405
| 17> Cl -2.5419951537 -1.9084738726 -0.7082962965
| 18> Cl -3.6279354016 0.8792825199 0.2385263183
| 19> H 4.1747525049 -2.1754824497 -0.2569675974
| 20> H 5.710239734 -1.6026445708 -0.8738205906
| 21> H 4.2324011867 -1.1480171128 -1.7081253405
| 22> H 5.2650560329 0.6934645841 -0.2578000713
| 23> H 4.9660016961 -0.3047413059 1.1471773753
| 24> H 2.383592133 -1.1370869919 -0.311864662
| 25> H 1.0258552983 2.1143485809 0.7920152712
| 26> H -1.4015120413 2.5262654027 0.8717861848
| 27> H 0.2703343988 -1.860381056 -0.618264351
| 28> *
| 29>
| 30>                          ****END OF INPUT****

CARTESIAN COORDINATES (ANGSTROEM)
---------------------------------
  C      4.668288   -1.329215   -0.728841
  C      4.603984   -0.078769    0.140534
  C      3.250245    0.578879    0.315814
  O      3.164133    1.729094    0.723753
  N      2.179701   -0.200532    0.013481
  C      0.824254    0.102905    0.083772
  C      0.335765    1.339632    0.502980
  C     -1.025172    1.570344    0.547666
  C     -1.919627    0.578550    0.177686
  C     -1.438476   -0.656004   -0.241414
  C     -0.078478   -0.894984   -0.289347
  Cl    -2.541995   -1.908474   -0.708296
  Cl    -3.627935    0.879283    0.238526
  H      4.174753   -2.175482   -0.256968
  H      5.710240   -1.602645   -0.873821
  H      4.232401   -1.148017   -1.708125
  H      5.265056    0.693465   -0.257800
  H      4.966002   -0.304741    1.147177
  H      2.383592   -1.137087   -0.311865
  H      1.025855    2.114349    0.792015
  H     -1.401512    2.526265    0.871786
  H      0.270334   -1.860381   -0.618264

 Total Charge           Charge          ....    0
 Multiplicity           Mult            ....    1
 Number of Electrons    NEL             ....  112
 Basis Dimension        Dim             ....  318

ORBITAL ENERGIES
----------------

  NO   OCC          E(Eh)            E(eV)
   0   2.0000    -101.230015     -2754.6087
   1   2.0000    -101.224891     -2754.4693
   2   2.0000     -18.927482      -515.0430
   3   2.0000     -14.222721      -387.0199
   4   2.0000     -10.147424      -276.1255
   5   2.0000     -10.118392      -275.3355
   6   2.0000     -10.110447      -275.1193
   7   2.0000     -10.106124      -275.0016
   8   2.0000     -10.065228      -273.8888
   9   2.0000     -10.060015      -273.7469
  10   2.0000     -10.057217      -273.6708
  11   2.0000     -10.051999      -273.5288
  12   2.0000     -10.048447      -273.4322
  13   2.0000      -9.385737      -255.3989
  14   2.0000      -9.380555      -255.2579
  15   2.0000      -7.132208      -194.0773
  16   2.0000      -7.127014      -193.9359
  17   2.0000      -7.121997      -193.7994
  18   2.0000      -7.121310      -193.7807
  19   2.0000      -7.116804      -193.6581
  20   2.0000      -7.116158      -193.6405
  21   2.0000      -1.018193       -27.7064
  22   2.0000      -0.933518       -25.4023
  23   2.0000      -0.888022       -24.1643
  24   2.0000      -0.827436       -22.5157
  25   2.0000      -0.812814       -22.1178
  26   2.0000      -0.769145       -20.9295
  27   2.0000      -0.731737       -19.9116
  28   2.0000      -0.707964       -19.2647
  29   2.0000      -0.646227       -17.5847
  30   2.0000      -0.615679       -16.7535
  31   2.0000      -0.606907       -16.5148
  32   2.0000      -0.549972       -14.9655
  33   2.0000      -0.532024       -14.4771
  34   2.0000      -0.478371       -13.0171
  35   2.0000      -0.464113       -12.6291
  36   2.0000      -0.458387       -12.4733
  37   2.0000      -0.450628       -12.2622
  38   2.0000      -0.430143       -11.7048
  39   2.0000      -0.419082       -11.4038
  40   2.0000      -0.415029       -11.2935
  41   2.0000      -0.407294       -11.0830
  42   2.0000      -0.390969       -10.6388
  43   2.0000      -0.376227       -10.2377
  44   2.0000      -0.370832       -10.0909
  45   2.0000      -0.357611        -9.7311
  46   2.0000      -0.354170        -9.6375
  47   2.0000      -0.350605        -9.5405
  48   2.0000      -0.326535        -8.8855
  49   2.0000      -0.319074        -8.6824
  50   2.0000      -0.304092        -8.2748
  51   2.0000      -0.281601        -7.6628
  52   2.0000      -0.280449        -7.6314
  53   2.0000      -0.246482        -6.7071
  54   2.0000      -0.230450        -6.2709
  55   2.0000      -0.215695        -5.8694
  56   0.0000      -0.060753        -1.6532
  57   0.0000      -0.055377        -1.5069
  58   0.0000      -0.022872        -0.6224
  59   0.0000       0.000865         0.0235
  60   0.0000       0.039962         1.0874

MULLIKEN ATOMIC CHARGES
-----------------------
   0 C :   -0.513732
   1 C :   -0.289185
   2 C :    0.291592
   3 O :   -0.448974
   4 N :   -0.041943
   5 C :    0.210223
   6 C :   -0.175062
   7 C :   -0.228746
   8 C :    0.125947
   9 C :    0.135987
  10 C :   -0.432381
  11 Cl:   -0.115332
  12 Cl:   -0.119513
  13 H :    0.139846
  14 H :    0.163895
  15 H :    0.171000
  16 H :    0.173122
  17 H :    0.176728
  18 H :    0.251131
  19 H :    0.210634
  20 H :    0.165184
  21 H :    0.149578
Sum of atomic charges:   -0.0000000

LOEWDIN ATOMIC CHARGES
----------------------
   0 C :   -0.416366
   1 C :   -0.242985
   2 C :    0.343220
   3 O :   -0.466182
   4 N :   -0.589786
   5 C :    0.160548
   6 C :   -0.114678
   7 C :   -0.149303
   8 C :   -0.191954
   9 C :   -0.173102
  10 C :   -0.143186
  11 Cl:    0.148824
  12 Cl:    0.141987
  13 H :    0.148122
  14 H :    0.162105
  15 H :    0.156976
  16 H :    0.183586
  17 H :    0.182488
  18 H :    0.284164
  19 H :    0.211287
  20 H :    0.183061
  21 H :    0.181173

  Mayer bond orders larger than 0.100000
B(  0-C ,  1-C ) :   0.8700 B(  0-C , 13-H ) :   0.9684 B(  0-C , 14-H ) :   0.9587
B(  0-C , 15-H ) :   0.9865 B(  1-C ,  2-C ) :   0.9629 B(  1-C , 16-H ) :   0.9583
B(  1-C , 17-H ) :   0.9242 B(  2-C ,  3-O ) :   1.7937 B(  2-C ,  4-N ) :   1.0971
B(  4-N ,  5-C ) :   1.0328 B(  4-N , 18-H ) :   0.9062 B(  5-C ,  6-C ) :   1.4121
B(  5-C , 10-C ) :   1.2463 B(  6-C ,  7-C ) :   1.3152 B(  6-C , 19-H ) :   0.9286
B(  7-C ,  8-C ) :   1.3090 B(  7-C , 20-H ) :   0.9566 B(  8-C ,  9-C ) :   1.2887
B(  8-C , 12-Cl) :   1.0366 B(  9-C , 10-C ) :   1.3592 B(  9-C , 11-Cl) :   1.0068
B( 10-C , 21-H ) :   0.9199

Dispersion correction           -0.009097322
FINAL SINGLE POINT ENERGY     -1398.617581772371

DIPOLE MOMENT
-------------

Method             : SCF
Type of density    : Electron Density
Multiplicity       :   1
Irrep              :   0
Energy             : -1398.6218651253659573 Eh
Relativity type    :
Basis              : AO
                                X                 Y                 Z
Electronic contribution:    -32.058674369       0.283554862       0.154901354
Nuclear contribution   :     33.320632192      -1.309456750      -0.499377144
                        -----------------------------------------
Total Dipole Moment    :      1.261957823      -1.025901888      -0.344475790
                        -----------------------------------------
Magnitude (a.u.)       :      1.662430691
Magnitude (Debye)      :      4.225563005

Rotational constants in cm-1:             0.044953             0.009396             0.007806
Rotational constants in MHz :          1347.664275           281.688718           234.012747

                             ****ORCA TERMINATED NORMALLY****
TOTAL RUN TIME: 0 days 0 hours 0 minutes 46 seconds 522 msec
