                         Program Version 6.0.0  -   RELEASE  -
|  1> ! r2scan-3c def2/J RI DEFGRID2 scfconv6 printgap
|  2> %output
|  3>     printlevel normal
|  4> end
|  5> %cpcm
|  6>     smd true
|  7>     smdsolvent "water"
|  8> end
|  9> * xyz 0 1
| 10> C 4.6682877797 -1.3292145071 -0.7288411168
| 11> C 4.603983943 -0.0787694748 0.1405342329
| 12> C 3.2502445135 0.5788785762 0.3158136802
| 13> O 3.1641334896 1.7290942952 0.7237528177
| 14> N 2.1797010067 -0.200532125 0.0134809681
| 15> C 0.824253919 0.10290541 0.0837720846
| 16> C 0.3357648299 1.3396317584 0.5029802027
| 17> C -1.0251716466 1.570344377 0.5476658862
| 18> C -1.919626801 0.5785503196 0.1776862193
| 19> C -1.4384758685 -0.6560042158 -0.2414144074
| 20> C -0.078478012 -0.8949840729 -0.2893474405
| 21> Cl -2.5419951537 -1.9084738726 -0.7082962965
| 22> Cl -3.6279354016 0.8792825199 0.2385263183
| 23> H 4.1747525049 -2.1754824497 -0.2569675974
| 24> H 5.710239734 -1.6026445708 -0.8738205906
| 25> H 4.2324011867 -1.1480171128 -1.7081253405
| 26> H 5.2650560329 0.6934645841 -0.2578000713
| 27> H 4.9660016961 -0.3047413059 1.1471773753
| 28> H 2.383592133 -1.1370869919 -0.311864662
| 29> H 1.0258552983 2.1143485809 0.7920152712
| 30> H -1.4015120413 2.5262654027 0.8717861848
| 31> H 0.2703343988 -1.860381056 -0.618264351
| 32> *
| 33>
| 34>                          ****END OF INPUT****

CARTESIAN COORDINATES (ANGSTROEM)
---------------------------------
  C      4.668288   -1.329215   -0.728841
  C      4.603984   -0.078769    0.140534
  C      3.250245    0.578879    0.315814
  O      3.164133    1.729094    0.723753
  N      2.179701   -0.200532    0.013481
  C      0.824254    0.102905    0.083772
  C      0.335765    1.339632    0.502980
  C     -1.025172    1.570344    0.547666
  C     -1.919627    0.578550    0.177686
  C     -1.438476   -0.656004   -0.241414
  C     -0.078478   -0.894984   -0.289347
  Cl    -2.541995   -1.908474   -0.708296
  Cl    -3.627935    0.879283    0.238526
  H      4.174753   -2.175482   -0.256968
  H      5.710240   -1.602645   -0.873821
  H      4.232401   -1.148017   -1.708125
  H      5.265056    0.693465   -0.257800
  H      4.966002   -0.304741    1.147177
  H      2.383592   -1.137087   -0.311865
  H      1.025855    2.114349    0.792015
  H     -1.401512    2.526265    0.871786
  H      0.270334   -1.860381   -0.618264

 Total Charge           Charge          ....    0
 Multiplicity           Mult            ....    1
 Number of Electrons    NEL             ....  112
 Basis Dimension        Dim             ....  318

ORBITAL ENERGIES
----------------

  NO   OCC          E(Eh)            E(eV)
   0   2.0000    -101.231966     -2754.6618
   1   2.0000    -101.229335     -2754.5903
   2   2.0000     -18.932589      -515.1819
   3   2.0000     -14.210526      -386.6881
   4   2.0000     -10.145291      -276.0674
   5   2.0000     -10.115814      -275.2653
   6   2.0000     -10.109226      -275.0860
   7   2.0000     -10.099891      -274.8320
   8   2.0000     -10.055995      -273.6375
   9   2.0000     -10.055696      -273.6294
  10   2.0000     -10.045288      -273.3462
  11   2.0000     -10.037411      -273.1318
  12   2.0000     -10.021094      -272.6878
  13   2.0000      -9.387808      -255.4552
  14   2.0000      -9.385134      -255.3825
  15   2.0000      -7.134154      -194.1302
  16   2.0000      -7.131439      -194.0563
  17   2.0000      -7.124134      -193.8575
  18   2.0000      -7.123420      -193.8381
  19   2.0000      -7.121444      -193.7843
  20   2.0000      -7.120806      -193.7670
  21   2.0000      -1.020968       -27.7820
  22   2.0000      -0.925766       -25.1914
  23   2.0000      -0.887384       -24.1469
  24   2.0000      -0.829428       -22.5699
  25   2.0000      -0.809510       -22.0279
  26   2.0000      -0.750739       -20.4287
  27   2.0000      -0.725453       -19.7406
  28   2.0000      -0.702396       -19.1132
  29   2.0000      -0.629715       -17.1354
  30   2.0000      -0.608156       -16.5488
  31   2.0000      -0.594969       -16.1899
  32   2.0000      -0.541759       -14.7420
  33   2.0000      -0.522045       -14.2056
  34   2.0000      -0.473411       -12.8822
  35   2.0000      -0.460085       -12.5196
  36   2.0000      -0.445652       -12.1268
  37   2.0000      -0.439843       -11.9687
  38   2.0000      -0.425151       -11.5689
  39   2.0000      -0.412359       -11.2209
  40   2.0000      -0.406274       -11.0553
  41   2.0000      -0.399531       -10.8718
  42   2.0000      -0.383428       -10.4336
  43   2.0000      -0.371672       -10.1137
  44   2.0000      -0.359408        -9.7800
  45   2.0000      -0.347375        -9.4526
  46   2.0000      -0.340518        -9.2660
  47   2.0000      -0.330444        -8.9918
  48   2.0000      -0.329394        -8.9633
  49   2.0000      -0.309563        -8.4236
  50   2.0000      -0.306681        -8.3452
  51   2.0000      -0.285427        -7.7669
  52   2.0000      -0.281250        -7.6532
  53   2.0000      -0.244315        -6.6482
  54   2.0000      -0.235271        -6.4020
  55   2.0000      -0.213746        -5.8163
  56   0.0000      -0.057179        -1.5559
  57   0.0000      -0.052693        -1.4338
  58   0.0000      -0.022453        -0.6110
  59   0.0000       0.005218         0.1420
  60   0.0000       0.039252         1.0681

MULLIKEN ATOMIC CHARGES
-----------------------
   0 C :   -0.542456
   1 C :   -0.295940
   2 C :    0.321657
   3 O :   -0.547368
   4 N :   -0.058981
   5 C :    0.187954
   6 C :   -0.229430
   7 C :   -0.251845
   8 C :    0.119302
   9 C :    0.141394
  10 C :   -0.404429
  11 Cl:   -0.131562
  12 Cl:   -0.140767
  13 H :    0.165973
  14 H :    0.173602
  15 H :    0.179650
  16 H :    0.180448
  17 H :    0.195965
  18 H :    0.322269
  19 H :    0.217665
  20 H :    0.198465
  21 H :    0.198435
Sum of atomic charges:   -0.0000000

LOEWDIN ATOMIC CHARGES
----------------------
   0 C :   -0.415570
   1 C :   -0.239493
   2 C :    0.350022
   3 O :   -0.542491
   4 N :   -0.559833
   5 C :    0.160757
   6 C :   -0.126146
   7 C :   -0.151920
   8 C :   -0.200996
   9 C :   -0.179695
  10 C :   -0.125915
  11 Cl:    0.135351
  12 Cl:    0.124876
  13 H :    0.159100
  14 H :    0.164624
  15 H :    0.161936
  16 H :    0.185410
  17 H :    0.190766
  18 H :    0.303259
  19 H :    0.210175
  20 H :    0.194320
  21 H :    0.201464

  Mayer bond orders larger than 0.100000
B(  0-C ,  1-C ) :   0.8801 B(  0-C , 13-H ) :   0.9637 B(  0-C , 14-H ) :   0.9567
B(  0-C , 15-H ) :   0.9817 B(  1-C ,  2-C ) :   0.9621 B(  1-C , 16-H ) :   0.9624
B(  1-C , 17-H ) :   0.9127 B(  2-C ,  3-O ) :   1.7138 B(  2-C ,  4-N ) :   1.1333
B(  4-N ,  5-C ) :   1.0168 B(  4-N , 18-H ) :   0.8846 B(  5-C ,  6-C ) :   1.3399
B(  5-C , 10-C ) :   1.3183 B(  6-C ,  7-C ) :   1.3486 B(  6-C , 19-H ) :   0.9391
B(  7-C ,  8-C ) :   1.2963 B(  7-C , 20-H ) :   0.9479 B(  8-C ,  9-C ) :   1.2526
B(  8-C , 12-Cl) :   1.0242 B(  9-C , 10-C ) :   1.3132 B(  9-C , 11-Cl) :   1.0141
B( 10-C , 21-H ) :   0.9272

Dispersion correction           -0.009097322
FINAL SINGLE POINT ENERGY     -1398.630537037330

DIPOLE MOMENT
-------------

Method             : SCF
Type of density    : Electron Density
Multiplicity       :   1
Irrep              :   0
Energy             : -1398.6348203903255580 Eh
Relativity type    :
Basis              : AO
                                X                 Y                 Z
Electronic contribution:    -31.719919830      -0.355303348      -0.043735810
Nuclear contribution   :     33.320632192      -1.309456750      -0.499377144
                        -----------------------------------------
Total Dipole Moment    :      1.600712362      -1.664760098      -0.543112954
                        -----------------------------------------
Magnitude (a.u.)       :      2.372483495
Magnitude (Debye)      :      6.030373802

Rotational constants in cm-1:             0.044953             0.009396             0.007806
Rotational constants in MHz :          1347.664275           281.688718           234.012747

                             ****ORCA TERMINATED NORMALLY****
TOTAL RUN TIME: 0 days 0 hours 0 minutes 56 seconds 692 msec
