                         Program Version 6.0.0  -   RELEASE  -
|  1> ! r2scan-3c def2/J RI DEFGRID2 scfconv6 printgap
|  2> %output
|  3>     printlevel normal
|  4> end
|  5> * xyz 0 1
|  6> C 2.4181295597 -0.3061567736 -0.2613760415
|  7> C 1.0972516749 -0.1322953655 0.4780859137
|  8> C -0.0359959019 0.263748513 -0.4739720417
|  9> C -1.3234628495 0.4555799308 0.2608974329
| 10> C -2.4287170259 -0.2286737942 0.0321767634
| 11> H 3.2071557341 -0.59054507 0.4304664467
| 12> H 2.7064645301 0.6219198102 -0.7501165378
| 13> H 2.3308358118 -1.0802890488 -1.0204445099
| 14> H 0.8315629968 -1.0660939189 0.9786935084
| 15> H 1.2072907098 0.6365028028 1.2461240667
| 16> H -0.156709439 -0.5046840762 -1.2398412667
| 17> H 0.2346992717 1.2000677174 -0.9705545557
| 18> H -1.3023990811 1.2098547996 1.0375655448
| 19> H -3.3326667159 -0.0606024287 0.5924668023
| 20> H -2.4755832152 -0.9881816032 -0.7310996579
| 21> *
| 22>
| 23>                          ****END OF INPUT****

CARTESIAN COORDINATES (ANGSTROEM)
---------------------------------
  C      2.418130   -0.306157   -0.261376
  C      1.097252   -0.132295    0.478086
  C     -0.035996    0.263749   -0.473972
  C     -1.323463    0.455580    0.260897
  C     -2.428717   -0.228674    0.032177
  H      3.207156   -0.590545    0.430466
  H      2.706465    0.621920   -0.750117
  H      2.330836   -1.080289   -1.020445
  H      0.831563   -1.066094    0.978694
  H      1.207291    0.636503    1.246124
  H     -0.156709   -0.504684   -1.239841
  H      0.234699    1.200068   -0.970555
  H     -1.302399    1.209855    1.037566
  H     -3.332667   -0.060602    0.592467
  H     -2.475583   -0.988182   -0.731100

 Total Charge           Charge          ....    0
 Multiplicity           Mult            ....    1
 Number of Electrons    NEL             ....   40
 Basis Dimension        Dim             ....  145

ORBITAL ENERGIES
----------------

  NO   OCC          E(Eh)            E(eV)
   0   2.0000     -10.031854      -272.9806
   1   2.0000     -10.029464      -272.9156
   2   2.0000     -10.028294      -272.8838
   3   2.0000     -10.017684      -272.5950
   4   2.0000     -10.016153      -272.5534
   5   2.0000      -0.775747       -21.1092
   6   2.0000      -0.722109       -19.6496
   7   2.0000      -0.645033       -17.5522
   8   2.0000      -0.559423       -15.2227
   9   2.0000      -0.522714       -14.2238
  10   2.0000      -0.446886       -12.1604
  11   2.0000      -0.419932       -11.4269
  12   2.0000      -0.396024       -10.7764
  13   2.0000      -0.381579       -10.3833
  14   2.0000      -0.355789        -9.6815
  15   2.0000      -0.331603        -9.0234
  16   2.0000      -0.312998        -8.5171
  17   2.0000      -0.301558        -8.2058
  18   2.0000      -0.297106        -8.0847
  19   2.0000      -0.234674        -6.3858
  20   0.0000      -0.010475        -0.2850
  21   0.0000       0.101319         2.7570
  22   0.0000       0.108746         2.9591
  23   0.0000       0.130439         3.5494
  24   0.0000       0.142128         3.8675

MULLIKEN ATOMIC CHARGES
-----------------------
   0 C :   -0.463479
   1 C :   -0.236806
   2 C :   -0.280272
   3 C :   -0.076473
   4 C :   -0.371905
   5 H :    0.146858
   6 H :    0.141206
   7 H :    0.141572
   8 H :    0.145598
   9 H :    0.138159
  10 H :    0.139861
  11 H :    0.147439
  12 H :    0.148038
  13 H :    0.140096
  14 H :    0.140109
Sum of atomic charges:    0.0000000

LOEWDIN ATOMIC CHARGES
----------------------
   0 C :   -0.424777
   1 C :   -0.308481
   2 C :   -0.300375
   3 C :   -0.193990
   4 C :   -0.319686
   5 H :    0.151027
   6 H :    0.149517
   7 H :    0.149998
   8 H :    0.154939
   9 H :    0.151247
  10 H :    0.158455
  11 H :    0.162009
  12 H :    0.159973
  13 H :    0.155930
  14 H :    0.154215

  Mayer bond orders larger than 0.100000
B(  0-C ,  1-C ) :   0.8952 B(  0-C ,  5-H ) :   0.9744 B(  0-C ,  6-H ) :   0.9840
B(  0-C ,  7-H ) :   0.9799 B(  1-C ,  2-C ) :   0.8931 B(  1-C ,  8-H ) :   0.9673
B(  1-C ,  9-H ) :   0.9762 B(  2-C ,  3-C ) :   0.9373 B(  2-C , 10-H ) :   0.9966
B(  2-C , 11-H ) :   0.9717 B(  3-C ,  4-C ) :   1.9343 B(  3-C , 12-H ) :   0.9235
B(  4-C , 13-H ) :   0.9609 B(  4-C , 14-H ) :   0.9875

Dispersion correction           -0.003195502
FINAL SINGLE POINT ENERGY      -196.458412104137

DIPOLE MOMENT
-------------

Method             : SCF
Type of density    : Electron Density
Multiplicity       :   1
Irrep              :   0
Energy             :  -196.4610100583776671 Eh
Relativity type    :
Basis              : AO
                                X                 Y                 Z
Electronic contribution:     -2.862849948       0.612488239       0.410330195
Nuclear contribution   :      3.049667607      -0.583590507      -0.400355436
                        -----------------------------------------
Total Dipole Moment    :      0.186817659       0.028897732       0.009974759
                        -----------------------------------------
Magnitude (a.u.)       :      0.189302437
Magnitude (Debye)      :      0.481168555

Rotational constants in cm-1:             0.608323             0.072000             0.070788
Rotational constants in MHz :         18237.079011          2158.506382          2122.163744

                             ****ORCA TERMINATED NORMALLY****
TOTAL RUN TIME: 0 days 0 hours 0 minutes 13 seconds 558 msec
