                         Program Version 6.0.0  -   RELEASE  -
|  1> ! r2scan-3c def2/J RI DEFGRID2 scfconv6 printgap
|  2> %output
|  3>     printlevel normal
|  4> end
|  5> %cpcm
|  6>     smd true
|  7>     smdsolvent "water"
|  8> end
|  9> * xyz 0 1
| 10> C 2.4181295597 -0.3061567736 -0.2613760415
| 11> C 1.0972516749 -0.1322953655 0.4780859137
| 12> C -0.0359959019 0.263748513 -0.4739720417
| 13> C -1.3234628495 0.4555799308 0.2608974329
| 14> C -2.4287170259 -0.2286737942 0.0321767634
| 15> H 3.2071557341 -0.59054507 0.4304664467
| 16> H 2.7064645301 0.6219198102 -0.7501165378
| 17> H 2.3308358118 -1.0802890488 -1.0204445099
| 18> H 0.8315629968 -1.0660939189 0.9786935084
| 19> H 1.2072907098 0.6365028028 1.2461240667
| 20> H -0.156709439 -0.5046840762 -1.2398412667
| 21> H 0.2346992717 1.2000677174 -0.9705545557
| 22> H -1.3023990811 1.2098547996 1.0375655448
| 23> H -3.3326667159 -0.0606024287 0.5924668023
| 24> H -2.4755832152 -0.9881816032 -0.7310996579
| 25> *
| 26>
| 27>                          ****END OF INPUT****

CARTESIAN COORDINATES (ANGSTROEM)
---------------------------------
  C      2.418130   -0.306157   -0.261376
  C      1.097252   -0.132295    0.478086
  C     -0.035996    0.263749   -0.473972
  C     -1.323463    0.455580    0.260897
  C     -2.428717   -0.228674    0.032177
  H      3.207156   -0.590545    0.430466
  H      2.706465    0.621920   -0.750117
  H      2.330836   -1.080289   -1.020445
  H      0.831563   -1.066094    0.978694
  H      1.207291    0.636503    1.246124
  H     -0.156709   -0.504684   -1.239841
  H      0.234699    1.200068   -0.970555
  H     -1.302399    1.209855    1.037566
  H     -3.332667   -0.060602    0.592467
  H     -2.475583   -0.988182   -0.731100

 Total Charge           Charge          ....    0
 Multiplicity           Mult            ....    1
 Number of Electrons    NEL             ....   40
 Basis Dimension        Dim             ....  145

ORBITAL ENERGIES
----------------

  NO   OCC          E(Eh)            E(eV)
   0   2.0000     -10.030003      -272.9303
   1   2.0000     -10.021650      -272.7030
   2   2.0000     -10.020368      -272.6681
   3   2.0000     -10.013315      -272.4761
   4   2.0000     -10.008675      -272.3499
   5   2.0000      -0.770414       -20.9640
   6   2.0000      -0.717295       -19.5186
   7   2.0000      -0.639127       -17.3915
   8   2.0000      -0.552306       -15.0290
   9   2.0000      -0.517702       -14.0874
  10   2.0000      -0.440536       -11.9876
  11   2.0000      -0.413418       -11.2497
  12   2.0000      -0.390896       -10.6368
  13   2.0000      -0.374257       -10.1841
  14   2.0000      -0.348772        -9.4906
  15   2.0000      -0.324491        -8.8298
  16   2.0000      -0.305540        -8.3142
  17   2.0000      -0.293758        -7.9936
  18   2.0000      -0.289923        -7.8892
  19   2.0000      -0.235864        -6.4182
  20   0.0000      -0.011019        -0.2999
  21   0.0000       0.109856         2.9893
  22   0.0000       0.114386         3.1126
  23   0.0000       0.139459         3.7949
  24   0.0000       0.147992         4.0271

MULLIKEN ATOMIC CHARGES
-----------------------
   0 C :   -0.505599
   1 C :   -0.240783
   2 C :   -0.280706
   3 C :   -0.120437
   4 C :   -0.440270
   5 H :    0.156825
   6 H :    0.154052
   7 H :    0.153560
   8 H :    0.148301
   9 H :    0.151776
  10 H :    0.156081
  11 H :    0.160945
  12 H :    0.175199
  13 H :    0.164691
  14 H :    0.166365
Sum of atomic charges:    0.0000000

LOEWDIN ATOMIC CHARGES
----------------------
   0 C :   -0.432185
   1 C :   -0.309250
   2 C :   -0.303875
   3 C :   -0.200148
   4 C :   -0.344512
   5 H :    0.153428
   6 H :    0.152797
   7 H :    0.152794
   8 H :    0.154877
   9 H :    0.155162
  10 H :    0.162629
  11 H :    0.167638
  12 H :    0.167793
  13 H :    0.161610
  14 H :    0.161242

  Mayer bond orders larger than 0.100000
B(  0-C ,  1-C ) :   0.8893 B(  0-C ,  5-H ) :   0.9717 B(  0-C ,  6-H ) :   0.9817
B(  0-C ,  7-H ) :   0.9776 B(  1-C ,  2-C ) :   0.8893 B(  1-C ,  8-H ) :   0.9671
B(  1-C ,  9-H ) :   0.9751 B(  2-C ,  3-C ) :   0.9248 B(  2-C , 10-H ) :   0.9958
B(  2-C , 11-H ) :   0.9624 B(  3-C ,  4-C ) :   1.9049 B(  3-C , 12-H ) :   0.9234
B(  4-C , 13-H ) :   0.9616 B(  4-C , 14-H ) :   0.9811

Dispersion correction           -0.003195502
FINAL SINGLE POINT ENERGY      -196.456713891733

DIPOLE MOMENT
-------------

Method             : SCF
Type of density    : Electron Density
Multiplicity       :   1
Irrep              :   0
Energy             :  -196.4593118459736445 Eh
Relativity type    :
Basis              : AO
                                X                 Y                 Z
Electronic contribution:     -2.783283986       0.647293217       0.401820612
Nuclear contribution   :      3.049667607      -0.583590507      -0.400355436
                        -----------------------------------------
Total Dipole Moment    :      0.266383622       0.063702710       0.001465175
                        -----------------------------------------
Magnitude (a.u.)       :      0.273898550
Magnitude (Debye)      :      0.696194788

Rotational constants in cm-1:             0.608323             0.072000             0.070788
Rotational constants in MHz :         18237.079011          2158.506382          2122.163744

                             ****ORCA TERMINATED NORMALLY****
TOTAL RUN TIME: 0 days 0 hours 0 minutes 14 seconds 558 msec
