                         Program Version 6.0.0  -   RELEASE  -
|  1> ! pbe def2-sv(p) def2/J RI DEFGRID1 loosescf d4 GCP(DFT/SV(P)) printgap
|  2> %output
|  3>     printlevel normal
|  4> end
|  5> * xyz 0 1
|  6> C -3.3383882049 0.0507600568 -0.6443816878
|  7> C -2.1721355783 0.2786803605 0.3104133977
|  8> C -0.9146229674 -0.4554383401 -0.151041838
|  9> C 0.2756003999 -0.2511047734 0.7908946515
| 10> C 1.4341079609 -1.1976919426 0.4634277053
| 11> C 2.1459127513 -0.5399463482 -0.7218063973
| 12> C 1.8936963316 0.9710212059 -0.5672097778
| 13> C 0.9325929862 1.1224941456 0.6218576383
| 14> H -3.0916380208 0.4128243233 -1.6400404735
| 15> H -3.5716357188 -1.0094691122 -0.7144412966
| 16> H -4.2253237783 0.5756697549 -0.2978498368
| 17> H -1.9714452481 1.3493810559 0.3813713608
| 18> H -2.4466287038 -0.0712497129 1.3085633985
| 19> H -1.1399137722 -1.5235119109 -0.2082293826
| 20> H -0.6493834488 -0.1190619069 -1.1541515278
| 21> H -0.0697335463 -0.3992156693 1.8185212508
| 22> H 2.108528022 -1.2498693614 1.3197621436
| 23> H 1.0971471286 -2.2076806555 0.2338332305
| 24> H 3.2092899704 -0.7751573552 -0.7280425633
| 25> H 1.7225395982 -0.9020766161 -1.6586265849
| 26> H 2.8209629518 1.5133091095 -0.3863515343
| 27> H 1.4495493423 1.3791234265 -1.4748733845
| 28> H 1.4931041469 1.3652477267 1.5257391907
| 29> H 0.2047650727 1.9146797645 0.4574650884
| 30> *
| 31>
| 32>                          ****END OF INPUT****

CARTESIAN COORDINATES (ANGSTROEM)
---------------------------------
  C     -3.338388    0.050760   -0.644382
  C     -2.172136    0.278680    0.310413
  C     -0.914623   -0.455438   -0.151042
  C      0.275600   -0.251105    0.790895
  C      1.434108   -1.197692    0.463428
  C      2.145913   -0.539946   -0.721806
  C      1.893696    0.971021   -0.567210
  C      0.932593    1.122494    0.621858
  H     -3.091638    0.412824   -1.640040
  H     -3.571636   -1.009469   -0.714441
  H     -4.225324    0.575670   -0.297850
  H     -1.971445    1.349381    0.381371
  H     -2.446629   -0.071250    1.308563
  H     -1.139914   -1.523512   -0.208229
  H     -0.649383   -0.119062   -1.154152
  H     -0.069734   -0.399216    1.818521
  H      2.108528   -1.249869    1.319762
  H      1.097147   -2.207681    0.233833
  H      3.209290   -0.775157   -0.728043
  H      1.722540   -0.902077   -1.658627
  H      2.820963    1.513309   -0.386352
  H      1.449549    1.379123   -1.474873
  H      1.493104    1.365248    1.525739
  H      0.204765    1.914680    0.457465

 Total Charge           Charge          ....    0
 Multiplicity           Mult            ....    1
 Number of Electrons    NEL             ....   64
 Basis Dimension        Dim             ....  144

ORBITAL ENERGIES
----------------

  NO   OCC          E(Eh)            E(eV)
   0   2.0000      -9.883255      -268.9370
   1   2.0000      -9.879735      -268.8413
   2   2.0000      -9.876743      -268.7598
   3   2.0000      -9.874667      -268.7033
   4   2.0000      -9.874148      -268.6892
   5   2.0000      -9.873865      -268.6815
   6   2.0000      -9.873247      -268.6647
   7   2.0000      -9.870324      -268.5852
   8   2.0000      -0.759351       -20.6630
   9   2.0000      -0.702658       -19.1203
  10   2.0000      -0.642589       -17.4857
  11   2.0000      -0.629466       -17.1286
  12   2.0000      -0.586622       -15.9628
  13   2.0000      -0.522417       -14.2157
  14   2.0000      -0.493384       -13.4257
  15   2.0000      -0.479595       -13.0505
  16   2.0000      -0.436848       -11.8872
  17   2.0000      -0.424144       -11.5415
  18   2.0000      -0.407853       -11.0982
  19   2.0000      -0.376795       -10.2531
  20   2.0000      -0.371502       -10.1091
  21   2.0000      -0.349751        -9.5172
  22   2.0000      -0.335252        -9.1227
  23   2.0000      -0.324522        -8.8307
  24   2.0000      -0.302354        -8.2275
  25   2.0000      -0.294304        -8.0084
  26   2.0000      -0.290439        -7.9032
  27   2.0000      -0.287339        -7.8189
  28   2.0000      -0.274295        -7.4639
  29   2.0000      -0.273092        -7.4312
  30   2.0000      -0.264942        -7.2094
  31   2.0000      -0.259273        -7.0552
  32   0.0000       0.027443         0.7468
  33   0.0000       0.042715         1.1623
  34   0.0000       0.054521         1.4836
  35   0.0000       0.068777         1.8715
  36   0.0000       0.076461         2.0806

MULLIKEN ATOMIC CHARGES
-----------------------
   0 C :   -0.255729
   1 C :   -0.186967
   2 C :   -0.151752
   3 C :   -0.175227
   4 C :   -0.102018
   5 C :   -0.167609
   6 C :   -0.161183
   7 C :   -0.122303
   8 H :    0.095835
   9 H :    0.095860
  10 H :    0.100457
  11 H :    0.087091
  12 H :    0.081766
  13 H :    0.075453
  14 H :    0.076468
  15 H :    0.062136
  16 H :    0.075600
  17 H :    0.079567
  18 H :    0.082615
  19 H :    0.083812
  20 H :    0.081577
  21 H :    0.082156
  22 H :    0.076806
  23 H :    0.085591
Sum of atomic charges:    0.0000000

LOEWDIN ATOMIC CHARGES
----------------------
   0 C :   -0.339412
   1 C :   -0.232882
   2 C :   -0.217699
   3 C :   -0.146645
   4 C :   -0.218232
   5 C :   -0.231892
   6 C :   -0.232197
   7 C :   -0.220209
   8 H :    0.116054
   9 H :    0.115951
  10 H :    0.117863
  11 H :    0.113012
  12 H :    0.113557
  13 H :    0.113477
  14 H :    0.113646
  15 H :    0.111435
  16 H :    0.114317
  17 H :    0.113201
  18 H :    0.117037
  19 H :    0.115703
  20 H :    0.118041
  21 H :    0.115826
  22 H :    0.116176
  23 H :    0.113874

  Mayer bond orders larger than 0.100000
B(  0-C ,  1-C ) :   1.1547 B(  0-C ,  8-H ) :   0.9540 B(  0-C ,  9-H ) :   0.9545
B(  0-C , 10-H ) :   0.9526 B(  1-C ,  2-C ) :   1.1417 B(  1-C , 11-H ) :   0.9194
B(  1-C , 12-H ) :   0.9230 B(  2-C ,  3-C ) :   1.0747 B(  2-C , 13-H ) :   0.9175
B(  2-C , 14-H ) :   0.9165 B(  3-C ,  4-C ) :   1.0738 B(  3-C ,  7-C ) :   1.0842
B(  3-C , 15-H ) :   0.9016 B(  4-C ,  5-C ) :   1.1516 B(  4-C , 16-H ) :   0.9191
B(  4-C , 17-H ) :   0.9221 B(  5-C ,  6-C ) :   1.1543 B(  5-C , 18-H ) :   0.9258
B(  5-C , 19-H ) :   0.9219 B(  6-C ,  7-C ) :   1.1571 B(  6-C , 20-H ) :   0.9243
B(  6-C , 21-H ) :   0.9237 B(  7-C , 22-H ) :   0.9152 B(  7-C , 23-H ) :   0.9195

Dispersion correction           -0.020873344
FINAL SINGLE POINT ENERGY      -313.692446974873

DIPOLE MOMENT
-------------

Method             : SCF
Type of density    : Electron Density
Multiplicity       :   1
Irrep              :   0
Energy             :  -313.7734713033616458 Eh
Relativity type    :
Basis              : AO
                                X                 Y                 Z
Electronic contribution:      2.864212639      -0.227804642       1.167914315
Nuclear contribution   :     -2.870606283       0.237301643      -1.142073640
                        -----------------------------------------
Total Dipole Moment    :     -0.006393644       0.009497001       0.025840675
                        -----------------------------------------
Magnitude (a.u.)       :      0.028263266
Magnitude (Debye)      :      0.071839512

Rotational constants in cm-1:             0.133885             0.035868             0.034131
Rotational constants in MHz :          4013.784302          1075.291267          1023.220139

                             ****ORCA TERMINATED NORMALLY****
TOTAL RUN TIME: 0 days 0 hours 0 minutes 11 seconds 144 msec
