                         Program Version 6.0.0  -   RELEASE  -
|  1> ! pbe def2-sv(p) def2/J RI DEFGRID1 loosescf d4 GCP(DFT/SV(P)) printgap
|  2> %output
|  3>     printlevel normal
|  4> end
|  5> * xyz 0 1
|  6> C 2.0357931888 1.9091576283 -0.3983286345
|  7> C 2.2984131156 0.4111215632 -0.4960231767
|  8> C 1.4464395841 -0.3901522557 0.4983810079
|  9> H 1.66281753 -0.0154998105 1.5053234168
| 10> C 1.813748985 -1.8758207613 0.454086912
| 11> C -0.0266665314 -0.1988753565 0.2340958657
| 12> C -0.8464892619 0.373428496 1.198563871
| 13> C -2.1992814102 0.5542408744 0.968086254
| 14> C -2.7557528974 0.1630479443 -0.2370786633
| 15> C -1.9496589586 -0.409702655 -1.2064952968
| 16> C -0.5984986186 -0.5887799957 -0.9717211011
| 17> H 2.2563056353 2.2705552558 0.6037723118
| 18> H 2.6596656017 2.451618609 -1.1044513657
| 19> H 0.9930330653 2.128340618 -0.6185847782
| 20> H 2.088685857 0.0721866169 -1.5119822938
| 21> H 3.352941346 0.2140435495 -0.2910542029
| 22> H 2.8589798819 -2.0128049743 0.7211516269
| 23> H 1.1996859087 -2.4369628105 1.1548500696
| 24> H 1.6575238053 -2.2831831933 -0.5414146998
| 25> H -0.4202913263 0.683868721 2.1422300181
| 26> H -2.8194937327 1.0021531195 1.7306774203
| 27> H -3.8106476216 0.3033446033 -0.4204595653
| 28> H -2.3762140361 -0.7178461339 -2.1499353469
| 29> H 0.0154277084 -1.0361512124 -1.7393047669
| 30> *
| 31>
| 32>                          ****END OF INPUT****

CARTESIAN COORDINATES (ANGSTROEM)
---------------------------------
  C      2.035793    1.909158   -0.398329
  C      2.298413    0.411122   -0.496023
  C      1.446440   -0.390152    0.498381
  H      1.662818   -0.015500    1.505323
  C      1.813749   -1.875821    0.454087
  C     -0.026667   -0.198875    0.234096
  C     -0.846489    0.373428    1.198564
  C     -2.199281    0.554241    0.968086
  C     -2.755753    0.163048   -0.237079
  C     -1.949659   -0.409703   -1.206495
  C     -0.598499   -0.588780   -0.971721
  H      2.256306    2.270555    0.603772
  H      2.659666    2.451619   -1.104451
  H      0.993033    2.128341   -0.618585
  H      2.088686    0.072187   -1.511982
  H      3.352941    0.214044   -0.291054
  H      2.858980   -2.012805    0.721152
  H      1.199686   -2.436963    1.154850
  H      1.657524   -2.283183   -0.541415
  H     -0.420291    0.683869    2.142230
  H     -2.819494    1.002153    1.730677
  H     -3.810648    0.303345   -0.420460
  H     -2.376214   -0.717846   -2.149935
  H      0.015428   -1.036151   -1.739305

 Total Charge           Charge          ....    0
 Multiplicity           Mult            ....    1
 Number of Electrons    NEL             ....   74
 Basis Dimension        Dim             ....  168

ORBITAL ENERGIES
----------------

  NO   OCC          E(Eh)            E(eV)
   0   2.0000      -9.897950      -269.3369
   1   2.0000      -9.897200      -269.3165
   2   2.0000      -9.888148      -269.0702
   3   2.0000      -9.887505      -269.0527
   4   2.0000      -9.887281      -269.0466
   5   2.0000      -9.886595      -269.0279
   6   2.0000      -9.885671      -269.0028
   7   2.0000      -9.884205      -268.9629
   8   2.0000      -9.874651      -268.7029
   9   2.0000      -9.869432      -268.5609
  10   2.0000      -0.778157       -21.1747
  11   2.0000      -0.729649       -19.8548
  12   2.0000      -0.666712       -18.1422
  13   2.0000      -0.665528       -18.1099
  14   2.0000      -0.643107       -17.4998
  15   2.0000      -0.565759       -15.3951
  16   2.0000      -0.545811       -14.8523
  17   2.0000      -0.535758       -14.5787
  18   2.0000      -0.498668       -13.5694
  19   2.0000      -0.460201       -12.5227
  20   2.0000      -0.421709       -11.4753
  21   2.0000      -0.399749       -10.8777
  22   2.0000      -0.393166       -10.6986
  23   2.0000      -0.388079       -10.5602
  24   2.0000      -0.372717       -10.1421
  25   2.0000      -0.368943       -10.0394
  26   2.0000      -0.365391        -9.9428
  27   2.0000      -0.337321        -9.1790
  28   2.0000      -0.322755        -8.7826
  29   2.0000      -0.321352        -8.7444
  30   2.0000      -0.307195        -8.3592
  31   2.0000      -0.299985        -8.1630
  32   2.0000      -0.287650        -7.8274
  33   2.0000      -0.281948        -7.6722
  34   2.0000      -0.274546        -7.4708
  35   2.0000      -0.226114        -6.1529
  36   2.0000      -0.217188        -5.9100
  37   0.0000      -0.032714        -0.8902
  38   0.0000      -0.028831        -0.7845
  39   0.0000       0.037089         1.0092
  40   0.0000       0.052431         1.4267
  41   0.0000       0.056686         1.5425

MULLIKEN ATOMIC CHARGES
-----------------------
   0 C :   -0.264339
   1 C :   -0.167567
   2 C :   -0.130413
   3 H :    0.057441
   4 C :   -0.222207
   5 C :    0.113796
   6 C :   -0.121145
   7 C :   -0.047851
   8 C :   -0.049654
   9 C :   -0.048475
  10 C :   -0.134334
  11 H :    0.092939
  12 H :    0.100330
  13 H :    0.119809
  14 H :    0.085519
  15 H :    0.082559
  16 H :    0.097462
  17 H :    0.105042
  18 H :    0.097613
  19 H :    0.037426
  20 H :    0.049227
  21 H :    0.051049
  22 H :    0.048915
  23 H :    0.046859
Sum of atomic charges:   -0.0000000

LOEWDIN ATOMIC CHARGES
----------------------
   0 C :   -0.342101
   1 C :   -0.219560
   2 C :   -0.136459
   3 H :    0.115899
   4 C :   -0.322014
   5 C :   -0.027489
   6 C :   -0.125624
   7 C :   -0.121792
   8 C :   -0.129317
   9 C :   -0.120953
  10 C :   -0.121650
  11 H :    0.115957
  12 H :    0.118747
  13 H :    0.123814
  14 H :    0.114067
  15 H :    0.114601
  16 H :    0.117632
  17 H :    0.121535
  18 H :    0.117091
  19 H :    0.120106
  20 H :    0.122537
  21 H :    0.122248
  22 H :    0.122399
  23 H :    0.120327

  Mayer bond orders larger than 0.100000
B(  0-C ,  1-C ) :   1.1596 B(  0-C , 11-H ) :   0.9526 B(  0-C , 12-H ) :   0.9511
B(  0-C , 13-H ) :   0.9463 B(  1-C ,  2-C ) :   1.0781 B(  1-C , 14-H ) :   0.9160
B(  1-C , 15-H ) :   0.9232 B(  2-C ,  3-H ) :   0.8858 B(  2-C ,  4-C ) :   1.1057
B(  2-C ,  5-C ) :   1.0073 B(  4-C , 16-H ) :   0.9461 B(  4-C , 17-H ) :   0.9511
B(  4-C , 18-H ) :   0.9443 B(  5-C ,  6-C ) :   1.3977 B(  5-C , 10-C ) :   1.3673
B(  6-C ,  7-C ) :   1.3643 B(  6-C , 19-H ) :   0.9603 B(  7-C ,  8-C ) :   1.3841
B(  7-C , 20-H ) :   0.9636 B(  8-C ,  9-C ) :   1.3728 B(  8-C , 21-H ) :   0.9653
B(  9-C , 10-C ) :   1.3858 B(  9-C , 22-H ) :   0.9637 B( 10-C , 23-H ) :   0.9579

Dispersion correction           -0.025272504
FINAL SINGLE POINT ENERGY      -388.582436496620

DIPOLE MOMENT
-------------

Method             : SCF
Type of density    : Electron Density
Multiplicity       :   1
Irrep              :   0
Energy             :  -388.6514644031548187 Eh
Relativity type    :
Basis              : AO
                                X                 Y                 Z
Electronic contribution:     -8.624292125      -0.593562719       0.488481316
Nuclear contribution   :      8.742230341       0.585099776      -0.487079374
                        -----------------------------------------
Total Dipole Moment    :      0.117938216      -0.008462943       0.001401942
                        -----------------------------------------
Magnitude (a.u.)       :      0.118249776
Magnitude (Debye)      :      0.300567044

Rotational constants in cm-1:             0.073308             0.030548             0.028326
Rotational constants in MHz :          2197.709170           915.794351           849.205491

                             ****ORCA TERMINATED NORMALLY****
TOTAL RUN TIME: 0 days 0 hours 0 minutes 12 seconds 638 msec
