                         Program Version 6.0.0  -   RELEASE  -
|  1> ! r2scan-3c def2/J RI DEFGRID2 scfconv6 printgap
|  2> %output
|  3>     printlevel normal
|  4> end
|  5> * xyz 0 1
|  6> C -1.4443701951 0.0801491713 0.6277790492
|  7> C 0.0611949289 0.3495354354 0.5136588543
|  8> C 0.7969872219 -0.8835221785 -0.0256095262
|  9> O 2.1928830166 -0.717356057 0.003948559
| 10> O 0.3645194952 1.4129965834 -0.3641306306
| 11> O -1.9459789113 -0.3441636665 -0.6195628543
| 12> H -1.9480658688 1.0015566246 0.9514271194
| 13> H -1.595061963 -0.6916380145 1.3929006883
| 14> H 0.444953571 0.5786897526 1.5211206832
| 15> H 0.4463571906 -1.0712786969 -1.0474461483
| 16> H 0.576910309 -1.7508986267 0.5982889256
| 17> H 2.4046441681 0.0894229203 -0.4885295421
| 18> H -0.1563796618 2.1930701153 -0.1307573598
| 19> H -2.8936207904 -0.5200624919 -0.5414989348
| 20> *
| 21>
| 22>                          ****END OF INPUT****

CARTESIAN COORDINATES (ANGSTROEM)
---------------------------------
  C     -1.444370    0.080149    0.627779
  C      0.061195    0.349535    0.513659
  C      0.796987   -0.883522   -0.025610
  O      2.192883   -0.717356    0.003949
  O      0.364519    1.412997   -0.364131
  O     -1.945979   -0.344164   -0.619563
  H     -1.948066    1.001557    0.951427
  H     -1.595062   -0.691638    1.392901
  H      0.444954    0.578690    1.521121
  H      0.446357   -1.071279   -1.047446
  H      0.576910   -1.750899    0.598289
  H      2.404644    0.089423   -0.488530
  H     -0.156380    2.193070   -0.130757
  H     -2.893621   -0.520062   -0.541499

 Total Charge           Charge          ....    0
 Multiplicity           Mult            ....    1
 Number of Electrons    NEL             ....   50
 Basis Dimension        Dim             ....  169

ORBITAL ENERGIES
----------------

  NO   OCC          E(Eh)            E(eV)
   0   2.0000     -18.959308      -515.9090
   1   2.0000     -18.957245      -515.8529
   2   2.0000     -18.938930      -515.3545
   3   2.0000     -10.089292      -274.5436
   4   2.0000     -10.087010      -274.4815
   5   2.0000     -10.068775      -273.9853
   6   2.0000      -1.007495       -27.4153
   7   2.0000      -0.990264       -26.9464
   8   2.0000      -0.972538       -26.4641
   9   2.0000      -0.729608       -19.8536
  10   2.0000      -0.642158       -17.4740
  11   2.0000      -0.569252       -15.4901
  12   2.0000      -0.513557       -13.9746
  13   2.0000      -0.472740       -12.8639
  14   2.0000      -0.463213       -12.6047
  15   2.0000      -0.436833       -11.8868
  16   2.0000      -0.400853       -10.9078
  17   2.0000      -0.381343       -10.3769
  18   2.0000      -0.373138       -10.1536
  19   2.0000      -0.341340        -9.2883
  20   2.0000      -0.310195        -8.4408
  21   2.0000      -0.288278        -7.8444
  22   2.0000      -0.252206        -6.8629
  23   2.0000      -0.246400        -6.7049
  24   2.0000      -0.225187        -6.1277
  25   0.0000       0.043517         1.1842
  26   0.0000       0.059420         1.6169
  27   0.0000       0.085279         2.3206
  28   0.0000       0.112825         3.0701
  29   0.0000       0.124945         3.3999

MULLIKEN ATOMIC CHARGES
-----------------------
   0 C :   -0.156021
   1 C :    0.066339
   2 C :   -0.216610
   3 O :   -0.422891
   4 O :   -0.427498
   5 O :   -0.418119
   6 H :    0.118109
   7 H :    0.128648
   8 H :    0.133400
   9 H :    0.160606
  10 H :    0.133091
  11 H :    0.314303
  12 H :    0.289892
  13 H :    0.296749
Sum of atomic charges:   -0.0000000

LOEWDIN ATOMIC CHARGES
----------------------
   0 C :    0.018364
   1 C :    0.073722
   2 C :    0.032965
   3 O :   -0.594364
   4 O :   -0.589419
   5 O :   -0.614485
   6 H :    0.157689
   7 H :    0.165100
   8 H :    0.173624
   9 H :    0.179154
  10 H :    0.180788
  11 H :    0.274867
  12 H :    0.272349
  13 H :    0.269647

  Mayer bond orders larger than 0.100000
B(  0-C ,  1-C ) :   0.9826 B(  0-C ,  5-O ) :   0.9309 B(  0-C ,  6-H ) :   0.9588
B(  0-C ,  7-H ) :   0.9588 B(  1-C ,  2-C ) :   0.9241 B(  1-C ,  4-O ) :   0.9191
B(  1-C ,  8-H ) :   0.9357 B(  2-C ,  3-O ) :   0.9711 B(  2-C ,  9-H ) :   0.9786
B(  2-C , 10-H ) :   0.9673 B(  3-O , 11-H ) :   0.8773 B(  4-O , 12-H ) :   0.8973
B(  5-O , 13-H ) :   0.8990

Dispersion correction           -0.003009723
FINAL SINGLE POINT ENERGY      -344.721367166571

DIPOLE MOMENT
-------------

Method             : SCF
Type of density    : Electron Density
Multiplicity       :   1
Irrep              :   0
Energy             :  -344.7287811316971897 Eh
Relativity type    :
Basis              : AO
                                X                 Y                 Z
Electronic contribution:      1.318676213       0.656944679      -1.527706974
Nuclear contribution   :     -2.542997909      -0.155337607       2.101504627
                        -----------------------------------------
Total Dipole Moment    :     -1.224321696       0.501607073       0.573797653
                        -----------------------------------------
Magnitude (a.u.)       :      1.442157071
Magnitude (Debye)      :      3.665671959

Rotational constants in cm-1:             0.197279             0.076886             0.065321
Rotational constants in MHz :          5914.271184          2304.984784          1958.283026

                             ****ORCA TERMINATED NORMALLY****
TOTAL RUN TIME: 0 days 0 hours 0 minutes 20 seconds 607 msec
