                         Program Version 6.0.0  -   RELEASE  -
|  1> ! r2scan-3c def2/J RI DEFGRID2 scfconv6 printgap
|  2> %output
|  3>     printlevel normal
|  4> end
|  5> %cpcm
|  6>     smd true
|  7>     smdsolvent "water"
|  8> end
|  9> * xyz 0 1
| 10> C -1.4443701951 0.0801491713 0.6277790492
| 11> C 0.0611949289 0.3495354354 0.5136588543
| 12> C 0.7969872219 -0.8835221785 -0.0256095262
| 13> O 2.1928830166 -0.717356057 0.003948559
| 14> O 0.3645194952 1.4129965834 -0.3641306306
| 15> O -1.9459789113 -0.3441636665 -0.6195628543
| 16> H -1.9480658688 1.0015566246 0.9514271194
| 17> H -1.595061963 -0.6916380145 1.3929006883
| 18> H 0.444953571 0.5786897526 1.5211206832
| 19> H 0.4463571906 -1.0712786969 -1.0474461483
| 20> H 0.576910309 -1.7508986267 0.5982889256
| 21> H 2.4046441681 0.0894229203 -0.4885295421
| 22> H -0.1563796618 2.1930701153 -0.1307573598
| 23> H -2.8936207904 -0.5200624919 -0.5414989348
| 24> *
| 25>
| 26>                          ****END OF INPUT****

CARTESIAN COORDINATES (ANGSTROEM)
---------------------------------
  C     -1.444370    0.080149    0.627779
  C      0.061195    0.349535    0.513659
  C      0.796987   -0.883522   -0.025610
  O      2.192883   -0.717356    0.003949
  O      0.364519    1.412997   -0.364131
  O     -1.945979   -0.344164   -0.619563
  H     -1.948066    1.001557    0.951427
  H     -1.595062   -0.691638    1.392901
  H      0.444954    0.578690    1.521121
  H      0.446357   -1.071279   -1.047446
  H      0.576910   -1.750899    0.598289
  H      2.404644    0.089423   -0.488530
  H     -0.156380    2.193070   -0.130757
  H     -2.893621   -0.520062   -0.541499

 Total Charge           Charge          ....    0
 Multiplicity           Mult            ....    1
 Number of Electrons    NEL             ....   50
 Basis Dimension        Dim             ....  169

ORBITAL ENERGIES
----------------

  NO   OCC          E(Eh)            E(eV)
   0   2.0000     -18.955500      -515.8054
   1   2.0000     -18.953563      -515.7527
   2   2.0000     -18.953501      -515.7510
   3   2.0000     -10.081110      -274.3209
   4   2.0000     -10.074020      -274.1280
   5   2.0000     -10.071089      -274.0483
   6   2.0000      -1.006259       -27.3817
   7   2.0000      -0.989268       -26.9194
   8   2.0000      -0.978780       -26.6340
   9   2.0000      -0.723771       -19.6948
  10   2.0000      -0.637524       -17.3479
  11   2.0000      -0.566931       -15.4270
  12   2.0000      -0.507188       -13.8013
  13   2.0000      -0.467492       -12.7211
  14   2.0000      -0.461969       -12.5708
  15   2.0000      -0.431292       -11.7361
  16   2.0000      -0.399276       -10.8648
  17   2.0000      -0.383887       -10.4461
  18   2.0000      -0.373643       -10.1673
  19   2.0000      -0.341459        -9.2916
  20   2.0000      -0.314557        -8.5595
  21   2.0000      -0.295066        -8.0291
  22   2.0000      -0.250669        -6.8211
  23   2.0000      -0.246520        -6.7081
  24   2.0000      -0.234511        -6.3814
  25   0.0000       0.063434         1.7261
  26   0.0000       0.073850         2.0096
  27   0.0000       0.100322         2.7299
  28   0.0000       0.126384         3.4391
  29   0.0000       0.139010         3.7826

MULLIKEN ATOMIC CHARGES
-----------------------
   0 C :   -0.167420
   1 C :    0.081112
   2 C :   -0.224355
   3 O :   -0.498353
   4 O :   -0.505380
   5 O :   -0.505579
   6 H :    0.150055
   7 H :    0.151126
   8 H :    0.150108
   9 H :    0.154370
  10 H :    0.162868
  11 H :    0.355034
  12 H :    0.347006
  13 H :    0.349410
Sum of atomic charges:   -0.0000000

LOEWDIN ATOMIC CHARGES
----------------------
   0 C :    0.028233
   1 C :    0.076750
   2 C :    0.026353
   3 O :   -0.630753
   4 O :   -0.616900
   5 O :   -0.649493
   6 H :    0.172992
   7 H :    0.175774
   8 H :    0.182044
   9 H :    0.176645
  10 H :    0.190734
  11 H :    0.287318
  12 H :    0.291475
  13 H :    0.288828

  Mayer bond orders larger than 0.100000
B(  0-C ,  1-C ) :   0.9770 B(  0-C ,  5-O ) :   0.9199 B(  0-C ,  6-H ) :   0.9571
B(  0-C ,  7-H ) :   0.9564 B(  1-C ,  2-C ) :   0.9363 B(  1-C ,  4-O ) :   0.9091
B(  1-C ,  8-H ) :   0.9270 B(  2-C ,  3-O ) :   0.9490 B(  2-C ,  9-H ) :   0.9706
B(  2-C , 10-H ) :   0.9627 B(  3-O , 11-H ) :   0.8564 B(  4-O , 12-H ) :   0.8705
B(  5-O , 13-H ) :   0.8724

Dispersion correction           -0.003009723
FINAL SINGLE POINT ENERGY      -344.744122693758

DIPOLE MOMENT
-------------

Method             : SCF
Type of density    : Electron Density
Multiplicity       :   1
Irrep              :   0
Energy             :  -344.7515366588845040 Eh
Relativity type    :
Basis              : AO
                                X                 Y                 Z
Electronic contribution:      0.899806325       0.842832879      -1.179954001
Nuclear contribution   :     -2.542997909      -0.155337607       2.101504627
                        -----------------------------------------
Total Dipole Moment    :     -1.643191585       0.687495272       0.921550626
                        -----------------------------------------
Magnitude (a.u.)       :      2.005488441
Magnitude (Debye)      :      5.097546509

Rotational constants in cm-1:             0.197279             0.076886             0.065321
Rotational constants in MHz :          5914.271184          2304.984784          1958.283026

                             ****ORCA TERMINATED NORMALLY****
TOTAL RUN TIME: 0 days 0 hours 0 minutes 23 seconds 759 msec
