                         Program Version 6.0.0  -   RELEASE  -
|  1> ! pbe def2-sv(p) def2/J RI DEFGRID1 loosescf d4 GCP(DFT/SV(P)) printgap
|  2> %output
|  3>     printlevel normal
|  4> end
|  5> * xyz 0 1
|  6> C 1.8573740606 -1.2012938886 -0.019285871
|  7> C 1.2015608926 0.1297951229 0.3572298291
|  8> C 2.127374051 1.2964280331 0.0117726737
|  9> O -0.0159118275 0.3448310802 -0.3466359609
| 10> C -1.2332608221 -0.0325702245 0.2836764085
| 11> C -2.3022788447 0.9478339746 -0.1981595537
| 12> C -1.6374708739 -1.4714569767 -0.0482460059
| 13> H 2.8354836887 -1.2710293294 0.4475238224
| 14> H 1.255246769 -2.0436582475 0.3086716623
| 15> H 1.9722798456 -1.2548180559 -1.0985814242
| 16> H 0.994457273 0.1397070483 1.4399865806
| 17> H 3.0668701054 1.2006279694 0.5469423393
| 18> H 1.6558828479 2.2377363832 0.280642418
| 19> H 2.3193588595 1.2999637955 -1.0574395529
| 20> H -1.1154863493 0.0677462313 1.3756560137
| 21> H -3.2508034354 0.7342480943 0.2844959282
| 22> H -2.0030407936 1.9663105036 0.0336234576
| 23> H -2.4161056536 0.85833636 -1.2747222077
| 24> H -0.9438486836 -2.1850528399 0.3874942593
| 25> H -1.6455192062 -1.6053701843 -1.1267105397
| 26> H -2.6306668743 -1.6709695476 0.3432404999
| 27> *
| 28>
| 29>                          ****END OF INPUT****

CARTESIAN COORDINATES (ANGSTROEM)
---------------------------------
  C      1.857374   -1.201294   -0.019286
  C      1.201561    0.129795    0.357230
  C      2.127374    1.296428    0.011773
  O     -0.015912    0.344831   -0.346636
  C     -1.233261   -0.032570    0.283676
  C     -2.302279    0.947834   -0.198160
  C     -1.637471   -1.471457   -0.048246
  H      2.835484   -1.271029    0.447524
  H      1.255247   -2.043658    0.308672
  H      1.972280   -1.254818   -1.098581
  H      0.994457    0.139707    1.439987
  H      3.066870    1.200628    0.546942
  H      1.655883    2.237736    0.280642
  H      2.319359    1.299964   -1.057440
  H     -1.115486    0.067746    1.375656
  H     -3.250803    0.734248    0.284496
  H     -2.003041    1.966311    0.033623
  H     -2.416106    0.858336   -1.274722
  H     -0.943849   -2.185053    0.387494
  H     -1.645519   -1.605370   -1.126711
  H     -2.630667   -1.670970    0.343240

 Total Charge           Charge          ....    0
 Multiplicity           Mult            ....    1
 Number of Electrons    NEL             ....   58
 Basis Dimension        Dim             ....  126

ORBITAL ENERGIES
----------------

  NO   OCC          E(Eh)            E(eV)
   0   2.0000     -18.739587      -509.9301
   1   2.0000      -9.936900      -270.3968
   2   2.0000      -9.936802      -270.3941
   3   2.0000      -9.871264      -268.6108
   4   2.0000      -9.871006      -268.6037
   5   2.0000      -9.869526      -268.5635
   6   2.0000      -9.869489      -268.5625
   7   2.0000      -0.922659       -25.1068
   8   2.0000      -0.717385       -19.5211
   9   2.0000      -0.669446       -18.2165
  10   2.0000      -0.615232       -16.7413
  11   2.0000      -0.608064       -16.5463
  12   2.0000      -0.534925       -14.5560
  13   2.0000      -0.505621       -13.7587
  14   2.0000      -0.445879       -12.1330
  15   2.0000      -0.415851       -11.3159
  16   2.0000      -0.391836       -10.6624
  17   2.0000      -0.385302       -10.4846
  18   2.0000      -0.363574        -9.8934
  19   2.0000      -0.350900        -9.5485
  20   2.0000      -0.341909        -9.3038
  21   2.0000      -0.338421        -9.2089
  22   2.0000      -0.331329        -9.0159
  23   2.0000      -0.325174        -8.8484
  24   2.0000      -0.314342        -8.5537
  25   2.0000      -0.294411        -8.0113
  26   2.0000      -0.281993        -7.6734
  27   2.0000      -0.253036        -6.8855
  28   2.0000      -0.197181        -5.3656
  29   0.0000       0.032088         0.8732
  30   0.0000       0.059094         1.6080
  31   0.0000       0.062043         1.6883
  32   0.0000       0.074201         2.0191
  33   0.0000       0.081936         2.2296

MULLIKEN ATOMIC CHARGES
-----------------------
   0 C :   -0.250862
   1 C :   -0.002710
   2 C :   -0.236198
   3 O :   -0.326979
   4 C :   -0.005358
   5 C :   -0.235603
   6 C :   -0.254099
   7 H :    0.093283
   8 H :    0.103691
   9 H :    0.100951
  10 H :    0.058729
  11 H :    0.094286
  12 H :    0.101181
  13 H :    0.101868
  14 H :    0.059009
  15 H :    0.094354
  16 H :    0.101603
  17 H :    0.101885
  18 H :    0.106187
  19 H :    0.101282
  20 H :    0.093500
Sum of atomic charges:   -0.0000000

LOEWDIN ATOMIC CHARGES
----------------------
   0 C :   -0.349556
   1 C :   -0.046984
   2 C :   -0.341119
   3 O :   -0.162143
   4 C :   -0.047321
   5 C :   -0.340842
   6 C :   -0.350479
   7 H :    0.120918
   8 H :    0.116109
   9 H :    0.123054
  10 H :    0.096397
  11 H :    0.119856
  12 H :    0.119983
  13 H :    0.122757
  14 H :    0.095955
  15 H :    0.120028
  16 H :    0.120311
  17 H :    0.122690
  18 H :    0.116105
  19 H :    0.123159
  20 H :    0.121121

  Mayer bond orders larger than 0.100000
B(  0-C ,  1-C ) :   1.1166 B(  0-C ,  7-H ) :   0.9412 B(  0-C ,  8-H ) :   0.9395
B(  0-C ,  9-H ) :   0.9427 B(  1-C ,  2-C ) :   1.1175 B(  1-C ,  3-O ) :   0.9982
B(  1-C , 10-H ) :   0.8976 B(  2-C , 11-H ) :   0.9450 B(  2-C , 12-H ) :   0.9479
B(  2-C , 13-H ) :   0.9473 B(  3-O ,  4-C ) :   1.0038 B(  4-C ,  5-C ) :   1.1175
B(  4-C ,  6-C ) :   1.1140 B(  4-C , 14-H ) :   0.8990 B(  5-C , 15-H ) :   0.9450
B(  5-C , 16-H ) :   0.9475 B(  5-C , 17-H ) :   0.9478 B(  6-C , 18-H ) :   0.9392
B(  6-C , 19-H ) :   0.9427 B(  6-C , 20-H ) :   0.9406

Dispersion correction           -0.015722864
FINAL SINGLE POINT ENERGY      -311.521732998796

DIPOLE MOMENT
-------------

Method             : SCF
Type of density    : Electron Density
Multiplicity       :   1
Irrep              :   0
Energy             :  -311.5998798083256247 Eh
Relativity type    :
Basis              : AO
                                X                 Y                 Z
Electronic contribution:     -0.089004807       1.257206371      -0.451912486
Nuclear contribution   :      0.088052920      -1.426728115       0.830593561
                        -----------------------------------------
Total Dipole Moment    :     -0.000951888      -0.169521744       0.378681075
                        -----------------------------------------
Magnitude (a.u.)       :      0.414895028
Magnitude (Debye)      :      1.054579352

Rotational constants in cm-1:             0.138868             0.054708             0.042157
Rotational constants in MHz :          4163.148018          1640.094594          1263.826562

                             ****ORCA TERMINATED NORMALLY****
TOTAL RUN TIME: 0 days 0 hours 0 minutes 7 seconds 423 msec
