                         Program Version 6.0.0  -   RELEASE  -
|  1> ! pbe def2-sv(p) def2/J RI DEFGRID1 loosescf d4 GCP(DFT/SV(P)) printgap
|  2> %output
|  3>     printlevel normal
|  4> end
|  5> * xyz 0 1
|  6> C 3.4147669863 1.1933712048 -0.2622886213
|  7> C 1.9564933415 0.8919344389 -0.5883028254
|  8> C 1.2948212165 -0.052808468 0.4274472116
|  9> H 1.4849660497 0.344439439 1.4309899656
| 10> C 1.8698089379 -1.4696043363 0.3581495157
| 11> C -0.1990085241 -0.0804779121 0.2115456566
| 12> C -1.0623946675 0.3716711915 1.201356958
| 13> C -2.4337640663 0.3531296168 1.0139813652
| 14> C -2.9651176025 -0.1197195356 -0.1730299954
| 15> C -2.1152129205 -0.5723614666 -1.1681871058
| 16> C -0.745612467 -0.5524015682 -0.9765763874
| 17> H 3.8111684669 1.9228030682 -0.964578125
| 18> H 3.5045560487 1.6012067508 0.7422091177
| 19> H 4.0237012914 0.2958079733 -0.3265916664
| 20> H 1.3939042639 1.8291785634 -0.6005291455
| 21> H 1.8911220735 0.4559188669 -1.5866661176
| 22> H 1.7898798744 -1.870553988 -0.6490391128
| 23> H 2.9160844879 -1.4735879789 0.6505931625
| 24> H 1.3235675618 -2.125434888 1.0327739808
| 25> H -0.6565421051 0.742902241 2.1319974098
| 26> H -3.0880646845 0.7084826766 1.7965298221
| 27> H -4.0344433346 -0.1357177839 -0.322306833
| 28> H -2.5218655163 -0.9426531577 -2.0978984354
| 29> H -0.0973115841 -0.9086882474 -1.7629670236
| 30> *
| 31>
| 32>                          ****END OF INPUT****

CARTESIAN COORDINATES (ANGSTROEM)
---------------------------------
  C      3.414767    1.193371   -0.262289
  C      1.956493    0.891934   -0.588303
  C      1.294821   -0.052808    0.427447
  H      1.484966    0.344439    1.430990
  C      1.869809   -1.469604    0.358150
  C     -0.199009   -0.080478    0.211546
  C     -1.062395    0.371671    1.201357
  C     -2.433764    0.353130    1.013981
  C     -2.965118   -0.119720   -0.173030
  C     -2.115213   -0.572361   -1.168187
  C     -0.745612   -0.552402   -0.976576
  H      3.811168    1.922803   -0.964578
  H      3.504556    1.601207    0.742209
  H      4.023701    0.295808   -0.326592
  H      1.393904    1.829179   -0.600529
  H      1.891122    0.455919   -1.586666
  H      1.789880   -1.870554   -0.649039
  H      2.916084   -1.473588    0.650593
  H      1.323568   -2.125435    1.032774
  H     -0.656542    0.742902    2.131997
  H     -3.088065    0.708483    1.796530
  H     -4.034443   -0.135718   -0.322307
  H     -2.521866   -0.942653   -2.097898
  H     -0.097312   -0.908688   -1.762967

 Total Charge           Charge          ....    0
 Multiplicity           Mult            ....    1
 Number of Electrons    NEL             ....   74
 Basis Dimension        Dim             ....  168

ORBITAL ENERGIES
----------------

  NO   OCC          E(Eh)            E(eV)
   0   2.0000      -9.897852      -269.3343
   1   2.0000      -9.897466      -269.3237
   2   2.0000      -9.886693      -269.0306
   3   2.0000      -9.886265      -269.0189
   4   2.0000      -9.886220      -269.0177
   5   2.0000      -9.885902      -269.0091
   6   2.0000      -9.884773      -268.9784
   7   2.0000      -9.884138      -268.9611
   8   2.0000      -9.875483      -268.7255
   9   2.0000      -9.874405      -268.6962
  10   2.0000      -0.777106       -21.1461
  11   2.0000      -0.729870       -19.8608
  12   2.0000      -0.669647       -18.2220
  13   2.0000      -0.665172       -18.1002
  14   2.0000      -0.638536       -17.3755
  15   2.0000      -0.576862       -15.6972
  16   2.0000      -0.543611       -14.7924
  17   2.0000      -0.530213       -14.4278
  18   2.0000      -0.497241       -13.5306
  19   2.0000      -0.460123       -12.5206
  20   2.0000      -0.419386       -11.4121
  21   2.0000      -0.408780       -11.1235
  22   2.0000      -0.394438       -10.7332
  23   2.0000      -0.387452       -10.5431
  24   2.0000      -0.375565       -10.2196
  25   2.0000      -0.367650       -10.0043
  26   2.0000      -0.353956        -9.6316
  27   2.0000      -0.341329        -9.2880
  28   2.0000      -0.325034        -8.8446
  29   2.0000      -0.320461        -8.7202
  30   2.0000      -0.315776        -8.5927
  31   2.0000      -0.301318        -8.1993
  32   2.0000      -0.285838        -7.7781
  33   2.0000      -0.282623        -7.6906
  34   2.0000      -0.272618        -7.4183
  35   2.0000      -0.224948        -6.1212
  36   2.0000      -0.216076        -5.8797
  37   0.0000      -0.031037        -0.8446
  38   0.0000      -0.027501        -0.7483
  39   0.0000       0.037133         1.0104
  40   0.0000       0.049726         1.3531
  41   0.0000       0.055775         1.5177

MULLIKEN ATOMIC CHARGES
-----------------------
   0 C :   -0.262999
   1 C :   -0.162478
   2 C :   -0.133538
   3 H :    0.055443
   4 C :   -0.246765
   5 C :    0.134298
   6 C :   -0.125876
   7 C :   -0.048054
   8 C :   -0.048870
   9 C :   -0.049528
  10 C :   -0.130866
  11 H :    0.104060
  12 H :    0.096975
  13 H :    0.101787
  14 H :    0.091463
  15 H :    0.084381
  16 H :    0.099332
  17 H :    0.104849
  18 H :    0.107595
  19 H :    0.036712
  20 H :    0.048606
  21 H :    0.050550
  22 H :    0.048676
  23 H :    0.044246
Sum of atomic charges:    0.0000000

LOEWDIN ATOMIC CHARGES
----------------------
   0 C :   -0.341411
   1 C :   -0.219889
   2 C :   -0.136235
   3 H :    0.115601
   4 C :   -0.324638
   5 C :   -0.025729
   6 C :   -0.126790
   7 C :   -0.122235
   8 C :   -0.130003
   9 C :   -0.121355
  10 C :   -0.121323
  11 H :    0.121190
  12 H :    0.117353
  13 H :    0.116965
  14 H :    0.119138
  15 H :    0.114347
  16 H :    0.117413
  17 H :    0.118088
  18 H :    0.123404
  19 H :    0.119844
  20 H :    0.122265
  21 H :    0.121992
  22 H :    0.122152
  23 H :    0.119856

  Mayer bond orders larger than 0.100000
B(  0-C ,  1-C ) :   1.1606 B(  0-C , 11-H ) :   0.9506 B(  0-C , 12-H ) :   0.9522
B(  0-C , 13-H ) :   0.9473 B(  1-C ,  2-C ) :   1.0762 B(  1-C , 14-H ) :   0.9272
B(  1-C , 15-H ) :   0.9135 B(  2-C ,  3-H ) :   0.8836 B(  2-C ,  4-C ) :   1.0939
B(  2-C ,  5-C ) :   1.0122 B(  4-C , 16-H ) :   0.9450 B(  4-C , 17-H ) :   0.9434
B(  4-C , 18-H ) :   0.9499 B(  5-C ,  6-C ) :   1.4023 B(  5-C , 10-C ) :   1.3648
B(  6-C ,  7-C ) :   1.3627 B(  6-C , 19-H ) :   0.9597 B(  7-C ,  8-C ) :   1.3850
B(  7-C , 20-H ) :   0.9630 B(  8-C ,  9-C ) :   1.3743 B(  8-C , 21-H ) :   0.9651
B(  9-C , 10-C ) :   1.3835 B(  9-C , 22-H ) :   0.9633 B( 10-C , 23-H ) :   0.9598

Dispersion correction           -0.024687616
FINAL SINGLE POINT ENERGY      -388.580925526899

DIPOLE MOMENT
-------------

Method             : SCF
Type of density    : Electron Density
Multiplicity       :   1
Irrep              :   0
Energy             :  -388.6504775370461857 Eh
Relativity type    :
Basis              : AO
                                X                 Y                 Z
Electronic contribution:    -10.854784668      -0.398188720       0.490721332
Nuclear contribution   :     11.014754439       0.416643117      -0.492990616
                        -----------------------------------------
Total Dipole Moment    :      0.159969771       0.018454397      -0.002269284
                        -----------------------------------------
Magnitude (a.u.)       :      0.161046708
Magnitude (Debye)      :      0.409348200

Rotational constants in cm-1:             0.097866             0.024919             0.024047
Rotational constants in MHz :          2933.951052           747.043365           720.918057

                             ****ORCA TERMINATED NORMALLY****
TOTAL RUN TIME: 0 days 0 hours 0 minutes 12 seconds 611 msec
