                         Program Version 6.0.0  -   RELEASE  -
|  1> ! r2scan-3c def2/J RI DEFGRID2 scfconv6 printgap
|  2> %output
|  3>     printlevel normal
|  4> end
|  5> * xyz 0 1
|  6> C -2.3239859143 0.2393065745 1.1015938721
|  7> C -1.8089545703 0.5758011561 -0.3012206895
|  8> C -0.5289224394 -0.1781882361 -0.5522013106
|  9> O -0.456006149 -1.2546562583 -1.1103375666
| 10> O 0.5182758523 0.4607013481 -0.0540784671
| 11> C 1.8139115819 -0.1559150859 -0.1492790399
| 12> C 2.6745458856 0.3511180158 0.9929263998
| 13> H -1.6020291891 0.5498562384 1.8520695782
| 14> H -3.2620455997 0.7558289585 1.2807351277
| 15> H -2.4898824889 -0.8312930958 1.1952478663
| 16> H -1.6093736337 1.6437215965 -0.3755178317
| 17> H -2.5394909157 0.2744845726 -1.0509764875
| 18> H 1.6850083199 -1.242577387 -0.1161013674
| 19> H 2.2415022411 0.1147870166 -1.1197001509
| 20> H 2.7445109022 1.4339943242 0.9501819472
| 21> H 2.2415367099 0.0648126511 1.9471102637
| 22> H 3.668242668 -0.0766620512 0.9098323873
| 23> *
| 24>
| 25>                          ****END OF INPUT****

CARTESIAN COORDINATES (ANGSTROEM)
---------------------------------
  C     -2.323986    0.239307    1.101594
  C     -1.808955    0.575801   -0.301221
  C     -0.528922   -0.178188   -0.552201
  O     -0.456006   -1.254656   -1.110338
  O      0.518276    0.460701   -0.054078
  C      1.813912   -0.155915   -0.149279
  C      2.674546    0.351118    0.992926
  H     -1.602029    0.549856    1.852070
  H     -3.262046    0.755829    1.280735
  H     -2.489882   -0.831293    1.195248
  H     -1.609374    1.643722   -0.375518
  H     -2.539491    0.274485   -1.050976
  H      1.685008   -1.242577   -0.116101
  H      2.241502    0.114787   -1.119700
  H      2.744511    1.433994    0.950182
  H      2.241537    0.064813    1.947110
  H      3.668243   -0.076662    0.909832

 Total Charge           Charge          ....    0
 Multiplicity           Mult            ....    1
 Number of Electrons    NEL             ....   56
 Basis Dimension        Dim             ....  193

ORBITAL ENERGIES
----------------

  NO   OCC          E(Eh)            E(eV)
   0   2.0000     -18.996571      -516.9230
   1   2.0000     -18.925632      -514.9926
   2   2.0000     -10.150258      -276.2026
   3   2.0000     -10.091122      -274.5934
   4   2.0000     -10.043016      -273.2843
   5   2.0000     -10.032580      -273.0004
   6   2.0000     -10.031847      -272.9804
   7   2.0000      -1.071363       -29.1533
   8   2.0000      -0.973185       -26.4817
   9   2.0000      -0.766965       -20.8702
  10   2.0000      -0.733458       -19.9584
  11   2.0000      -0.639022       -17.3887
  12   2.0000      -0.595104       -16.1936
  13   2.0000      -0.533129       -14.5072
  14   2.0000      -0.465470       -12.6661
  15   2.0000      -0.461727       -12.5642
  16   2.0000      -0.440755       -11.9936
  17   2.0000      -0.410302       -11.1649
  18   2.0000      -0.399775       -10.8784
  19   2.0000      -0.382715       -10.4142
  20   2.0000      -0.373744       -10.1701
  21   2.0000      -0.349550        -9.5117
  22   2.0000      -0.343684        -9.3521
  23   2.0000      -0.327296        -8.9062
  24   2.0000      -0.324388        -8.8270
  25   2.0000      -0.309352        -8.4179
  26   2.0000      -0.270158        -7.3514
  27   2.0000      -0.231787        -6.3073
  28   0.0000      -0.013397        -0.3646
  29   0.0000       0.073642         2.0039
  30   0.0000       0.095643         2.6026
  31   0.0000       0.119394         3.2489
  32   0.0000       0.122400         3.3307

MULLIKEN ATOMIC CHARGES
-----------------------
   0 C :   -0.472545
   1 C :   -0.293590
   2 C :    0.407850
   3 O :   -0.430693
   4 O :   -0.171976
   5 C :   -0.151565
   6 C :   -0.441620
   7 H :    0.155434
   8 H :    0.153618
   9 H :    0.159841
  10 H :    0.152100
  11 H :    0.161997
  12 H :    0.174189
  13 H :    0.145865
  14 H :    0.152501
  15 H :    0.151337
  16 H :    0.147257
Sum of atomic charges:    0.0000000

LOEWDIN ATOMIC CHARGES
----------------------
   0 C :   -0.392606
   1 C :   -0.236704
   2 C :    0.354854
   3 O :   -0.432358
   4 O :   -0.598006
   5 C :    0.033225
   6 C :   -0.387311
   7 H :    0.157216
   8 H :    0.153050
   9 H :    0.159528
  10 H :    0.173632
  11 H :    0.174518
  12 H :    0.189262
  13 H :    0.175012
  14 H :    0.158955
  15 H :    0.158221
  16 H :    0.159512

  Mayer bond orders larger than 0.100000
B(  0-C ,  1-C ) :   0.8959 B(  0-C ,  7-H ) :   0.9774 B(  0-C ,  8-H ) :   0.9706
B(  0-C ,  9-H ) :   0.9748 B(  1-C ,  2-C ) :   0.9529 B(  1-C , 10-H ) :   0.9732
B(  1-C , 11-H ) :   0.9764 B(  2-C ,  3-O ) :   1.8330 B(  2-C ,  4-O ) :   1.0573
B(  4-O ,  5-C ) :   0.7935 B(  5-C ,  6-C ) :   0.9447 B(  5-C , 12-H ) :   0.9627
B(  5-C , 13-H ) :   0.9479 B(  6-C , 14-H ) :   0.9688 B(  6-C , 15-H ) :   0.9739
B(  6-C , 16-H ) :   0.9682

Dispersion correction           -0.003919882
FINAL SINGLE POINT ENERGY      -346.935320695962

DIPOLE MOMENT
-------------

Method             : SCF
Type of density    : Electron Density
Multiplicity       :   1
Irrep              :   0
Energy             :  -346.9417689850243391 Eh
Relativity type    :
Basis              : AO
                                X                 Y                 Z
Electronic contribution:     -0.723974667      -1.847973904      -4.581948651
Nuclear contribution   :      1.012247775       2.509039711       5.117213949
                        -----------------------------------------
Total Dipole Moment    :      0.288273108       0.661065808       0.535265298
                        -----------------------------------------
Magnitude (a.u.)       :      0.898119328
Magnitude (Debye)      :      2.282837911

Rotational constants in cm-1:             0.155870             0.051596             0.043165
Rotational constants in MHz :          4672.865246          1546.810040          1294.048634

                             ****ORCA TERMINATED NORMALLY****
TOTAL RUN TIME: 0 days 0 hours 0 minutes 21 seconds 197 msec
