                         Program Version 6.0.0  -   RELEASE  -
|  1> ! r2scan-3c def2/J RI DEFGRID2 scfconv6 printgap
|  2> %output
|  3>     printlevel normal
|  4> end
|  5> %cpcm
|  6>     smd true
|  7>     smdsolvent "water"
|  8> end
|  9> * xyz 0 1
| 10> C -2.3239859143 0.2393065745 1.1015938721
| 11> C -1.8089545703 0.5758011561 -0.3012206895
| 12> C -0.5289224394 -0.1781882361 -0.5522013106
| 13> O -0.456006149 -1.2546562583 -1.1103375666
| 14> O 0.5182758523 0.4607013481 -0.0540784671
| 15> C 1.8139115819 -0.1559150859 -0.1492790399
| 16> C 2.6745458856 0.3511180158 0.9929263998
| 17> H -1.6020291891 0.5498562384 1.8520695782
| 18> H -3.2620455997 0.7558289585 1.2807351277
| 19> H -2.4898824889 -0.8312930958 1.1952478663
| 20> H -1.6093736337 1.6437215965 -0.3755178317
| 21> H -2.5394909157 0.2744845726 -1.0509764875
| 22> H 1.6850083199 -1.242577387 -0.1161013674
| 23> H 2.2415022411 0.1147870166 -1.1197001509
| 24> H 2.7445109022 1.4339943242 0.9501819472
| 25> H 2.2415367099 0.0648126511 1.9471102637
| 26> H 3.668242668 -0.0766620512 0.9098323873
| 27> *
| 28>
| 29>                          ****END OF INPUT****

CARTESIAN COORDINATES (ANGSTROEM)
---------------------------------
  C     -2.323986    0.239307    1.101594
  C     -1.808955    0.575801   -0.301221
  C     -0.528922   -0.178188   -0.552201
  O     -0.456006   -1.254656   -1.110338
  O      0.518276    0.460701   -0.054078
  C      1.813912   -0.155915   -0.149279
  C      2.674546    0.351118    0.992926
  H     -1.602029    0.549856    1.852070
  H     -3.262046    0.755829    1.280735
  H     -2.489882   -0.831293    1.195248
  H     -1.609374    1.643722   -0.375518
  H     -2.539491    0.274485   -1.050976
  H      1.685008   -1.242577   -0.116101
  H      2.241502    0.114787   -1.119700
  H      2.744511    1.433994    0.950182
  H      2.241537    0.064813    1.947110
  H      3.668243   -0.076662    0.909832

 Total Charge           Charge          ....    0
 Multiplicity           Mult            ....    1
 Number of Electrons    NEL             ....   56
 Basis Dimension        Dim             ....  193

ORBITAL ENERGIES
----------------

  NO   OCC          E(Eh)            E(eV)
   0   2.0000     -19.002532      -517.0852
   1   2.0000     -18.942829      -515.4606
   2   2.0000     -10.161801      -276.5167
   3   2.0000     -10.083367      -274.3824
   4   2.0000     -10.037496      -273.1342
   5   2.0000     -10.022367      -272.7225
   6   2.0000     -10.018730      -272.6235
   7   2.0000      -1.079155       -29.3653
   8   2.0000      -0.988111       -26.8879
   9   2.0000      -0.762603       -20.7515
  10   2.0000      -0.724921       -19.7261
  11   2.0000      -0.632641       -17.2150
  12   2.0000      -0.588098       -16.0030
  13   2.0000      -0.531649       -14.4669
  14   2.0000      -0.468388       -12.7455
  15   2.0000      -0.458760       -12.4835
  16   2.0000      -0.449731       -12.2378
  17   2.0000      -0.409275       -11.1369
  18   2.0000      -0.397297       -10.8110
  19   2.0000      -0.378309       -10.2943
  20   2.0000      -0.362081        -9.8527
  21   2.0000      -0.340712        -9.2713
  22   2.0000      -0.339318        -9.2333
  23   2.0000      -0.325215        -8.8496
  24   2.0000      -0.317558        -8.6412
  25   2.0000      -0.310081        -8.4377
  26   2.0000      -0.276637        -7.5277
  27   2.0000      -0.248908        -6.7731
  28   0.0000      -0.022339        -0.6079
  29   0.0000       0.077147         2.0993
  30   0.0000       0.105292         2.8651
  31   0.0000       0.127860         3.4792
  32   0.0000       0.131073         3.5667

MULLIKEN ATOMIC CHARGES
-----------------------
   0 C :   -0.492396
   1 C :   -0.309159
   2 C :    0.447106
   3 O :   -0.518720
   4 O :   -0.187067
   5 C :   -0.148307
   6 C :   -0.486958
   7 H :    0.165937
   8 H :    0.172919
   9 H :    0.164788
  10 H :    0.174413
  11 H :    0.174094
  12 H :    0.173586
  13 H :    0.171426
  14 H :    0.164478
  15 H :    0.165200
  16 H :    0.168662
Sum of atomic charges:   -0.0000000

LOEWDIN ATOMIC CHARGES
----------------------
   0 C :   -0.393784
   1 C :   -0.233939
   2 C :    0.364232
   3 O :   -0.495576
   4 O :   -0.598099
   5 C :    0.036786
   6 C :   -0.390220
   7 H :    0.160698
   8 H :    0.160456
   9 H :    0.160698
  10 H :    0.183273
  11 H :    0.179323
  12 H :    0.189834
  13 H :    0.184096
  14 H :    0.162368
  15 H :    0.161755
  16 H :    0.168098

  Mayer bond orders larger than 0.100000
B(  0-C ,  1-C ) :   0.8882 B(  0-C ,  7-H ) :   0.9731 B(  0-C ,  8-H ) :   0.9655
B(  0-C ,  9-H ) :   0.9717 B(  1-C ,  2-C ) :   0.9528 B(  1-C , 10-H ) :   0.9635
B(  1-C , 11-H ) :   0.9720 B(  2-C ,  3-O ) :   1.7592 B(  2-C ,  4-O ) :   1.0867
B(  4-O ,  5-C ) :   0.7813 B(  5-C ,  6-C ) :   0.9431 B(  5-C , 12-H ) :   0.9580
B(  5-C , 13-H ) :   0.9388 B(  6-C , 14-H ) :   0.9660 B(  6-C , 15-H ) :   0.9719
B(  6-C , 16-H ) :   0.9618

Dispersion correction           -0.003919882
FINAL SINGLE POINT ENERGY      -346.940838336585

DIPOLE MOMENT
-------------

Method             : SCF
Type of density    : Electron Density
Multiplicity       :   1
Irrep              :   0
Energy             :  -346.9472866256471093 Eh
Relativity type    :
Basis              : AO
                                X                 Y                 Z
Electronic contribution:     -0.638642973      -1.569080269      -4.397977550
Nuclear contribution   :      1.012247775       2.509039711       5.117213949
                        -----------------------------------------
Total Dipole Moment    :      0.373604802       0.939959443       0.719236400
                        -----------------------------------------
Magnitude (a.u.)       :      1.241130654
Magnitude (Debye)      :      3.154703415

Rotational constants in cm-1:             0.155870             0.051596             0.043165
Rotational constants in MHz :          4672.865246          1546.810040          1294.048634

                             ****ORCA TERMINATED NORMALLY****
TOTAL RUN TIME: 0 days 0 hours 0 minutes 24 seconds 833 msec
