                         Program Version 6.0.0  -   RELEASE  -
|  1> ! r2scan-3c def2/J RI DEFGRID2 scfconv6 printgap
|  2> %output
|  3>     printlevel normal
|  4> end
|  5> * xyz 0 1
|  6> C -2.2134532534 0.9211274716 0.1906703211
|  7> C -0.8576064727 0.6622499137 -0.4552678573
|  8> C -0.0364535842 -0.413140002 0.265096558
|  9> H -0.0674505752 -0.210069481 1.3423830251
| 10> C -0.5808023526 -1.8166267858 0.0148867617
| 11> C 1.4279765903 -0.3399390858 -0.1915264768
| 12> O 2.0500886022 0.8905296013 0.1107102989
| 13> H -2.8410023629 0.0346581134 0.1515182848
| 14> H -2.0920897387 1.2118718289 1.2318236821
| 15> H -2.7285674121 1.7240919544 -0.3306762571
| 16> H -0.2786921081 1.5890695557 -0.4561861745
| 17> H -0.9988557838 0.3625261229 -1.4960114427
| 18> H 0.0187035333 -2.5572555944 0.5390141378
| 19> H -0.5582164694 -2.0460330349 -1.047965144
| 20> H -1.605369743 -1.8976858893 0.3653438082
| 21> H 1.4818028633 -0.4307707796 -1.2794737352
| 22> H 1.9976693135 -1.1686926051 0.250875833
| 23> H 2.0651084852 1.0059623662 1.0709826286
| 24> *
| 25>
| 26>                          ****END OF INPUT****

CARTESIAN COORDINATES (ANGSTROEM)
---------------------------------
  C     -2.213453    0.921127    0.190670
  C     -0.857606    0.662250   -0.455268
  C     -0.036454   -0.413140    0.265097
  H     -0.067451   -0.210069    1.342383
  C     -0.580802   -1.816627    0.014887
  C      1.427977   -0.339939   -0.191526
  O      2.050089    0.890530    0.110710
  H     -2.841002    0.034658    0.151518
  H     -2.092090    1.211872    1.231824
  H     -2.728567    1.724092   -0.330676
  H     -0.278692    1.589070   -0.456186
  H     -0.998856    0.362526   -1.496011
  H      0.018704   -2.557256    0.539014
  H     -0.558216   -2.046033   -1.047965
  H     -1.605370   -1.897686    0.365344
  H      1.481803   -0.430771   -1.279474
  H      1.997669   -1.168693    0.250876
  H      2.065108    1.005962    1.070983

 Total Charge           Charge          ....    0
 Multiplicity           Mult            ....    1
 Number of Electrons    NEL             ....   50
 Basis Dimension        Dim             ....  179

ORBITAL ENERGIES
----------------

  NO   OCC          E(Eh)            E(eV)
   0   2.0000     -18.946952      -515.5728
   1   2.0000     -10.071237      -274.0523
   2   2.0000     -10.033561      -273.0271
   3   2.0000     -10.020360      -272.6679
   4   2.0000     -10.019687      -272.6495
   5   2.0000     -10.015133      -272.5256
   6   2.0000      -0.984081       -26.7782
   7   2.0000      -0.774989       -21.0885
   8   2.0000      -0.699046       -19.0220
   9   2.0000      -0.641566       -17.4579
  10   2.0000      -0.592842       -16.1320
  11   2.0000      -0.536647       -14.6029
  12   2.0000      -0.467871       -12.7314
  13   2.0000      -0.435196       -11.8423
  14   2.0000      -0.420009       -11.4290
  15   2.0000      -0.395326       -10.7574
  16   2.0000      -0.383835       -10.4447
  17   2.0000      -0.362885        -9.8746
  18   2.0000      -0.355198        -9.6654
  19   2.0000      -0.329280        -8.9602
  20   2.0000      -0.315187        -8.5767
  21   2.0000      -0.299389        -8.1468
  22   2.0000      -0.294735        -8.0202
  23   2.0000      -0.278043        -7.5659
  24   2.0000      -0.233346        -6.3497
  25   0.0000       0.061394         1.6706
  26   0.0000       0.087036         2.3684
  27   0.0000       0.111490         3.0338
  28   0.0000       0.120062         3.2671
  29   0.0000       0.133615         3.6358

MULLIKEN ATOMIC CHARGES
-----------------------
   0 C :   -0.502379
   1 C :   -0.234227
   2 C :   -0.034616
   3 H :    0.137638
   4 C :   -0.525147
   5 C :   -0.176586
   6 O :   -0.419799
   7 H :    0.141032
   8 H :    0.144396
   9 H :    0.148557
  10 H :    0.174173
  11 H :    0.134227
  12 H :    0.145628
  13 H :    0.153462
  14 H :    0.151255
  15 H :    0.138858
  16 H :    0.129753
  17 H :    0.293774
Sum of atomic charges:   -0.0000000

LOEWDIN ATOMIC CHARGES
----------------------
   0 C :   -0.422168
   1 C :   -0.307635
   2 C :   -0.233699
   3 H :    0.155395
   4 C :   -0.413182
   5 C :    0.005887
   6 O :   -0.623028
   7 H :    0.147447
   8 H :    0.149187
   9 H :    0.151531
  10 H :    0.168924
  11 H :    0.154649
  12 H :    0.153966
  13 H :    0.155798
  14 H :    0.155387
  15 H :    0.179422
  16 H :    0.157734
  17 H :    0.264385

  Mayer bond orders larger than 0.100000
B(  0-C ,  1-C ) :   0.8941 B(  0-C ,  7-H ) :   0.9823 B(  0-C ,  8-H ) :   0.9927
B(  0-C ,  9-H ) :   0.9732 B(  1-C ,  2-C ) :   0.8804 B(  1-C , 10-H ) :   0.9700
B(  1-C , 11-H ) :   0.9545 B(  2-C ,  3-H ) :   0.9736 B(  2-C ,  4-C ) :   0.9009
B(  2-C ,  5-C ) :   0.9040 B(  4-C , 12-H ) :   0.9701 B(  4-C , 13-H ) :   0.9887
B(  4-C , 14-H ) :   0.9713 B(  5-C ,  6-O ) :   0.9677 B(  5-C , 15-H ) :   0.9734
B(  5-C , 16-H ) :   0.9865 B(  6-O , 17-H ) :   0.8960

Dispersion correction           -0.004350162
FINAL SINGLE POINT ENERGY      -272.898648481381

DIPOLE MOMENT
-------------

Method             : SCF
Type of density    : Electron Density
Multiplicity       :   1
Irrep              :   0
Energy             :  -272.9041875908590100 Eh
Relativity type    :
Basis              : AO
                                X                 Y                 Z
Electronic contribution:      4.982175371       1.886165233       0.096940217
Nuclear contribution   :     -5.229821694      -2.221797096       0.322146561
                        -----------------------------------------
Total Dipole Moment    :     -0.247646323      -0.335631863       0.419086777
                        -----------------------------------------
Magnitude (a.u.)       :      0.591279271
Magnitude (Debye)      :      1.502912468

Rotational constants in cm-1:             0.152963             0.079208             0.057433
Rotational constants in MHz :          4585.724223          2374.589047          1721.802606

                             ****ORCA TERMINATED NORMALLY****
TOTAL RUN TIME: 0 days 0 hours 0 minutes 23 seconds 21 msec
