                         Program Version 6.0.0  -   RELEASE  -
|  1> ! pbe def2-sv(p) def2/J RI DEFGRID1 loosescf d4 GCP(DFT/SV(P)) printgap
|  2> %output
|  3>     printlevel normal
|  4> end
|  5> * xyz 0 1
|  6> C -3.630917482 1.0395056526 -0.1923275553
|  7> O -2.2951487088 1.4779227895 -0.011933955
|  8> C -1.2386582214 0.6356774596 0.0101891021
|  9> C -1.183451158 -0.7537629241 -0.0731426977
| 10> C 0.0293225271 -1.4286346615 -0.0124007155
| 11> C 1.2188587483 -0.7419582166 0.1180533859
| 12> C 1.2209367776 0.6502883283 0.1730034751
| 13> C -0.0070891653 1.3174846735 0.1345633317
| 14> O -0.0471752164 2.6618894592 0.2232220666
| 15> O 2.3266450911 1.4555032732 0.3174368145
| 16> C 3.3450728287 1.3550975061 -0.6780487781
| 17> Cl 2.6798813419 -1.6635954544 0.2612915065
| 18> Cl -2.5836063786 -1.7749922129 -0.2331461736
| 19> H -4.2141025387 1.9582330904 -0.1983234613
| 20> H -3.9592963121 0.4035799071 0.6308569859
| 21> H -3.7576139158 0.5189186711 -1.1424375785
| 22> H 0.0355380903 -2.5049594619 -0.0588313161
| 23> H 0.8633555848 2.9926885319 0.3423957112
| 24> H 2.9163744776 1.4567895587 -1.676981836
| 25> H 3.8885710699 0.4134178851 -0.608214736
| 26> H 4.0202309701 2.1820808184 -0.4733744098
| 27> *
| 28>
| 29>                          ****END OF INPUT****

CARTESIAN COORDINATES (ANGSTROEM)
---------------------------------
  C     -3.630917    1.039506   -0.192328
  O     -2.295149    1.477923   -0.011934
  C     -1.238658    0.635677    0.010189
  C     -1.183451   -0.753763   -0.073143
  C      0.029323   -1.428635   -0.012401
  C      1.218859   -0.741958    0.118053
  C      1.220937    0.650288    0.173003
  C     -0.007089    1.317485    0.134563
  O     -0.047175    2.661889    0.223222
  O      2.326645    1.455503    0.317437
  C      3.345073    1.355098   -0.678049
  Cl     2.679881   -1.663595    0.261292
  Cl    -2.583606   -1.774992   -0.233146
  H     -4.214103    1.958233   -0.198323
  H     -3.959296    0.403580    0.630857
  H     -3.757614    0.518919   -1.142438
  H      0.035538   -2.504959   -0.058831
  H      0.863356    2.992689    0.342396
  H      2.916374    1.456790   -1.676982
  H      3.888571    0.413418   -0.608215
  H      4.020231    2.182081   -0.473374

 Total Charge           Charge          ....    0
 Multiplicity           Mult            ....    1
 Number of Electrons    NEL             ....  114
 Basis Dimension        Dim             ....  206

ORBITAL ENERGIES
----------------

  NO   OCC          E(Eh)            E(eV)
   0   2.0000    -100.647119     -2738.7473
   1   2.0000    -100.645482     -2738.7028
   2   2.0000     -18.799095      -511.5494
   3   2.0000     -18.792242      -511.3629
   4   2.0000     -18.785839      -511.1887
   5   2.0000      -9.965454      -271.1738
   6   2.0000      -9.960493      -271.0388
   7   2.0000      -9.958458      -270.9834
   8   2.0000      -9.954158      -270.8664
   9   2.0000      -9.951287      -270.7883
  10   2.0000      -9.942823      -270.5580
  11   2.0000      -9.937575      -270.4152
  12   2.0000      -9.902294      -269.4551
  13   2.0000      -9.182455      -249.8673
  14   2.0000      -9.180879      -249.8244
  15   2.0000      -7.013899      -190.8579
  16   2.0000      -7.012448      -190.8184
  17   2.0000      -7.002315      -190.5427
  18   2.0000      -7.001927      -190.5321
  19   2.0000      -7.000615      -190.4964
  20   2.0000      -7.000314      -190.4882
  21   2.0000      -0.990111       -26.9423
  22   2.0000      -0.973888       -26.5008
  23   2.0000      -0.953547       -25.9473
  24   2.0000      -0.821947       -22.3663
  25   2.0000      -0.797359       -21.6972
  26   2.0000      -0.750681       -20.4271
  27   2.0000      -0.690612       -18.7925
  28   2.0000      -0.676781       -18.4161
  29   2.0000      -0.626870       -17.0580
  30   2.0000      -0.617285       -16.7972
  31   2.0000      -0.570724       -15.5302
  32   2.0000      -0.539282       -14.6746
  33   2.0000      -0.503344       -13.6967
  34   2.0000      -0.491125       -13.3642
  35   2.0000      -0.469693       -12.7810
  36   2.0000      -0.450401       -12.2560
  37   2.0000      -0.432471       -11.7681
  38   2.0000      -0.424561       -11.5529
  39   2.0000      -0.420564       -11.4441
  40   2.0000      -0.408742       -11.1224
  41   2.0000      -0.387877       -10.5547
  42   2.0000      -0.378602       -10.3023
  43   2.0000      -0.375056       -10.2058
  44   2.0000      -0.364366        -9.9149
  45   2.0000      -0.338495        -9.2109
  46   2.0000      -0.329602        -8.9689
  47   2.0000      -0.321446        -8.7470
  48   2.0000      -0.312319        -8.4986
  49   2.0000      -0.299255        -8.1431
  50   2.0000      -0.292666        -7.9639
  51   2.0000      -0.279383        -7.6024
  52   2.0000      -0.263111        -7.1596
  53   2.0000      -0.256778        -6.9873
  54   2.0000      -0.249680        -6.7941
  55   2.0000      -0.196882        -5.3574
  56   2.0000      -0.182040        -4.9536
  57   0.0000      -0.033530        -0.9124
  58   0.0000      -0.031320        -0.8522
  59   0.0000      -0.016159        -0.4397
  60   0.0000       0.029039         0.7902
  61   0.0000       0.031404         0.8545

MULLIKEN ATOMIC CHARGES
-----------------------
   0 C :   -0.108532
   1 O :   -0.253434
   2 C :    0.151211
   3 C :    0.001980
   4 C :   -0.163970
   5 C :    0.047941
   6 C :    0.133941
   7 C :    0.012825
   8 O :   -0.307356
   9 O :   -0.313529
  10 C :   -0.106588
  11 Cl:   -0.065676
  12 Cl:   -0.077611
  13 H :    0.122499
  14 H :    0.115144
  15 H :    0.113476
  16 H :    0.030371
  17 H :    0.318995
  18 H :    0.106652
  19 H :    0.121822
  20 H :    0.119839
Sum of atomic charges:   -0.0000000

LOEWDIN ATOMIC CHARGES
----------------------
   0 C :   -0.212191
   1 O :   -0.074298
   2 C :   -0.009097
   3 C :   -0.172864
   4 C :   -0.179067
   5 C :   -0.168093
   6 C :   -0.038924
   7 C :    0.002510
   8 O :   -0.213027
   9 O :   -0.120175
  10 C :   -0.206320
  11 Cl:    0.147939
  12 Cl:    0.146116
  13 H :    0.120418
  14 H :    0.107315
  15 H :    0.107320
  16 H :    0.134898
  17 H :    0.295145
  18 H :    0.110444
  19 H :    0.102196
  20 H :    0.119755

  Mayer bond orders larger than 0.100000
B(  0-C ,  1-O ) :   0.9561 B(  0-C , 13-H ) :   0.9551 B(  0-C , 14-H ) :   0.9459
B(  0-C , 15-H ) :   0.9460 B(  1-O ,  2-C ) :   1.2319 B(  2-C ,  3-C ) :   1.3727
B(  2-C ,  7-C ) :   1.2910 B(  3-C ,  4-C ) :   1.2946 B(  3-C , 12-Cl) :   0.9635
B(  4-C ,  5-C ) :   1.3414 B(  4-C , 16-H ) :   0.9811 B(  5-C ,  6-C ) :   1.3437
B(  5-C , 11-Cl) :   0.9629 B(  6-C ,  7-C ) :   1.3207 B(  6-C ,  9-O ) :   1.1185
B(  7-C ,  8-O ) :   1.3105 B(  8-O , 17-H ) :   0.8062 B(  9-O , 10-C ) :   0.9476
B( 10-C , 18-H ) :   0.9435 B( 10-C , 19-H ) :   0.9335 B( 10-C , 20-H ) :   0.9619

Dispersion correction           -0.027675021
FINAL SINGLE POINT ENERGY     -1453.921036721441

DIPOLE MOMENT
-------------

Method             : SCF
Type of density    : Electron Density
Multiplicity       :   1
Irrep              :   0
Energy             : -1453.9902501329429469 Eh
Relativity type    :
Basis              : AO
                                X                 Y                 Z
Electronic contribution:      0.536777388     -11.288856328       2.603953564
Nuclear contribution   :     -0.323601179      11.660053099      -3.017953896
                        -----------------------------------------
Total Dipole Moment    :      0.213176208       0.371196771      -0.414000332
                        -----------------------------------------
Magnitude (a.u.)       :      0.595506015
Magnitude (Debye)      :      1.513655998

Rotational constants in cm-1:             0.031240             0.014865             0.010288
Rotational constants in MHz :           936.551727           445.652025           308.416612

                             ****ORCA TERMINATED NORMALLY****
TOTAL RUN TIME: 0 days 0 hours 0 minutes 19 seconds 329 msec
