                         Program Version 6.0.0  -   RELEASE  -
|  1> ! pbe def2-sv(p) def2/J RI DEFGRID1 loosescf d4 GCP(DFT/SV(P)) printgap
|  2> %output
|  3>     printlevel normal
|  4> end
|  5> * xyz 0 1
|  6> C -2.289057254 1.09484417 0.1884637853
|  7> C -1.8100100903 -0.3521413765 0.1594140279
|  8> C -0.5587588153 -0.6084231837 -0.6864400916
|  9> C 0.7872047434 -0.1485730581 -0.0832838351
| 10> C 1.0621841861 1.3381305845 -0.3441538825
| 11> C 1.915335088 -0.9738133902 -0.7233555727
| 12> O 0.7387162957 -0.4069695682 1.3159230284
| 13> H -2.3231449633 1.5094897859 -0.8166256353
| 14> H -1.6390066677 1.7121246858 0.801365103
| 15> H -3.2890354982 1.1431408357 0.6140949094
| 16> H -1.6180828745 -0.6934219585 1.1773071596
| 17> H -2.6099026478 -0.9707954528 -0.2549330174
| 18> H -0.4925572879 -1.6883804929 -0.8351964483
| 19> H -0.6756993188 -0.1429525332 -1.6660317288
| 20> H 2.0563925569 1.6027464056 0.0117692246
| 21> H 0.3377336873 1.9611003867 0.1692017443
| 22> H 1.0118887849 1.5454816716 -1.408864199
| 23> H 2.8875579459 -0.6251711066 -0.3808991802
| 24> H 1.8760348283 -0.8842085602 -1.8049897886
| 25> H 1.8074562146 -2.0217472266 -0.4526735332
| 26> H 1.5869564954 -0.1583562404 1.7059563249
| 27> *
| 28>
| 29>                          ****END OF INPUT****

CARTESIAN COORDINATES (ANGSTROEM)
---------------------------------
  C     -2.289057    1.094844    0.188464
  C     -1.810010   -0.352141    0.159414
  C     -0.558759   -0.608423   -0.686440
  C      0.787205   -0.148573   -0.083284
  C      1.062184    1.338131   -0.344154
  C      1.915335   -0.973813   -0.723356
  O      0.738716   -0.406970    1.315923
  H     -2.323145    1.509490   -0.816626
  H     -1.639007    1.712125    0.801365
  H     -3.289035    1.143141    0.614095
  H     -1.618083   -0.693422    1.177307
  H     -2.609903   -0.970795   -0.254933
  H     -0.492557   -1.688380   -0.835196
  H     -0.675699   -0.142953   -1.666032
  H      2.056393    1.602746    0.011769
  H      0.337734    1.961100    0.169202
  H      1.011889    1.545482   -1.408864
  H      2.887558   -0.625171   -0.380899
  H      1.876035   -0.884209   -1.804990
  H      1.807456   -2.021747   -0.452674
  H      1.586956   -0.158356    1.705956

 Total Charge           Charge          ....    0
 Multiplicity           Mult            ....    1
 Number of Electrons    NEL             ....   58
 Basis Dimension        Dim             ....  126

ORBITAL ENERGIES
----------------

  NO   OCC          E(Eh)            E(eV)
   0   2.0000     -18.738931      -509.9122
   1   2.0000      -9.945805      -270.6391
   2   2.0000      -9.877149      -268.7709
   3   2.0000      -9.872511      -268.6447
   4   2.0000      -9.872121      -268.6341
   5   2.0000      -9.872064      -268.6325
   6   2.0000      -9.865154      -268.4445
   7   2.0000      -0.917884       -24.9769
   8   2.0000      -0.717761       -19.5313
   9   2.0000      -0.676679       -18.4134
  10   2.0000      -0.617469       -16.8022
  11   2.0000      -0.604955       -16.4617
  12   2.0000      -0.530219       -14.4280
  13   2.0000      -0.500618       -13.6225
  14   2.0000      -0.432234       -11.7617
  15   2.0000      -0.409023       -11.1301
  16   2.0000      -0.403386       -10.9767
  17   2.0000      -0.380031       -10.3412
  18   2.0000      -0.362772        -9.8715
  19   2.0000      -0.360806        -9.8180
  20   2.0000      -0.344580        -9.3765
  21   2.0000      -0.336709        -9.1623
  22   2.0000      -0.322138        -8.7658
  23   2.0000      -0.308035        -8.3821
  24   2.0000      -0.291040        -7.9196
  25   2.0000      -0.279048        -7.5933
  26   2.0000      -0.277068        -7.5394
  27   2.0000      -0.257671        -7.0116
  28   2.0000      -0.211404        -5.7526
  29   0.0000       0.019033         0.5179
  30   0.0000       0.058492         1.5916
  31   0.0000       0.072496         1.9727
  32   0.0000       0.074537         2.0282
  33   0.0000       0.076705         2.0872

MULLIKEN ATOMIC CHARGES
-----------------------
   0 C :   -0.290755
   1 C :   -0.156914
   2 C :   -0.130810
   3 C :   -0.040063
   4 C :   -0.220868
   5 C :   -0.224606
   6 O :   -0.422048
   7 H :    0.089666
   8 H :    0.116873
   9 H :    0.096934
  10 H :    0.101882
  11 H :    0.076793
  12 H :    0.073761
  13 H :    0.075103
  14 H :    0.080763
  15 H :    0.107473
  16 H :    0.092059
  17 H :    0.082436
  18 H :    0.095277
  19 H :    0.104509
  20 H :    0.292536
Sum of atomic charges:    0.0000000

LOEWDIN ATOMIC CHARGES
----------------------
   0 C :   -0.344091
   1 C :   -0.235013
   2 C :   -0.216801
   3 C :   -0.013935
   4 C :   -0.340380
   5 C :   -0.339231
   6 O :   -0.316849
   7 H :    0.112649
   8 H :    0.116513
   9 H :    0.118269
  10 H :    0.123769
  11 H :    0.114074
  12 H :    0.118493
  13 H :    0.115977
  14 H :    0.110962
  15 H :    0.120951
  16 H :    0.121659
  17 H :    0.109931
  18 H :    0.122123
  19 H :    0.119958
  20 H :    0.280970

  Mayer bond orders larger than 0.100000
B(  0-C ,  1-C ) :   1.1604 B(  0-C ,  7-H ) :   0.9542 B(  0-C ,  8-H ) :   0.9426
B(  0-C ,  9-H ) :   0.9482 B(  1-C ,  2-C ) :   1.1419 B(  1-C , 10-H ) :   0.9117
B(  1-C , 11-H ) :   0.9249 B(  2-C ,  3-C ) :   1.0374 B(  2-C , 12-H ) :   0.9091
B(  2-C , 13-H ) :   0.9160 B(  3-C ,  4-C ) :   1.0917 B(  3-C ,  5-C ) :   1.0871
B(  3-C ,  6-O ) :   1.0144 B(  4-C , 14-H ) :   0.9379 B(  4-C , 15-H ) :   0.9334
B(  4-C , 16-H ) :   0.9376 B(  5-C , 17-H ) :   0.9411 B(  5-C , 18-H ) :   0.9407
B(  5-C , 19-H ) :   0.9387 B(  6-O , 20-H ) :   0.8531

Dispersion correction           -0.017032501
FINAL SINGLE POINT ENERGY      -311.518066689908

DIPOLE MOMENT
-------------

Method             : SCF
Type of density    : Electron Density
Multiplicity       :   1
Irrep              :   0
Energy             :  -311.5972296566397404 Eh
Relativity type    :
Basis              : AO
                                X                 Y                 Z
Electronic contribution:      1.470455426      -1.969278181       2.762362235
Nuclear contribution   :     -1.005451469       2.141463712      -2.926791189
                        -----------------------------------------
Total Dipole Moment    :      0.465003957       0.172185531      -0.164428954
                        -----------------------------------------
Magnitude (a.u.)       :      0.522411158
Magnitude (Debye)      :      1.327863636

Rotational constants in cm-1:             0.131377             0.056544             0.053534
Rotational constants in MHz :          3938.576804          1695.144851          1604.913076

                             ****ORCA TERMINATED NORMALLY****
TOTAL RUN TIME: 0 days 0 hours 0 minutes 8 seconds 360 msec
