                         Program Version 6.0.0  -   RELEASE  -
|  1> ! pbe def2-sv(p) def2/J RI DEFGRID1 loosescf d4 GCP(DFT/SV(P)) printgap
|  2> %output
|  3>     printlevel normal
|  4> end
|  5> * xyz 0 1
|  6> C -1.4119911819 1.5895593558 0.0178100755
|  7> C -1.3850811416 0.0879410505 -0.2480659623
|  8> C -0.119981852 -0.6180144319 0.2564084299
|  9> H -0.0255163046 -0.4514222058 1.3356541477
| 10> C -0.240411129 -2.1208193182 0.0046929507
| 11> C 1.1609966534 -0.0729702436 -0.4010954512
| 12> O 1.8018619894 0.9393778236 0.3479177562
| 13> H -1.2435890816 1.7946433935 1.0728565993
| 14> H -0.6599741073 2.1070759527 -0.5731681982
| 15> H -2.3826678011 1.9971035517 -0.2552192217
| 16> H -1.4835793301 -0.0910234411 -1.321471745
| 17> H -2.2469866429 -0.3703434178 0.241700193
| 18> H -1.1441425887 -2.5110329853 0.4660336371
| 19> H 0.6135429957 -2.6494665027 0.4204315075
| 20> H -0.2847547085 -2.3210752826 -1.063538302
| 21> H 0.9441888692 0.2849406322 -1.4168603002
| 22> H 1.9072705603 -0.8676501096 -0.4756942813
| 23> H 1.1950902266 1.6839045856 0.4586468248
| 24> *
| 25>
| 26>                          ****END OF INPUT****

CARTESIAN COORDINATES (ANGSTROEM)
---------------------------------
  C     -1.411991    1.589559    0.017810
  C     -1.385081    0.087941   -0.248066
  C     -0.119982   -0.618014    0.256408
  H     -0.025516   -0.451422    1.335654
  C     -0.240411   -2.120819    0.004693
  C      1.160997   -0.072970   -0.401095
  O      1.801862    0.939378    0.347918
  H     -1.243589    1.794643    1.072857
  H     -0.659974    2.107076   -0.573168
  H     -2.382668    1.997104   -0.255219
  H     -1.483579   -0.091023   -1.321472
  H     -2.246987   -0.370343    0.241700
  H     -1.144143   -2.511033    0.466034
  H      0.613543   -2.649467    0.420432
  H     -0.284755   -2.321075   -1.063538
  H      0.944189    0.284941   -1.416860
  H      1.907271   -0.867650   -0.475694
  H      1.195090    1.683905    0.458647

 Total Charge           Charge          ....    0
 Multiplicity           Mult            ....    1
 Number of Electrons    NEL             ....   50
 Basis Dimension        Dim             ....  108

ORBITAL ENERGIES
----------------

  NO   OCC          E(Eh)            E(eV)
   0   2.0000     -18.735113      -509.8083
   1   2.0000      -9.922968      -270.0177
   2   2.0000      -9.891534      -269.1623
   3   2.0000      -9.888301      -269.0744
   4   2.0000      -9.884401      -268.9682
   5   2.0000      -9.874961      -268.7113
   6   2.0000      -0.911722       -24.8092
   7   2.0000      -0.730587       -19.8803
   8   2.0000      -0.664432       -18.0801
   9   2.0000      -0.598876       -16.2962
  10   2.0000      -0.562651       -15.3105
  11   2.0000      -0.508679       -13.8419
  12   2.0000      -0.460504       -12.5310
  13   2.0000      -0.406020       -11.0484
  14   2.0000      -0.399573       -10.8729
  15   2.0000      -0.384098       -10.4518
  16   2.0000      -0.372617       -10.1394
  17   2.0000      -0.359845        -9.7919
  18   2.0000      -0.327991        -8.9251
  19   2.0000      -0.322001        -8.7621
  20   2.0000      -0.315236        -8.5780
  21   2.0000      -0.289868        -7.8877
  22   2.0000      -0.285164        -7.7597
  23   2.0000      -0.258619        -7.0374
  24   2.0000      -0.206803        -5.6274
  25   0.0000       0.026941         0.7331
  26   0.0000       0.041047         1.1170
  27   0.0000       0.059653         1.6232
  28   0.0000       0.074507         2.0274
  29   0.0000       0.086815         2.3623

MULLIKEN ATOMIC CHARGES
-----------------------
   0 C :   -0.294892
   1 C :   -0.165561
   2 C :   -0.203581
   3 H :    0.074680
   4 C :   -0.246262
   5 C :    0.044497
   6 O :   -0.439956
   7 H :    0.105023
   8 H :    0.104344
   9 H :    0.109970
  10 H :    0.084216
  11 H :    0.084972
  12 H :    0.098021
  13 H :    0.106749
  14 H :    0.096193
  15 H :    0.068398
  16 H :    0.080304
  17 H :    0.292886
Sum of atomic charges:    0.0000000

LOEWDIN ATOMIC CHARGES
----------------------
   0 C :   -0.349519
   1 C :   -0.226407
   2 C :   -0.177992
   3 H :    0.115652
   4 C :   -0.328123
   5 C :   -0.112548
   6 O :   -0.339660
   7 H :    0.118018
   8 H :    0.112858
   9 H :    0.124567
  10 H :    0.114152
  11 H :    0.115527
  12 H :    0.117630
  13 H :    0.119322
  14 H :    0.117234
  15 H :    0.093416
  16 H :    0.111398
  17 H :    0.274475

  Mayer bond orders larger than 0.100000
B(  0-C ,  1-C ) :   1.1555 B(  0-C ,  7-H ) :   0.9487 B(  0-C ,  8-H ) :   0.9376
B(  0-C ,  9-H ) :   0.9472 B(  1-C ,  2-C ) :   1.0912 B(  1-C , 10-H ) :   0.9188
B(  1-C , 11-H ) :   0.9261 B(  2-C ,  3-H ) :   0.8984 B(  2-C ,  4-C ) :   1.1125
B(  2-C ,  5-C ) :   1.0303 B(  4-C , 12-H ) :   0.9489 B(  4-C , 13-H ) :   0.9470
B(  4-C , 14-H ) :   0.9489 B(  5-C ,  6-O ) :   1.0711 B(  5-C , 15-H ) :   0.9186
B(  5-C , 16-H ) :   0.9327 B(  6-O , 17-H ) :   0.8473

Dispersion correction           -0.013070053
FINAL SINGLE POINT ENERGY      -272.298053548915

DIPOLE MOMENT
-------------

Method             : SCF
Type of density    : Electron Density
Multiplicity       :   1
Irrep              :   0
Energy             :  -272.3681398099683406 Eh
Relativity type    :
Basis              : AO
                                X                 Y                 Z
Electronic contribution:      3.819692929       1.363205611       0.890818120
Nuclear contribution   :     -4.486875391      -1.294183751      -1.036788606
                        -----------------------------------------
Total Dipole Moment    :     -0.667182463       0.069021860      -0.145970486
                        -----------------------------------------
Magnitude (a.u.)       :      0.686442888
Magnitude (Debye)      :      1.744799159

Rotational constants in cm-1:             0.110872             0.110011             0.060801
Rotational constants in MHz :          3323.852732          3298.040407          1822.759167

                             ****ORCA TERMINATED NORMALLY****
TOTAL RUN TIME: 0 days 0 hours 0 minutes 7 seconds 825 msec
