                         Program Version 6.0.0  -   RELEASE  -
|  1> ! r2scan-3c def2/J RI DEFGRID2 scfconv6 printgap
|  2> %output
|  3>     printlevel normal
|  4> end
|  5> * xyz 0 1
|  6> C -2.280217205 0.6409616634 0.7231525375
|  7> C -1.7410930993 0.3241819375 -0.6688439873
|  8> C -0.5520544026 -0.6415103907 -0.6939669929
|  9> C 0.7713464471 -0.1807016447 -0.0421769877
| 10> C 1.1006135553 1.2803224115 -0.3653593896
| 11> C 1.9047355487 -1.0812915546 -0.5485035663
| 12> O 0.7434429509 -0.3836207249 1.3689643263
| 13> H -3.2444590404 1.1383272762 0.6424625233
| 14> H -1.6153898481 1.3061956968 1.2694428907
| 15> H -2.4164296222 -0.2727150155 1.2973567726
| 16> H -2.5409019828 -0.1450909612 -1.2470322357
| 17> H -1.4771946657 1.2512009599 -1.1794225625
| 18> H -0.841485375 -1.5742434633 -0.2025758653
| 19> H -0.3383800944 -0.8731496825 -1.7390352241
| 20> H 0.3743301793 1.9553023805 0.079620839
| 21> H 1.1100579879 1.4312557038 -1.440814546
| 22> H 2.0823205039 1.525759945 0.033162642
| 23> H 1.6544833028 -2.1238118604 -0.3708514518
| 24> H 2.8169941996 -0.8524670912 -0.0038283093
| 25> H 2.0717279948 -0.9261542692 -1.6095821218
| 26> H 0.0567087225 0.1740667883 1.7558723963
| 27> *
| 28>
| 29>                          ****END OF INPUT****

CARTESIAN COORDINATES (ANGSTROEM)
---------------------------------
  C     -2.280217    0.640962    0.723153
  C     -1.741093    0.324182   -0.668844
  C     -0.552054   -0.641510   -0.693967
  C      0.771346   -0.180702   -0.042177
  C      1.100614    1.280322   -0.365359
  C      1.904736   -1.081292   -0.548504
  O      0.743443   -0.383621    1.368964
  H     -3.244459    1.138327    0.642463
  H     -1.615390    1.306196    1.269443
  H     -2.416430   -0.272715    1.297357
  H     -2.540902   -0.145091   -1.247032
  H     -1.477195    1.251201   -1.179423
  H     -0.841485   -1.574243   -0.202576
  H     -0.338380   -0.873150   -1.739035
  H      0.374330    1.955302    0.079621
  H      1.110058    1.431256   -1.440815
  H      2.082321    1.525760    0.033163
  H      1.654483   -2.123812   -0.370851
  H      2.816994   -0.852467   -0.003828
  H      2.071728   -0.926154   -1.609582
  H      0.056709    0.174067    1.755872

 Total Charge           Charge          ....    0
 Multiplicity           Mult            ....    1
 Number of Electrons    NEL             ....   58
 Basis Dimension        Dim             ....  208

ORBITAL ENERGIES
----------------

  NO   OCC          E(Eh)            E(eV)
   0   2.0000     -18.938467      -515.3419
   1   2.0000     -10.085959      -274.4529
   2   2.0000     -10.030255      -272.9371
   3   2.0000     -10.025760      -272.8148
   4   2.0000     -10.022198      -272.7179
   5   2.0000     -10.017314      -272.5850
   6   2.0000     -10.011824      -272.4356
   7   2.0000      -0.978712       -26.6321
   8   2.0000      -0.769397       -20.9363
   9   2.0000      -0.729593       -19.8532
  10   2.0000      -0.658538       -17.9197
  11   2.0000      -0.649579       -17.6759
  12   2.0000      -0.568828       -15.4786
  13   2.0000      -0.528477       -14.3806
  14   2.0000      -0.462801       -12.5935
  15   2.0000      -0.431757       -11.7487
  16   2.0000      -0.420939       -11.4543
  17   2.0000      -0.404274       -11.0009
  18   2.0000      -0.386813       -10.5257
  19   2.0000      -0.373476       -10.1628
  20   2.0000      -0.355469        -9.6728
  21   2.0000      -0.349480        -9.5098
  22   2.0000      -0.333022        -9.0620
  23   2.0000      -0.331968        -9.0333
  24   2.0000      -0.321277        -8.7424
  25   2.0000      -0.302618        -8.2347
  26   2.0000      -0.297675        -8.1002
  27   2.0000      -0.271215        -7.3801
  28   2.0000      -0.229022        -6.2320
  29   0.0000       0.056970         1.5502
  30   0.0000       0.098274         2.6742
  31   0.0000       0.102326         2.7844
  32   0.0000       0.112851         3.0708
  33   0.0000       0.126660         3.4466

MULLIKEN ATOMIC CHARGES
-----------------------
   0 C :   -0.491905
   1 C :   -0.259010
   2 C :   -0.300775
   3 C :    0.170223
   4 C :   -0.490440
   5 C :   -0.491125
   6 O :   -0.404948
   7 H :    0.151928
   8 H :    0.129516
   9 H :    0.164023
  10 H :    0.146731
  11 H :    0.153086
  12 H :    0.167599
  13 H :    0.146375
  14 H :    0.145088
  15 H :    0.158763
  16 H :    0.159503
  17 H :    0.151243
  18 H :    0.160348
  19 H :    0.147333
  20 H :    0.286443
Sum of atomic charges:    0.0000000

LOEWDIN ATOMIC CHARGES
----------------------
   0 C :   -0.429018
   1 C :   -0.313379
   2 C :   -0.282532
   3 C :    0.060402
   4 C :   -0.388773
   5 C :   -0.372708
   6 O :   -0.603631
   7 H :    0.153471
   8 H :    0.140452
   9 H :    0.154345
  10 H :    0.154948
  11 H :    0.154737
  12 H :    0.171268
  13 H :    0.164982
  14 H :    0.155900
  15 H :    0.160343
  16 H :    0.164822
  17 H :    0.164642
  18 H :    0.165478
  19 H :    0.156712
  20 H :    0.267540

  Mayer bond orders larger than 0.100000
B(  0-C ,  1-C ) :   0.8736 B(  0-C ,  7-H ) :   0.9673 B(  0-C ,  8-H ) :   0.9735
B(  0-C ,  9-H ) :   0.9827 B(  1-C ,  2-C ) :   0.8982 B(  1-C , 10-H ) :   0.9708
B(  1-C , 11-H ) :   0.9784 B(  2-C ,  3-C ) :   0.8632 B(  2-C , 12-H ) :   0.9925
B(  2-C , 13-H ) :   0.9714 B(  3-C ,  4-C ) :   0.9332 B(  3-C ,  5-C ) :   0.9348
B(  3-C ,  6-O ) :   0.8632 B(  4-C , 14-H ) :   0.9598 B(  4-C , 15-H ) :   0.9792
B(  4-C , 16-H ) :   0.9684 B(  5-C , 17-H ) :   0.9715 B(  5-C , 18-H ) :   0.9760
B(  5-C , 19-H ) :   0.9809 B(  6-O , 20-H ) :   0.8865

Dispersion correction           -0.005822936
FINAL SINGLE POINT ENERGY      -312.204994087086

DIPOLE MOMENT
-------------

Method             : SCF
Type of density    : Electron Density
Multiplicity       :   1
Irrep              :   0
Energy             :  -312.2103381113126943 Eh
Relativity type    :
Basis              : AO
                                X                 Y                 Z
Electronic contribution:      1.723299422      -1.538164490       2.142470467
Nuclear contribution   :     -2.153889574       1.884215103      -2.527007926
                        -----------------------------------------
Total Dipole Moment    :     -0.430590152       0.346050614      -0.384537458
                        -----------------------------------------
Magnitude (a.u.)       :      0.673073520
Magnitude (Debye)      :      1.710816926

Rotational constants in cm-1:             0.130265             0.056890             0.054835
Rotational constants in MHz :          3905.248916          1705.507698          1643.899120

                             ****ORCA TERMINATED NORMALLY****
TOTAL RUN TIME: 0 days 0 hours 0 minutes 25 seconds 467 msec
