                         Program Version 6.0.0  -   RELEASE  -
|  1> ! r2scan-3c def2/J RI DEFGRID2 scfconv6 printgap
|  2> %output
|  3>     printlevel normal
|  4> end
|  5> %cpcm
|  6>     smd true
|  7>     smdsolvent "water"
|  8> end
|  9> * xyz 0 1
| 10> C -2.280217205 0.6409616634 0.7231525375
| 11> C -1.7410930993 0.3241819375 -0.6688439873
| 12> C -0.5520544026 -0.6415103907 -0.6939669929
| 13> C 0.7713464471 -0.1807016447 -0.0421769877
| 14> C 1.1006135553 1.2803224115 -0.3653593896
| 15> C 1.9047355487 -1.0812915546 -0.5485035663
| 16> O 0.7434429509 -0.3836207249 1.3689643263
| 17> H -3.2444590404 1.1383272762 0.6424625233
| 18> H -1.6153898481 1.3061956968 1.2694428907
| 19> H -2.4164296222 -0.2727150155 1.2973567726
| 20> H -2.5409019828 -0.1450909612 -1.2470322357
| 21> H -1.4771946657 1.2512009599 -1.1794225625
| 22> H -0.841485375 -1.5742434633 -0.2025758653
| 23> H -0.3383800944 -0.8731496825 -1.7390352241
| 24> H 0.3743301793 1.9553023805 0.079620839
| 25> H 1.1100579879 1.4312557038 -1.440814546
| 26> H 2.0823205039 1.525759945 0.033162642
| 27> H 1.6544833028 -2.1238118604 -0.3708514518
| 28> H 2.8169941996 -0.8524670912 -0.0038283093
| 29> H 2.0717279948 -0.9261542692 -1.6095821218
| 30> H 0.0567087225 0.1740667883 1.7558723963
| 31> *
| 32>
| 33>                          ****END OF INPUT****

CARTESIAN COORDINATES (ANGSTROEM)
---------------------------------
  C     -2.280217    0.640962    0.723153
  C     -1.741093    0.324182   -0.668844
  C     -0.552054   -0.641510   -0.693967
  C      0.771346   -0.180702   -0.042177
  C      1.100614    1.280322   -0.365359
  C      1.904736   -1.081292   -0.548504
  O      0.743443   -0.383621    1.368964
  H     -3.244459    1.138327    0.642463
  H     -1.615390    1.306196    1.269443
  H     -2.416430   -0.272715    1.297357
  H     -2.540902   -0.145091   -1.247032
  H     -1.477195    1.251201   -1.179423
  H     -0.841485   -1.574243   -0.202576
  H     -0.338380   -0.873150   -1.739035
  H      0.374330    1.955302    0.079621
  H      1.110058    1.431256   -1.440815
  H      2.082321    1.525760    0.033163
  H      1.654483   -2.123812   -0.370851
  H      2.816994   -0.852467   -0.003828
  H      2.071728   -0.926154   -1.609582
  H      0.056709    0.174067    1.755872

 Total Charge           Charge          ....    0
 Multiplicity           Mult            ....    1
 Number of Electrons    NEL             ....   58
 Basis Dimension        Dim             ....  208

ORBITAL ENERGIES
----------------

  NO   OCC          E(Eh)            E(eV)
   0   2.0000     -18.945567      -515.5351
   1   2.0000     -10.083029      -274.3732
   2   2.0000     -10.017567      -272.5919
   3   2.0000     -10.013974      -272.4941
   4   2.0000     -10.009730      -272.3786
   5   2.0000     -10.008062      -272.3332
   6   2.0000     -10.007854      -272.3275
   7   2.0000      -0.984377       -26.7863
   8   2.0000      -0.761474       -20.7208
   9   2.0000      -0.720646       -19.6098
  10   2.0000      -0.650931       -17.7127
  11   2.0000      -0.640732       -17.4352
  12   2.0000      -0.559752       -15.2316
  13   2.0000      -0.525558       -14.3012
  14   2.0000      -0.456949       -12.4342
  15   2.0000      -0.423696       -11.5294
  16   2.0000      -0.413752       -11.2588
  17   2.0000      -0.395660       -10.7665
  18   2.0000      -0.379242       -10.3197
  19   2.0000      -0.363830        -9.9003
  20   2.0000      -0.347791        -9.4639
  21   2.0000      -0.345504        -9.4016
  22   2.0000      -0.329769        -8.9735
  23   2.0000      -0.320066        -8.7094
  24   2.0000      -0.314877        -8.5683
  25   2.0000      -0.295685        -8.0460
  26   2.0000      -0.288662        -7.8549
  27   2.0000      -0.268134        -7.2963
  28   2.0000      -0.234521        -6.3816
  29   0.0000       0.070574         1.9204
  30   0.0000       0.109527         2.9804
  31   0.0000       0.115932         3.1547
  32   0.0000       0.120225         3.2715
  33   0.0000       0.137607         3.7445

MULLIKEN ATOMIC CHARGES
-----------------------
   0 C :   -0.534198
   1 C :   -0.256823
   2 C :   -0.325191
   3 C :    0.211436
   4 C :   -0.538576
   5 C :   -0.539230
   6 O :   -0.498137
   7 H :    0.159708
   8 H :    0.158399
   9 H :    0.167473
  10 H :    0.154548
  11 H :    0.159559
  12 H :    0.167885
  13 H :    0.160539
  14 H :    0.170601
  15 H :    0.177346
  16 H :    0.163118
  17 H :    0.160802
  18 H :    0.166398
  19 H :    0.171373
  20 H :    0.342972
Sum of atomic charges:    0.0000000

LOEWDIN ATOMIC CHARGES
----------------------
   0 C :   -0.435724
   1 C :   -0.313561
   2 C :   -0.282706
   3 C :    0.061154
   4 C :   -0.393241
   5 C :   -0.382617
   6 O :   -0.641872
   7 H :    0.154720
   8 H :    0.150462
   9 H :    0.154947
  10 H :    0.156657
  11 H :    0.157355
  12 H :    0.170140
  13 H :    0.170245
  14 H :    0.164322
  15 H :    0.167327
  16 H :    0.164081
  17 H :    0.164675
  18 H :    0.164524
  19 H :    0.165975
  20 H :    0.283137

  Mayer bond orders larger than 0.100000
B(  0-C ,  1-C ) :   0.8624 B(  0-C ,  7-H ) :   0.9651 B(  0-C ,  8-H ) :   0.9704
B(  0-C ,  9-H ) :   0.9811 B(  1-C ,  2-C ) :   0.8995 B(  1-C , 10-H ) :   0.9718
B(  1-C , 11-H ) :   0.9771 B(  2-C ,  3-C ) :   0.8717 B(  2-C , 12-H ) :   0.9905
B(  2-C , 13-H ) :   0.9685 B(  3-C ,  4-C ) :   0.9264 B(  3-C ,  5-C ) :   0.9261
B(  3-C ,  6-O ) :   0.8379 B(  4-C , 14-H ) :   0.9579 B(  4-C , 15-H ) :   0.9729
B(  4-C , 16-H ) :   0.9653 B(  5-C , 17-H ) :   0.9698 B(  5-C , 18-H ) :   0.9760
B(  5-C , 19-H ) :   0.9735 B(  6-O , 20-H ) :   0.8629

Dispersion correction           -0.005822936
FINAL SINGLE POINT ENERGY      -312.211028377616

DIPOLE MOMENT
-------------

Method             : SCF
Type of density    : Electron Density
Multiplicity       :   1
Irrep              :   0
Energy             :  -312.2163724018424773 Eh
Relativity type    :
Basis              : AO
                                X                 Y                 Z
Electronic contribution:      1.566163579      -1.329928208       1.966040114
Nuclear contribution   :     -2.153889574       1.884215103      -2.527007926
                        -----------------------------------------
Total Dipole Moment    :     -0.587725994       0.554286895      -0.560967812
                        -----------------------------------------
Magnitude (a.u.)       :      0.983534795
Magnitude (Debye)      :      2.499946775

Rotational constants in cm-1:             0.130265             0.056890             0.054835
Rotational constants in MHz :          3905.248916          1705.507698          1643.899120

                             ****ORCA TERMINATED NORMALLY****
TOTAL RUN TIME: 0 days 0 hours 0 minutes 30 seconds 478 msec
