                         Program Version 6.0.0  -   RELEASE  -
|  1> ! r2scan-3c def2/J RI DEFGRID2 scfconv6 printgap
|  2> %output
|  3>     printlevel normal
|  4> end
|  5> * xyz 0 1
|  6> C 2.0716881893 0.0428760277 -1.1522586076
|  7> C 1.6748635942 -0.5108824046 0.2123235519
|  8> C 0.2753525339 -0.1111000785 0.7160773586
|  9> H 0.1258446824 -0.6347716752 1.6690794573
| 10> C -0.8735210587 -0.5315971214 -0.2385637895
| 11> C -2.0933635128 -0.9631916576 0.5765135019
| 12> C -1.287201089 0.5806891144 -1.2032208644
| 13> O 0.2185313826 1.2545367402 1.0804052877
| 14> H 2.0194374403 1.129087387 -1.1696058144
| 15> H 1.4351340604 -0.3563328967 -1.9371243266
| 16> H 3.0974240071 -0.2434273444 -1.3725723833
| 17> H 1.720702244 -1.600845454 0.1852977183
| 18> H 2.3942429496 -0.1663061097 0.9593216203
| 19> H -0.522041016 -1.392107194 -0.8164102961
| 20> H -1.8573980348 -1.8225035872 1.1999176567
| 21> H -2.4150602351 -0.1475548165 1.2207209026
| 22> H -2.9163060406 -1.2309202873 -0.0819195906
| 23> H -2.0542560724 0.2077641559 -1.8778452692
| 24> H -0.4521628814 0.9309474287 -1.802670244
| 25> H -1.7035843944 1.4189073296 -0.6487775219
| 26> H 0.4259289445 1.7878761265 0.3012320497
| 27> *
| 28>
| 29>                          ****END OF INPUT****

CARTESIAN COORDINATES (ANGSTROEM)
---------------------------------
  C      2.071688    0.042876   -1.152259
  C      1.674864   -0.510882    0.212324
  C      0.275353   -0.111100    0.716077
  H      0.125845   -0.634772    1.669079
  C     -0.873521   -0.531597   -0.238564
  C     -2.093364   -0.963192    0.576514
  C     -1.287201    0.580689   -1.203221
  O      0.218531    1.254537    1.080405
  H      2.019437    1.129087   -1.169606
  H      1.435134   -0.356333   -1.937124
  H      3.097424   -0.243427   -1.372572
  H      1.720702   -1.600845    0.185298
  H      2.394243   -0.166306    0.959322
  H     -0.522041   -1.392107   -0.816410
  H     -1.857398   -1.822504    1.199918
  H     -2.415060   -0.147555    1.220721
  H     -2.916306   -1.230920   -0.081920
  H     -2.054256    0.207764   -1.877845
  H     -0.452163    0.930947   -1.802670
  H     -1.703584    1.418907   -0.648778
  H      0.425929    1.787876    0.301232

 Total Charge           Charge          ....    0
 Multiplicity           Mult            ....    1
 Number of Electrons    NEL             ....   58
 Basis Dimension        Dim             ....  208

ORBITAL ENERGIES
----------------

  NO   OCC          E(Eh)            E(eV)
   0   2.0000     -18.944306      -515.5008
   1   2.0000     -10.075161      -274.1591
   2   2.0000     -10.033381      -273.0222
   3   2.0000     -10.026318      -272.8300
   4   2.0000     -10.024500      -272.7805
   5   2.0000     -10.018507      -272.6174
   6   2.0000     -10.013825      -272.4900
   7   2.0000      -0.983543       -26.7636
   8   2.0000      -0.770539       -20.9674
   9   2.0000      -0.732280       -19.9264
  10   2.0000      -0.657187       -17.8830
  11   2.0000      -0.640572       -17.4308
  12   2.0000      -0.567274       -15.4363
  13   2.0000      -0.534431       -14.5426
  14   2.0000      -0.453316       -12.3353
  15   2.0000      -0.434950       -11.8356
  16   2.0000      -0.432067       -11.7571
  17   2.0000      -0.412379       -11.2214
  18   2.0000      -0.391393       -10.6504
  19   2.0000      -0.361168        -9.8279
  20   2.0000      -0.360172        -9.8008
  21   2.0000      -0.349048        -9.4981
  22   2.0000      -0.336090        -9.1455
  23   2.0000      -0.321467        -8.7476
  24   2.0000      -0.317721        -8.6456
  25   2.0000      -0.302778        -8.2390
  26   2.0000      -0.295668        -8.0455
  27   2.0000      -0.272511        -7.4154
  28   2.0000      -0.229767        -6.2523
  29   0.0000       0.052739         1.4351
  30   0.0000       0.092675         2.5218
  31   0.0000       0.111077         3.0226
  32   0.0000       0.117304         3.1920
  33   0.0000       0.119249         3.2449

MULLIKEN ATOMIC CHARGES
-----------------------
   0 C :   -0.524975
   1 C :   -0.260090
   2 C :   -0.032516
   3 H :    0.145298
   4 C :    0.028968
   5 C :   -0.517306
   6 C :   -0.566050
   7 O :   -0.413791
   8 H :    0.143129
   9 H :    0.157867
  10 H :    0.152642
  11 H :    0.143181
  12 H :    0.157029
  13 H :    0.151607
  14 H :    0.144957
  15 H :    0.165782
  16 H :    0.142268
  17 H :    0.150010
  18 H :    0.156935
  19 H :    0.176040
  20 H :    0.299015
Sum of atomic charges:   -0.0000000

LOEWDIN ATOMIC CHARGES
----------------------
   0 C :   -0.425284
   1 C :   -0.293397
   2 C :    0.055005
   3 H :    0.187065
   4 C :   -0.225421
   5 C :   -0.412210
   6 C :   -0.414596
   7 O :   -0.606600
   8 H :    0.144834
   9 H :    0.152265
  10 H :    0.154323
  11 H :    0.157725
  12 H :    0.163448
  13 H :    0.159207
  14 H :    0.152111
  15 H :    0.160652
  16 H :    0.151413
  17 H :    0.156522
  18 H :    0.152738
  19 H :    0.162471
  20 H :    0.267730

  Mayer bond orders larger than 0.100000
B(  0-C ,  1-C ) :   0.8445 B(  0-C ,  8-H ) :   0.9851 B(  0-C ,  9-H ) :   0.9771
B(  0-C , 10-H ) :   0.9648 B(  1-C ,  2-C ) :   0.9001 B(  1-C , 11-H ) :   0.9825
B(  1-C , 12-H ) :   0.9837 B(  2-C ,  3-H ) :   0.9877 B(  2-C ,  4-C ) :   0.8532
B(  2-C ,  7-O ) :   0.9700 B(  4-C ,  5-C ) :   0.9002 B(  4-C ,  6-C ) :   0.8321
B(  4-C , 13-H ) :   0.9624 B(  5-C , 14-H ) :   0.9772 B(  5-C , 15-H ) :   0.9823
B(  5-C , 16-H ) :   0.9776 B(  6-C , 17-H ) :   0.9664 B(  6-C , 18-H ) :   0.9703
B(  6-C , 19-H ) :   0.9882 B(  7-O , 20-H ) :   0.8859

Dispersion correction           -0.005800719
FINAL SINGLE POINT ENERGY      -312.198808138276

DIPOLE MOMENT
-------------

Method             : SCF
Type of density    : Electron Density
Multiplicity       :   1
Irrep              :   0
Energy             :  -312.2043382624926267 Eh
Relativity type    :
Basis              : AO
                                X                 Y                 Z
Electronic contribution:      0.811818836       1.703349264       3.344879596
Nuclear contribution   :     -0.655436147      -1.970463801      -3.897380129
                        -----------------------------------------
Total Dipole Moment    :      0.156382688      -0.267114537      -0.552500533
                        -----------------------------------------
Magnitude (a.u.)       :      0.633295003
Magnitude (Debye)      :      1.609707971

Rotational constants in cm-1:             0.115903             0.059052             0.054966
Rotational constants in MHz :          3474.698945          1770.322793          1647.852520

                             ****ORCA TERMINATED NORMALLY****
TOTAL RUN TIME: 0 days 0 hours 0 minutes 27 seconds 837 msec
