                         Program Version 6.0.0  -   RELEASE  -
|  1> ! r2scan-3c def2/J RI DEFGRID2 scfconv6 printgap
|  2> %output
|  3>     printlevel normal
|  4> end
|  5> %cpcm
|  6>     smd true
|  7>     smdsolvent "water"
|  8> end
|  9> * xyz 0 1
| 10> C 2.0716881893 0.0428760277 -1.1522586076
| 11> C 1.6748635942 -0.5108824046 0.2123235519
| 12> C 0.2753525339 -0.1111000785 0.7160773586
| 13> H 0.1258446824 -0.6347716752 1.6690794573
| 14> C -0.8735210587 -0.5315971214 -0.2385637895
| 15> C -2.0933635128 -0.9631916576 0.5765135019
| 16> C -1.287201089 0.5806891144 -1.2032208644
| 17> O 0.2185313826 1.2545367402 1.0804052877
| 18> H 2.0194374403 1.129087387 -1.1696058144
| 19> H 1.4351340604 -0.3563328967 -1.9371243266
| 20> H 3.0974240071 -0.2434273444 -1.3725723833
| 21> H 1.720702244 -1.600845454 0.1852977183
| 22> H 2.3942429496 -0.1663061097 0.9593216203
| 23> H -0.522041016 -1.392107194 -0.8164102961
| 24> H -1.8573980348 -1.8225035872 1.1999176567
| 25> H -2.4150602351 -0.1475548165 1.2207209026
| 26> H -2.9163060406 -1.2309202873 -0.0819195906
| 27> H -2.0542560724 0.2077641559 -1.8778452692
| 28> H -0.4521628814 0.9309474287 -1.802670244
| 29> H -1.7035843944 1.4189073296 -0.6487775219
| 30> H 0.4259289445 1.7878761265 0.3012320497
| 31> *
| 32>
| 33>                          ****END OF INPUT****

CARTESIAN COORDINATES (ANGSTROEM)
---------------------------------
  C      2.071688    0.042876   -1.152259
  C      1.674864   -0.510882    0.212324
  C      0.275353   -0.111100    0.716077
  H      0.125845   -0.634772    1.669079
  C     -0.873521   -0.531597   -0.238564
  C     -2.093364   -0.963192    0.576514
  C     -1.287201    0.580689   -1.203221
  O      0.218531    1.254537    1.080405
  H      2.019437    1.129087   -1.169606
  H      1.435134   -0.356333   -1.937124
  H      3.097424   -0.243427   -1.372572
  H      1.720702   -1.600845    0.185298
  H      2.394243   -0.166306    0.959322
  H     -0.522041   -1.392107   -0.816410
  H     -1.857398   -1.822504    1.199918
  H     -2.415060   -0.147555    1.220721
  H     -2.916306   -1.230920   -0.081920
  H     -2.054256    0.207764   -1.877845
  H     -0.452163    0.930947   -1.802670
  H     -1.703584    1.418907   -0.648778
  H      0.425929    1.787876    0.301232

 Total Charge           Charge          ....    0
 Multiplicity           Mult            ....    1
 Number of Electrons    NEL             ....   58
 Basis Dimension        Dim             ....  208

ORBITAL ENERGIES
----------------

  NO   OCC          E(Eh)            E(eV)
   0   2.0000     -18.948693      -515.6202
   1   2.0000     -10.070206      -274.0242
   2   2.0000     -10.024870      -272.7906
   3   2.0000     -10.016926      -272.5744
   4   2.0000     -10.009855      -272.3820
   5   2.0000     -10.007562      -272.3196
   6   2.0000     -10.006661      -272.2951
   7   2.0000      -0.986778       -26.8516
   8   2.0000      -0.762580       -20.7509
   9   2.0000      -0.721972       -19.6459
  10   2.0000      -0.648018       -17.6335
  11   2.0000      -0.632751       -17.2180
  12   2.0000      -0.558234       -15.1903
  13   2.0000      -0.529191       -14.4000
  14   2.0000      -0.447216       -12.1694
  15   2.0000      -0.427674       -11.6376
  16   2.0000      -0.425585       -11.5807
  17   2.0000      -0.402769       -10.9599
  18   2.0000      -0.382015       -10.3952
  19   2.0000      -0.355230        -9.6663
  20   2.0000      -0.350762        -9.5447
  21   2.0000      -0.340451        -9.2641
  22   2.0000      -0.329049        -8.9539
  23   2.0000      -0.315471        -8.5844
  24   2.0000      -0.307435        -8.3657
  25   2.0000      -0.294754        -8.0207
  26   2.0000      -0.288560        -7.8521
  27   2.0000      -0.268278        -7.3002
  28   2.0000      -0.232059        -6.3146
  29   0.0000       0.066449         1.8082
  30   0.0000       0.106502         2.8981
  31   0.0000       0.120316         3.2740
  32   0.0000       0.125675         3.4198
  33   0.0000       0.130229         3.5437

MULLIKEN ATOMIC CHARGES
-----------------------
   0 C :   -0.547462
   1 C :   -0.285957
   2 C :   -0.012096
   3 H :    0.153616
   4 C :    0.018999
   5 C :   -0.553006
   6 C :   -0.577238
   7 O :   -0.505439
   8 H :    0.164086
   9 H :    0.166768
  10 H :    0.160366
  11 H :    0.158077
  12 H :    0.155999
  13 H :    0.165828
  14 H :    0.159541
  15 H :    0.162371
  16 H :    0.156258
  17 H :    0.161731
  18 H :    0.171242
  19 H :    0.169671
  20 H :    0.356644
Sum of atomic charges:   -0.0000000

LOEWDIN ATOMIC CHARGES
----------------------
   0 C :   -0.430775
   1 C :   -0.293095
   2 C :    0.053614
   3 H :    0.189347
   4 C :   -0.222391
   5 C :   -0.420744
   6 C :   -0.417937
   7 O :   -0.645219
   8 H :    0.153137
   9 H :    0.155768
  10 H :    0.155272
  11 H :    0.163373
  12 H :    0.161705
  13 H :    0.165538
  14 H :    0.155716
  15 H :    0.157710
  16 H :    0.155123
  17 H :    0.158867
  18 H :    0.159357
  19 H :    0.160497
  20 H :    0.285136

  Mayer bond orders larger than 0.100000
B(  0-C ,  1-C ) :   0.8503 B(  0-C ,  8-H ) :   0.9781 B(  0-C ,  9-H ) :   0.9737
B(  0-C , 10-H ) :   0.9640 B(  1-C ,  2-C ) :   0.8995 B(  1-C , 11-H ) :   0.9797
B(  1-C , 12-H ) :   0.9854 B(  2-C ,  3-H ) :   0.9854 B(  2-C ,  4-C ) :   0.8600
B(  2-C ,  7-O ) :   0.9451 B(  4-C ,  5-C ) :   0.8908 B(  4-C ,  6-C ) :   0.8494
B(  4-C , 13-H ) :   0.9580 B(  5-C , 14-H ) :   0.9744 B(  5-C , 15-H ) :   0.9822
B(  5-C , 16-H ) :   0.9753 B(  6-C , 17-H ) :   0.9665 B(  6-C , 18-H ) :   0.9639
B(  6-C , 19-H ) :   0.9855 B(  7-O , 20-H ) :   0.8589

Dispersion correction           -0.005800719
FINAL SINGLE POINT ENERGY      -312.204439417720

DIPOLE MOMENT
-------------

Method             : SCF
Type of density    : Electron Density
Multiplicity       :   1
Irrep              :   0
Energy             :  -312.2099695419373120 Eh
Relativity type    :
Basis              : AO
                                X                 Y                 Z
Electronic contribution:      0.887980702       1.604106891       3.062805413
Nuclear contribution   :     -0.655436147      -1.970463801      -3.897380129
                        -----------------------------------------
Total Dipole Moment    :      0.232544555      -0.366356911      -0.834574716
                        -----------------------------------------
Magnitude (a.u.)       :      0.940643032
Magnitude (Debye)      :      2.390924576

Rotational constants in cm-1:             0.115903             0.059052             0.054966
Rotational constants in MHz :          3474.698945          1770.322793          1647.852520

                             ****ORCA TERMINATED NORMALLY****
TOTAL RUN TIME: 0 days 0 hours 0 minutes 32 seconds 568 msec
