                         Program Version 6.0.0  -   RELEASE  -
|  1> ! pbe def2-sv(p) def2/J RI DEFGRID1 loosescf d4 GCP(DFT/SV(P)) printgap
|  2> %output
|  3>     printlevel normal
|  4> end
|  5> * xyz 0 1
|  6> C 0.2135749209 -3.3786471429 0.114503284
|  7> C 0.672516362 -1.95628177 0.0679534505
|  8> C 2.0131121849 -1.5886230439 -0.0837466841
|  9> N 2.4041209117 -0.3229591018 -0.1242227393
| 10> C 1.4710106641 0.6314731615 -0.0159550568
| 11> N 0.1548217128 0.3828274339 0.1308146807
| 12> C -0.2114664151 -0.8830862941 0.17149469
| 13> O -1.5502250087 -1.133461553 0.3010359994
| 14> C -2.3182543728 -0.0113152201 0.619148329
| 15> O -2.5786646083 0.2208892161 1.7855184128
| 16> N -2.7568079643 0.6776121889 -0.4256691997
| 17> C -3.5217580203 1.8898008681 -0.2175227227
| 18> C -2.4085204695 0.3801127895 -1.7981211233
| 19> N 1.8558630524 1.911740697 -0.0703665765
| 20> C 3.2379325088 2.2832112211 -0.2523008979
| 21> C 0.9152598504 2.9977596717 0.0586747875
| 22> C 3.0828612687 -2.6230027514 -0.2111435023
| 23> H 0.4034074476 -3.8736806133 -0.8370767236
| 24> H 0.7445795604 -3.9247638406 0.8923061237
| 25> H -0.852139684 -3.412390734 0.3241680898
| 26> H -2.9868077287 2.7357919577 -0.6485701456
| 27> H -3.6486119687 2.0410576974 0.8516018651
| 28> H -4.4978942608 1.7940899459 -0.6920189904
| 29> H -1.5484665559 0.9780987251 -2.1065968254
| 30> H -3.2623130091 0.6180409505 -2.4287894407
| 31> H -2.1653047763 -0.6740880493 -1.9050718441
| 32> H 3.5929696336 2.8380726565 0.6180925578
| 33> H 3.3347445592 2.9129202474 -1.1380258662
| 34> H 3.8276461493 1.3804157757 -0.3748481843
| 35> H 0.8441956074 3.5470618754 -0.8825079095
| 36> H 1.2495209947 3.6792582933 0.8420406486
| 37> H -0.0575066547 2.5923991882 0.3221972753
| 38> H 4.0427775064 -2.1361147067 -0.3466678434
| 39> H 3.1110904103 -3.2396761788 0.6847165769
| 40> H 2.8754044048 -3.2709294213 -1.0595839298
| 41> *
| 42>
| 43>                          ****END OF INPUT****

CARTESIAN COORDINATES (ANGSTROEM)
---------------------------------
  C      0.213575   -3.378647    0.114503
  C      0.672516   -1.956282    0.067953
  C      2.013112   -1.588623   -0.083747
  N      2.404121   -0.322959   -0.124223
  C      1.471011    0.631473   -0.015955
  N      0.154822    0.382827    0.130815
  C     -0.211466   -0.883086    0.171495
  O     -1.550225   -1.133462    0.301036
  C     -2.318254   -0.011315    0.619148
  O     -2.578665    0.220889    1.785518
  N     -2.756808    0.677612   -0.425669
  C     -3.521758    1.889801   -0.217523
  C     -2.408520    0.380113   -1.798121
  N      1.855863    1.911741   -0.070367
  C      3.237933    2.283211   -0.252301
  C      0.915260    2.997760    0.058675
  C      3.082861   -2.623003   -0.211144
  H      0.403407   -3.873681   -0.837077
  H      0.744580   -3.924764    0.892306
  H     -0.852140   -3.412391    0.324168
  H     -2.986808    2.735792   -0.648570
  H     -3.648612    2.041058    0.851602
  H     -4.497894    1.794090   -0.692019
  H     -1.548467    0.978099   -2.106597
  H     -3.262313    0.618041   -2.428789
  H     -2.165305   -0.674088   -1.905072
  H      3.592970    2.838073    0.618093
  H      3.334745    2.912920   -1.138026
  H      3.827646    1.380416   -0.374848
  H      0.844196    3.547062   -0.882508
  H      1.249521    3.679258    0.842041
  H     -0.057507    2.592399    0.322197
  H      4.042778   -2.136115   -0.346668
  H      3.111090   -3.239676    0.684717
  H      2.875404   -3.270929   -1.059584

 Total Charge           Charge          ....    0
 Multiplicity           Mult            ....    1
 Number of Electrons    NEL             ....  128
 Basis Dimension        Dim             ....  274

ORBITAL ENERGIES
----------------

  NO   OCC          E(Eh)            E(eV)
   0   2.0000     -18.797319      -511.5011
   1   2.0000     -18.714042      -509.2350
   2   2.0000     -14.032903      -381.8547
   3   2.0000     -14.022673      -381.5763
   4   2.0000     -13.975012      -380.2794
   5   2.0000     -13.965864      -380.0305
   6   2.0000     -10.017702      -272.5955
   7   2.0000      -9.982550      -271.6390
   8   2.0000      -9.977744      -271.5082
   9   2.0000      -9.932644      -270.2810
  10   2.0000      -9.923376      -270.0288
  11   2.0000      -9.919685      -269.9284
  12   2.0000      -9.913079      -269.7486
  13   2.0000      -9.910079      -269.6670
  14   2.0000      -9.890108      -269.1235
  15   2.0000      -9.881188      -268.8808
  16   2.0000      -9.880133      -268.8521
  17   2.0000      -1.008766       -27.4499
  18   2.0000      -0.920863       -25.0580
  19   2.0000      -0.905905       -24.6509
  20   2.0000      -0.858943       -23.3730
  21   2.0000      -0.843479       -22.9522
  22   2.0000      -0.791915       -21.5491
  23   2.0000      -0.725075       -19.7303
  24   2.0000      -0.669303       -18.2126
  25   2.0000      -0.658677       -17.9235
  26   2.0000      -0.653243       -17.7756
  27   2.0000      -0.647451       -17.6180
  28   2.0000      -0.638269       -17.3682
  29   2.0000      -0.593812       -16.1584
  30   2.0000      -0.571098       -15.5404
  31   2.0000      -0.526956       -14.3392
  32   2.0000      -0.515529       -14.0282
  33   2.0000      -0.490393       -13.3443
  34   2.0000      -0.478390       -13.0176
  35   2.0000      -0.452417       -12.3109
  36   2.0000      -0.437300       -11.8996
  37   2.0000      -0.434897       -11.8342
  38   2.0000      -0.430289       -11.7088
  39   2.0000      -0.410931       -11.1820
  40   2.0000      -0.403625       -10.9832
  41   2.0000      -0.391541       -10.6544
  42   2.0000      -0.377733       -10.2786
  43   2.0000      -0.370469       -10.0810
  44   2.0000      -0.368017       -10.0143
  45   2.0000      -0.363478        -9.8907
  46   2.0000      -0.362316        -9.8591
  47   2.0000      -0.358630        -9.7588
  48   2.0000      -0.357894        -9.7388
  49   2.0000      -0.357360        -9.7243
  50   2.0000      -0.345894        -9.4122
  51   2.0000      -0.343784        -9.3548
  52   2.0000      -0.339263        -9.2318
  53   2.0000      -0.338094        -9.2000
  54   2.0000      -0.328837        -8.9481
  55   2.0000      -0.319585        -8.6963
  56   2.0000      -0.302791        -8.2394
  57   2.0000      -0.256945        -6.9918
  58   2.0000      -0.254962        -6.9379
  59   2.0000      -0.240014        -6.5311
  60   2.0000      -0.210448        -5.7266
  61   2.0000      -0.208029        -5.6608
  62   2.0000      -0.193990        -5.2787
  63   2.0000      -0.173413        -4.7188
  64   0.0000      -0.040673        -1.1068
  65   0.0000      -0.013423        -0.3653
  66   0.0000       0.008811         0.2398
  67   0.0000       0.026182         0.7125
  68   0.0000       0.041608         1.1322

MULLIKEN ATOMIC CHARGES
-----------------------
   0 C :   -0.182634
   1 C :   -0.141219
   2 C :   -0.123265
   3 N :   -0.108523
   4 C :    0.053259
   5 N :   -0.142185
   6 C :    0.122454
   7 O :   -0.239708
   8 C :    0.184774
   9 O :   -0.201539
  10 N :   -0.226973
  11 C :   -0.178209
  12 C :   -0.169519
  13 N :   -0.206300
  14 C :   -0.167976
  15 C :   -0.180858
  16 C :   -0.186442
  17 H :    0.103459
  18 H :    0.104409
  19 H :    0.117637
  20 H :    0.110670
  21 H :    0.145020
  22 H :    0.114845
  23 H :    0.111783
  24 H :    0.110563
  25 H :    0.140073
  26 H :    0.104430
  27 H :    0.099901
  28 H :    0.140699
  29 H :    0.100131
  30 H :    0.105253
  31 H :    0.155775
  32 H :    0.105731
  33 H :    0.114944
  34 H :    0.109538
Sum of atomic charges:   -0.0000000

LOEWDIN ATOMIC CHARGES
----------------------
   0 C :   -0.323232
   1 C :   -0.138333
   2 C :    0.007511
   3 N :   -0.130846
   4 C :    0.031104
   5 N :   -0.144576
   6 C :    0.068792
   7 O :   -0.057862
   8 C :    0.042790
   9 O :   -0.186295
  10 N :   -0.044884
  11 C :   -0.246560
  12 C :   -0.252057
  13 N :   -0.038856
  14 C :   -0.254245
  15 C :   -0.254514
  16 C :   -0.330207
  17 H :    0.126281
  18 H :    0.128116
  19 H :    0.133126
  20 H :    0.116674
  21 H :    0.139099
  22 H :    0.118291
  23 H :    0.116688
  24 H :    0.119257
  25 H :    0.131222
  26 H :    0.113895
  27 H :    0.112319
  28 H :    0.134268
  29 H :    0.111130
  30 H :    0.115956
  31 H :    0.135464
  32 H :    0.130783
  33 H :    0.136056
  34 H :    0.133645

  Mayer bond orders larger than 0.100000
B(  0-C ,  1-C ) :   1.1630 B(  0-C , 17-H ) :   0.9258 B(  0-C , 18-H ) :   0.9233
B(  0-C , 19-H ) :   0.9257 B(  1-C ,  2-C ) :   1.3401 B(  1-C ,  6-C ) :   1.3363
B(  2-C ,  3-N ) :   1.5771 B(  2-C , 16-C ) :   1.1619 B(  3-N ,  4-C ) :   1.4314
B(  4-C ,  5-N ) :   1.4028 B(  4-C , 13-N ) :   1.2076 B(  5-N ,  6-C ) :   1.4760
B(  6-C ,  7-O ) :   1.1099 B(  7-O ,  8-C ) :   0.9720 B(  8-C ,  9-O ) :   2.0897
B(  8-C , 10-N ) :   1.2253 B(  9-O , 10-N ) :   0.1022 B( 10-N , 11-C ) :   1.0115
B( 10-N , 12-C ) :   1.0081 B( 11-C , 20-H ) :   0.9480 B( 11-C , 21-H ) :   0.9338
B( 11-C , 22-H ) :   0.9526 B( 12-C , 23-H ) :   0.9423 B( 12-C , 24-H ) :   0.9463
B( 12-C , 25-H ) :   0.9438 B( 13-N , 14-C ) :   1.0165 B( 13-N , 15-C ) :   1.0183
B( 14-C , 26-H ) :   0.9498 B( 14-C , 27-H ) :   0.9497 B( 14-C , 28-H ) :   0.9226
B( 15-C , 29-H ) :   0.9496 B( 15-C , 30-H ) :   0.9482 B( 15-C , 31-H ) :   0.9246
B( 16-C , 32-H ) :   0.9277 B( 16-C , 33-H ) :   0.9230 B( 16-C , 34-H ) :   0.9233

Dispersion correction           -0.041218923
FINAL SINGLE POINT ENERGY      -797.787961550509

DIPOLE MOMENT
-------------

Method             : SCF
Type of density    : Electron Density
Multiplicity       :   1
Irrep              :   0
Energy             :  -797.9063934666130535 Eh
Relativity type    :
Basis              : AO
                                X                 Y                 Z
Electronic contribution:     -4.410427592      -3.683704800       5.962818162
Nuclear contribution   :      4.645601211       4.303044783      -7.368888910
                        -----------------------------------------
Total Dipole Moment    :      0.235173619       0.619339984      -1.406070748
                        -----------------------------------------
Magnitude (a.u.)       :      1.554324160
Magnitude (Debye)      :      3.950778042

Rotational constants in cm-1:             0.020044             0.013144             0.008964
Rotational constants in MHz :           600.899318           394.057730           268.747439

                             ****ORCA TERMINATED NORMALLY****
TOTAL RUN TIME: 0 days 0 hours 0 minutes 27 seconds 134 msec
