                         Program Version 6.0.0  -   RELEASE  -
|  1> ! r2scan-3c def2/J RI DEFGRID2 scfconv6 printgap
|  2> %output
|  3>     printlevel normal
|  4> end
|  5> * xyz 0 1
|  6> C -2.7590257159 0.5651905132 1.070669607
|  7> O -1.3592533782 0.8312380104 0.8066916615
|  8> C -0.7598382866 0.0593200128 -0.082984503
|  9> C 0.7071518978 0.4760113992 -0.2447009753
| 10> Cl 1.4997972307 0.3440131095 1.3281611582
| 11> Cl 1.5022521161 -0.560464501 -1.4411482697
| 12> F -0.8530015986 -1.2750091217 0.2280517199
| 13> F -1.376110674 0.1204058399 -1.3175954389
| 14> H -3.3389080055 0.6935477004 0.1572189882
| 15> H -3.0342696386 1.3048579614 1.8144236948
| 16> H -2.8794697429 -0.4446365774 1.4615956565
| 17> H 0.7561978104 1.5139356425 -0.5809445323
| 18> *
| 19>
| 20>                          ****END OF INPUT****

CARTESIAN COORDINATES (ANGSTROEM)
---------------------------------
  C     -2.759026    0.565191    1.070670
  O     -1.359253    0.831238    0.806692
  C     -0.759838    0.059320   -0.082985
  C      0.707152    0.476011   -0.244701
  Cl     1.499797    0.344013    1.328161
  Cl     1.502252   -0.560465   -1.441148
  F     -0.853002   -1.275009    0.228052
  F     -1.376111    0.120406   -1.317595
  H     -3.338908    0.693548    0.157219
  H     -3.034270    1.304858    1.814424
  H     -2.879470   -0.444637    1.461596
  H      0.756198    1.513936   -0.580945

 Total Charge           Charge          ....    0
 Multiplicity           Mult            ....    1
 Number of Electrons    NEL             ....   82
 Basis Dimension        Dim             ....  203

ORBITAL ENERGIES
----------------

  NO   OCC          E(Eh)            E(eV)
   0   2.0000    -101.231944     -2754.6612
   1   2.0000    -101.231882     -2754.6596
   2   2.0000     -24.506172      -666.8468
   3   2.0000     -24.505502      -666.8286
   4   2.0000     -19.014046      -517.3985
   5   2.0000     -10.266791      -279.3736
   6   2.0000     -10.180477      -277.0249
   7   2.0000     -10.106709      -275.0175
   8   2.0000      -9.387909      -255.4580
   9   2.0000      -9.387749      -255.4537
  10   2.0000      -7.134865      -194.1495
  11   2.0000      -7.134769      -194.1469
  12   2.0000      -7.123646      -193.8443
  13   2.0000      -7.123518      -193.8408
  14   2.0000      -7.123469      -193.8394
  15   2.0000      -7.123268      -193.8340
  16   2.0000      -1.237388       -33.6710
  17   2.0000      -1.165516       -31.7153
  18   2.0000      -1.065906       -29.0048
  19   2.0000      -0.889259       -24.1980
  20   2.0000      -0.798837       -21.7375
  21   2.0000      -0.745058       -20.2741
  22   2.0000      -0.665283       -18.1033
  23   2.0000      -0.605202       -16.4684
  24   2.0000      -0.544210       -14.8087
  25   2.0000      -0.540665       -14.7122
  26   2.0000      -0.522415       -14.2156
  27   2.0000      -0.460809       -12.5392
  28   2.0000      -0.446308       -12.1447
  29   2.0000      -0.438385       -11.9291
  30   2.0000      -0.422520       -11.4973
  31   2.0000      -0.415531       -11.3072
  32   2.0000      -0.383599       -10.4383
  33   2.0000      -0.374492       -10.1904
  34   2.0000      -0.365940        -9.9577
  35   2.0000      -0.345543        -9.4027
  36   2.0000      -0.315663        -8.5896
  37   2.0000      -0.305008        -8.2997
  38   2.0000      -0.297286        -8.0896
  39   2.0000      -0.288035        -7.8378
  40   2.0000      -0.282953        -7.6995
  41   0.0000      -0.037980        -1.0335
  42   0.0000      -0.014416        -0.3923
  43   0.0000       0.060508         1.6465
  44   0.0000       0.066691         1.8148
  45   0.0000       0.094015         2.5583

MULLIKEN ATOMIC CHARGES
-----------------------
   0 C :   -0.303586
   1 O :   -0.199294
   2 C :    0.451270
   3 C :    0.003515
   4 Cl:   -0.098359
   5 Cl:   -0.092825
   6 F :   -0.233533
   7 F :   -0.236529
   8 H :    0.170195
   9 H :    0.162747
  10 H :    0.173040
  11 H :    0.203360
Sum of atomic charges:    0.0000000

LOEWDIN ATOMIC CHARGES
----------------------
   0 C :   -0.039107
   1 O :   -0.620266
   2 C :    0.418416
   3 C :   -0.277939
   4 Cl:    0.137898
   5 Cl:    0.127526
   6 F :   -0.231497
   7 F :   -0.238436
   8 H :    0.175847
   9 H :    0.184286
  10 H :    0.177179
  11 H :    0.186093

  Mayer bond orders larger than 0.100000
B(  0-C ,  1-O ) :   0.8226 B(  0-C ,  8-H ) :   0.9625 B(  0-C ,  9-H ) :   0.9668
B(  0-C , 10-H ) :   0.9625 B(  1-O ,  2-C ) :   1.1724 B(  2-C ,  3-C ) :   0.9512
B(  2-C ,  6-F ) :   0.9459 B(  2-C ,  7-F ) :   0.9274 B(  3-C ,  4-Cl) :   1.0505
B(  3-C ,  5-Cl) :   1.0531 B(  3-C , 11-H ) :   0.9185

Dispersion correction           -0.003577897
FINAL SINGLE POINT ENERGY     -1311.944758068058

DIPOLE MOMENT
-------------

Method             : SCF
Type of density    : Electron Density
Multiplicity       :   1
Irrep              :   0
Energy             : -1311.9574350118477923 Eh
Relativity type    :
Basis              : AO
                                X                 Y                 Z
Electronic contribution:      9.154256678      -3.629144504      -3.522676990
Nuclear contribution   :     -9.955294371       4.250646007       3.849038583
                        -----------------------------------------
Total Dipole Moment    :     -0.801037693       0.621501503       0.326361593
                        -----------------------------------------
Magnitude (a.u.)       :      1.065099711
Magnitude (Debye)      :      2.707268315

Rotational constants in cm-1:             0.066113             0.038603             0.028387
Rotational constants in MHz :          1982.032202          1157.289479           851.035234

                             ****ORCA TERMINATED NORMALLY****
TOTAL RUN TIME: 0 days 0 hours 0 minutes 19 seconds 386 msec
