                         Program Version 6.0.0  -   RELEASE  -
|  1> ! r2scan-3c def2/J RI DEFGRID2 scfconv6 printgap
|  2> %output
|  3>     printlevel normal
|  4> end
|  5> %cpcm
|  6>     smd true
|  7>     smdsolvent "water"
|  8> end
|  9> * xyz 0 1
| 10> C -2.7590257159 0.5651905132 1.070669607
| 11> O -1.3592533782 0.8312380104 0.8066916615
| 12> C -0.7598382866 0.0593200128 -0.082984503
| 13> C 0.7071518978 0.4760113992 -0.2447009753
| 14> Cl 1.4997972307 0.3440131095 1.3281611582
| 15> Cl 1.5022521161 -0.560464501 -1.4411482697
| 16> F -0.8530015986 -1.2750091217 0.2280517199
| 17> F -1.376110674 0.1204058399 -1.3175954389
| 18> H -3.3389080055 0.6935477004 0.1572189882
| 19> H -3.0342696386 1.3048579614 1.8144236948
| 20> H -2.8794697429 -0.4446365774 1.4615956565
| 21> H 0.7561978104 1.5139356425 -0.5809445323
| 22> *
| 23>
| 24>                          ****END OF INPUT****

CARTESIAN COORDINATES (ANGSTROEM)
---------------------------------
  C     -2.759026    0.565191    1.070670
  O     -1.359253    0.831238    0.806692
  C     -0.759838    0.059320   -0.082985
  C      0.707152    0.476011   -0.244701
  Cl     1.499797    0.344013    1.328161
  Cl     1.502252   -0.560465   -1.441148
  F     -0.853002   -1.275009    0.228052
  F     -1.376111    0.120406   -1.317595
  H     -3.338908    0.693548    0.157219
  H     -3.034270    1.304858    1.814424
  H     -2.879470   -0.444637    1.461596
  H      0.756198    1.513936   -0.580945

 Total Charge           Charge          ....    0
 Multiplicity           Mult            ....    1
 Number of Electrons    NEL             ....   82
 Basis Dimension        Dim             ....  203

ORBITAL ENERGIES
----------------

  NO   OCC          E(Eh)            E(eV)
   0   2.0000    -101.235739     -2754.7645
   1   2.0000    -101.235050     -2754.7458
   2   2.0000     -24.510050      -666.9524
   3   2.0000     -24.508390      -666.9072
   4   2.0000     -19.007943      -517.2324
   5   2.0000     -10.266140      -279.3559
   6   2.0000     -10.176348      -276.9125
   7   2.0000     -10.084914      -274.4245
   8   2.0000      -9.391657      -255.5600
   9   2.0000      -9.391148      -255.5461
  10   2.0000      -7.138485      -194.2481
  11   2.0000      -7.137952      -194.2336
  12   2.0000      -7.127540      -193.9502
  13   2.0000      -7.127235      -193.9419
  14   2.0000      -7.126985      -193.9351
  15   2.0000      -7.126752      -193.9288
  16   2.0000      -1.240106       -33.7450
  17   2.0000      -1.169093       -31.8126
  18   2.0000      -1.060399       -28.8549
  19   2.0000      -0.890225       -24.2242
  20   2.0000      -0.802108       -21.8265
  21   2.0000      -0.736914       -20.0524
  22   2.0000      -0.656840       -17.8735
  23   2.0000      -0.605234       -16.4692
  24   2.0000      -0.545487       -14.8435
  25   2.0000      -0.531836       -14.4720
  26   2.0000      -0.520025       -14.1506
  27   2.0000      -0.457517       -12.4497
  28   2.0000      -0.441679       -12.0187
  29   2.0000      -0.431183       -11.7331
  30   2.0000      -0.423102       -11.5132
  31   2.0000      -0.404747       -11.0137
  32   2.0000      -0.383018       -10.4225
  33   2.0000      -0.375967       -10.2306
  34   2.0000      -0.369194       -10.0463
  35   2.0000      -0.335865        -9.1394
  36   2.0000      -0.318610        -8.6698
  37   2.0000      -0.308414        -8.3924
  38   2.0000      -0.294120        -8.0034
  39   2.0000      -0.290149        -7.8954
  40   2.0000      -0.284369        -7.7381
  41   0.0000      -0.038990        -1.0610
  42   0.0000      -0.013684        -0.3724
  43   0.0000       0.073412         1.9976
  44   0.0000       0.077945         2.1210
  45   0.0000       0.106220         2.8904

MULLIKEN ATOMIC CHARGES
-----------------------
   0 C :   -0.316889
   1 O :   -0.222829
   2 C :    0.447646
   3 C :   -0.005814
   4 Cl:   -0.118840
   5 Cl:   -0.117375
   6 F :   -0.243043
   7 F :   -0.244633
   8 H :    0.185624
   9 H :    0.187918
  10 H :    0.186484
  11 H :    0.261751
Sum of atomic charges:   -0.0000000

LOEWDIN ATOMIC CHARGES
----------------------
   0 C :   -0.034221
   1 O :   -0.630587
   2 C :    0.417251
   3 C :   -0.272305
   4 Cl:    0.126026
   5 Cl:    0.112436
   6 F :   -0.242644
   7 F :   -0.243982
   8 H :    0.182816
   9 H :    0.194791
  10 H :    0.183025
  11 H :    0.207394

  Mayer bond orders larger than 0.100000
B(  0-C ,  1-O ) :   0.8084 B(  0-C ,  8-H ) :   0.9545 B(  0-C ,  9-H ) :   0.9565
B(  0-C , 10-H ) :   0.9544 B(  1-O ,  2-C ) :   1.1849 B(  2-C ,  3-C ) :   0.9506
B(  2-C ,  6-F ) :   0.9379 B(  2-C ,  7-F ) :   0.9260 B(  3-C ,  4-Cl) :   1.0299
B(  3-C ,  5-Cl) :   1.0239 B(  3-C , 11-H ) :   0.9021

Dispersion correction           -0.003577897
FINAL SINGLE POINT ENERGY     -1311.948051387520

DIPOLE MOMENT
-------------

Method             : SCF
Type of density    : Electron Density
Multiplicity       :   1
Irrep              :   0
Energy             : -1311.9607283313096104 Eh
Relativity type    :
Basis              : AO
                                X                 Y                 Z
Electronic contribution:      8.953123787      -3.376466533      -3.493595300
Nuclear contribution   :     -9.955294371       4.250646007       3.849038583
                        -----------------------------------------
Total Dipole Moment    :     -1.002170584       0.874179474       0.355443283
                        -----------------------------------------
Magnitude (a.u.)       :      1.376544791
Magnitude (Debye)      :      3.498898796

Rotational constants in cm-1:             0.066113             0.038603             0.028387
Rotational constants in MHz :          1982.032202          1157.289479           851.035234

                             ****ORCA TERMINATED NORMALLY****
TOTAL RUN TIME: 0 days 0 hours 0 minutes 23 seconds 185 msec
