                         Program Version 6.0.0  -   RELEASE  -
|  1> ! r2scan-3c def2/J RI DEFGRID2 scfconv6 printgap
|  2> %output
|  3>     printlevel normal
|  4> end
|  5> * xyz 0 1
|  6> C -1.5556941736 1.1189504192 0.5124281385
|  7> C -1.1471367591 -0.2809234574 0.0591779392
|  8> C -2.3156234308 -0.9196310201 -0.6960180422
|  9> C 0.0896947335 -0.2873647703 -0.8510616466
| 10> C 1.4779003007 -0.0697120041 -0.2216588707
| 11> C 1.7660829979 1.3794194594 0.1685833642
| 12> C 1.7319470687 -0.9980510333 0.9645075007
| 13> H -0.8245015631 1.5513437166 1.186917142
| 14> H -1.666281731 1.7784175877 -0.3456978714
| 15> H -2.5090743615 1.0769140069 1.0355971717
| 16> H -0.945139686 -0.8926308501 0.9431236923
| 17> H -3.2063443102 -0.9431248523 -0.0722702378
| 18> H -2.5415782161 -0.3482916931 -1.5941511088
| 19> H -2.0778841882 -1.9398005969 -0.9890991449
| 20> H -0.0532186674 0.4594069421 -1.6364377425
| 21> H 0.1207789197 -1.2647219586 -1.3410910623
| 22> H 2.1960584237 -0.3348851498 -1.0086753652
| 23> H 1.2378551163 1.6583992232 1.0754159452
| 24> H 2.8310302373 1.5065925488 0.3530063773
| 25> H 1.4738312265 2.0593186392 -0.6278305764
| 26> H 1.5021461403 -2.0281992543 0.7025436483
| 27> H 2.7765147779 -0.9442311179 1.2629626424
| 28> H 1.1236809597 -0.711523448 1.8188612695
| 29> *
| 30>
| 31>                          ****END OF INPUT****

CARTESIAN COORDINATES (ANGSTROEM)
---------------------------------
  C     -1.555694    1.118950    0.512428
  C     -1.147137   -0.280923    0.059178
  C     -2.315623   -0.919631   -0.696018
  C      0.089695   -0.287365   -0.851062
  C      1.477900   -0.069712   -0.221659
  C      1.766083    1.379419    0.168583
  C      1.731947   -0.998051    0.964508
  H     -0.824502    1.551344    1.186917
  H     -1.666282    1.778418   -0.345698
  H     -2.509074    1.076914    1.035597
  H     -0.945140   -0.892631    0.943124
  H     -3.206344   -0.943125   -0.072270
  H     -2.541578   -0.348292   -1.594151
  H     -2.077884   -1.939801   -0.989099
  H     -0.053219    0.459407   -1.636438
  H      0.120779   -1.264722   -1.341091
  H      2.196058   -0.334885   -1.008675
  H      1.237855    1.658399    1.075416
  H      2.831030    1.506593    0.353006
  H      1.473831    2.059319   -0.627831
  H      1.502146   -2.028199    0.702544
  H      2.776515   -0.944231    1.262963
  H      1.123681   -0.711523    1.818861

 Total Charge           Charge          ....    0
 Multiplicity           Mult            ....    1
 Number of Electrons    NEL             ....   58
 Basis Dimension        Dim             ....  213

ORBITAL ENERGIES
----------------

  NO   OCC          E(Eh)            E(eV)
   0   2.0000     -10.030683      -272.9487
   1   2.0000     -10.029173      -272.9077
   2   2.0000     -10.017540      -272.5911
   3   2.0000     -10.013007      -272.4678
   4   2.0000     -10.011711      -272.4325
   5   2.0000     -10.011368      -272.4232
   6   2.0000     -10.011091      -272.4156
   7   2.0000      -0.784466       -21.3464
   8   2.0000      -0.741937       -20.1891
   9   2.0000      -0.651183       -17.7196
  10   2.0000      -0.645119       -17.5546
  11   2.0000      -0.639911       -17.4129
  12   2.0000      -0.546681       -14.8759
  13   2.0000      -0.503565       -13.7027
  14   2.0000      -0.435857       -11.8603
  15   2.0000      -0.427035       -11.6202
  16   2.0000      -0.407582       -11.0909
  17   2.0000      -0.386216       -10.5095
  18   2.0000      -0.384828       -10.4717
  19   2.0000      -0.364143        -9.9088
  20   2.0000      -0.350993        -9.5510
  21   2.0000      -0.347408        -9.4535
  22   2.0000      -0.327130        -8.9016
  23   2.0000      -0.324220        -8.8225
  24   2.0000      -0.305244        -8.3061
  25   2.0000      -0.300036        -8.1644
  26   2.0000      -0.284527        -7.7424
  27   2.0000      -0.276945        -7.5361
  28   2.0000      -0.266753        -7.2587
  29   0.0000       0.074977         2.0402
  30   0.0000       0.106651         2.9021
  31   0.0000       0.119097         3.2408
  32   0.0000       0.122991         3.3468
  33   0.0000       0.129084         3.5126

MULLIKEN ATOMIC CHARGES
-----------------------
   0 C :   -0.494948
   1 C :   -0.037905
   2 C :   -0.479547
   3 C :   -0.316057
   4 C :    0.008903
   5 C :   -0.509183
   6 C :   -0.512760
   7 H :    0.139638
   8 H :    0.156079
   9 H :    0.140353
  10 H :    0.149996
  11 H :    0.144953
  12 H :    0.145470
  13 H :    0.144862
  14 H :    0.148122
  15 H :    0.141838
  16 H :    0.145030
  17 H :    0.141931
  18 H :    0.145336
  19 H :    0.147650
  20 H :    0.149970
  21 H :    0.146275
  22 H :    0.153993
Sum of atomic charges:    0.0000000

LOEWDIN ATOMIC CHARGES
----------------------
   0 C :   -0.414974
   1 C :   -0.244309
   2 C :   -0.418129
   3 C :   -0.300764
   4 C :   -0.243732
   5 C :   -0.418029
   6 C :   -0.419584
   7 H :    0.150897
   8 H :    0.154005
   9 H :    0.151973
  10 H :    0.157021
  11 H :    0.151022
  12 H :    0.154200
  13 H :    0.151303
  14 H :    0.159596
  15 H :    0.160198
  16 H :    0.155449
  17 H :    0.149193
  18 H :    0.152304
  19 H :    0.153637
  20 H :    0.154212
  21 H :    0.153487
  22 H :    0.151025

  Mayer bond orders larger than 0.100000
B(  0-C ,  1-C ) :   0.9027 B(  0-C ,  7-H ) :   0.9649 B(  0-C ,  8-H ) :   0.9920
B(  0-C ,  9-H ) :   0.9730 B(  1-C ,  2-C ) :   0.9038 B(  1-C ,  3-C ) :   0.8830
B(  1-C , 10-H ) :   0.9567 B(  2-C , 11-H ) :   0.9773 B(  2-C , 12-H ) :   0.9842
B(  2-C , 13-H ) :   0.9779 B(  3-C ,  4-C ) :   0.9133 B(  3-C , 14-H ) :   0.9853
B(  3-C , 15-H ) :   0.9763 B(  4-C ,  5-C ) :   0.9121 B(  4-C ,  6-C ) :   0.8946
B(  4-C , 16-H ) :   0.9678 B(  5-C , 17-H ) :   0.9831 B(  5-C , 18-H ) :   0.9700
B(  5-C , 19-H ) :   0.9755 B(  6-C , 20-H ) :   0.9757 B(  6-C , 21-H ) :   0.9702
B(  6-C , 22-H ) :   0.9822

Dispersion correction           -0.006500626
FINAL SINGLE POINT ENERGY      -276.284272641627

DIPOLE MOMENT
-------------

Method             : SCF
Type of density    : Electron Density
Multiplicity       :   1
Irrep              :   0
Energy             :  -276.2889675967860512 Eh
Relativity type    :
Basis              : AO
                                X                 Y                 Z
Electronic contribution:      0.579179707      -0.678664123      -0.729154451
Nuclear contribution   :     -0.527365801       0.640749010       0.715981147
                        -----------------------------------------
Total Dipole Moment    :      0.051813906      -0.037915113      -0.013173304
                        -----------------------------------------
Magnitude (a.u.)       :      0.065542144
Magnitude (Debye)      :      0.166594889

Rotational constants in cm-1:             0.127032             0.052745             0.045881
Rotational constants in MHz :          3808.328367          1581.257830          1375.486129

                             ****ORCA TERMINATED NORMALLY****
TOTAL RUN TIME: 0 days 0 hours 0 minutes 23 seconds 835 msec
