                         Program Version 6.0.0  -   RELEASE  -
|  1> ! r2scan-3c def2/J RI DEFGRID2 scfconv6 printgap
|  2> %output
|  3>     printlevel normal
|  4> end
|  5> %cpcm
|  6>     smd true
|  7>     smdsolvent "water"
|  8> end
|  9> * xyz 0 1
| 10> C -1.5556941736 1.1189504192 0.5124281385
| 11> C -1.1471367591 -0.2809234574 0.0591779392
| 12> C -2.3156234308 -0.9196310201 -0.6960180422
| 13> C 0.0896947335 -0.2873647703 -0.8510616466
| 14> C 1.4779003007 -0.0697120041 -0.2216588707
| 15> C 1.7660829979 1.3794194594 0.1685833642
| 16> C 1.7319470687 -0.9980510333 0.9645075007
| 17> H -0.8245015631 1.5513437166 1.186917142
| 18> H -1.666281731 1.7784175877 -0.3456978714
| 19> H -2.5090743615 1.0769140069 1.0355971717
| 20> H -0.945139686 -0.8926308501 0.9431236923
| 21> H -3.2063443102 -0.9431248523 -0.0722702378
| 22> H -2.5415782161 -0.3482916931 -1.5941511088
| 23> H -2.0778841882 -1.9398005969 -0.9890991449
| 24> H -0.0532186674 0.4594069421 -1.6364377425
| 25> H 0.1207789197 -1.2647219586 -1.3410910623
| 26> H 2.1960584237 -0.3348851498 -1.0086753652
| 27> H 1.2378551163 1.6583992232 1.0754159452
| 28> H 2.8310302373 1.5065925488 0.3530063773
| 29> H 1.4738312265 2.0593186392 -0.6278305764
| 30> H 1.5021461403 -2.0281992543 0.7025436483
| 31> H 2.7765147779 -0.9442311179 1.2629626424
| 32> H 1.1236809597 -0.711523448 1.8188612695
| 33> *
| 34>
| 35>                          ****END OF INPUT****

CARTESIAN COORDINATES (ANGSTROEM)
---------------------------------
  C     -1.555694    1.118950    0.512428
  C     -1.147137   -0.280923    0.059178
  C     -2.315623   -0.919631   -0.696018
  C      0.089695   -0.287365   -0.851062
  C      1.477900   -0.069712   -0.221659
  C      1.766083    1.379419    0.168583
  C      1.731947   -0.998051    0.964508
  H     -0.824502    1.551344    1.186917
  H     -1.666282    1.778418   -0.345698
  H     -2.509074    1.076914    1.035597
  H     -0.945140   -0.892631    0.943124
  H     -3.206344   -0.943125   -0.072270
  H     -2.541578   -0.348292   -1.594151
  H     -2.077884   -1.939801   -0.989099
  H     -0.053219    0.459407   -1.636438
  H      0.120779   -1.264722   -1.341091
  H      2.196058   -0.334885   -1.008675
  H      1.237855    1.658399    1.075416
  H      2.831030    1.506593    0.353006
  H      1.473831    2.059319   -0.627831
  H      1.502146   -2.028199    0.702544
  H      2.776515   -0.944231    1.262963
  H      1.123681   -0.711523    1.818861

 Total Charge           Charge          ....    0
 Multiplicity           Mult            ....    1
 Number of Electrons    NEL             ....   58
 Basis Dimension        Dim             ....  213

ORBITAL ENERGIES
----------------

  NO   OCC          E(Eh)            E(eV)
   0   2.0000     -10.022972      -272.7389
   1   2.0000     -10.021763      -272.7060
   2   2.0000     -10.009295      -272.3668
   3   2.0000     -10.004824      -272.2451
   4   2.0000     -10.004629      -272.2398
   5   2.0000     -10.003503      -272.2091
   6   2.0000     -10.003481      -272.2086
   7   2.0000      -0.776792       -21.1376
   8   2.0000      -0.734527       -19.9875
   9   2.0000      -0.644098       -17.5268
  10   2.0000      -0.637825       -17.3561
  11   2.0000      -0.632920       -17.2226
  12   2.0000      -0.539465       -14.6796
  13   2.0000      -0.496125       -13.5003
  14   2.0000      -0.428141       -11.6503
  15   2.0000      -0.419418       -11.4129
  16   2.0000      -0.400110       -10.8876
  17   2.0000      -0.378867       -10.3095
  18   2.0000      -0.377285       -10.2664
  19   2.0000      -0.356794        -9.7088
  20   2.0000      -0.343722        -9.3531
  21   2.0000      -0.340126        -9.2553
  22   2.0000      -0.319506        -8.6942
  23   2.0000      -0.316382        -8.6092
  24   2.0000      -0.297975        -8.1083
  25   2.0000      -0.292665        -7.9638
  26   2.0000      -0.276668        -7.5285
  27   2.0000      -0.269396        -7.3306
  28   2.0000      -0.258944        -7.0462
  29   0.0000       0.083561         2.2738
  30   0.0000       0.114253         3.1090
  31   0.0000       0.127242         3.4624
  32   0.0000       0.129184         3.5153
  33   0.0000       0.135759         3.6942

MULLIKEN ATOMIC CHARGES
-----------------------
   0 C :   -0.547779
   1 C :   -0.013635
   2 C :   -0.525494
   3 C :   -0.334221
   4 C :    0.023805
   5 C :   -0.557630
   6 C :   -0.553364
   7 H :    0.154504
   8 H :    0.167562
   9 H :    0.151073
  10 H :    0.156340
  11 H :    0.156245
  12 H :    0.155637
  13 H :    0.156523
  14 H :    0.157387
  15 H :    0.149506
  16 H :    0.150938
  17 H :    0.158191
  18 H :    0.155472
  19 H :    0.157523
  20 H :    0.159121
  21 H :    0.156409
  22 H :    0.165888
Sum of atomic charges:    0.0000000

LOEWDIN ATOMIC CHARGES
----------------------
   0 C :   -0.424416
   1 C :   -0.242189
   2 C :   -0.427556
   3 C :   -0.303805
   4 C :   -0.241933
   5 C :   -0.427547
   6 C :   -0.427829
   7 H :    0.154242
   8 H :    0.156122
   9 H :    0.153990
  10 H :    0.158949
  11 H :    0.153384
  12 H :    0.155975
  13 H :    0.153719
  14 H :    0.161745
  15 H :    0.161881
  16 H :    0.157048
  17 H :    0.152979
  18 H :    0.154175
  19 H :    0.155435
  20 H :    0.156252
  21 H :    0.155257
  22 H :    0.154122

  Mayer bond orders larger than 0.100000
B(  0-C ,  1-C ) :   0.8891 B(  0-C ,  7-H ) :   0.9642 B(  0-C ,  8-H ) :   0.9898
B(  0-C ,  9-H ) :   0.9715 B(  1-C ,  2-C ) :   0.8913 B(  1-C ,  3-C ) :   0.8803
B(  1-C , 10-H ) :   0.9578 B(  2-C , 11-H ) :   0.9751 B(  2-C , 12-H ) :   0.9832
B(  2-C , 13-H ) :   0.9756 B(  3-C ,  4-C ) :   0.9128 B(  3-C , 14-H ) :   0.9843
B(  3-C , 15-H ) :   0.9757 B(  4-C ,  5-C ) :   0.8988 B(  4-C ,  6-C ) :   0.8883
B(  4-C , 16-H ) :   0.9697 B(  5-C , 17-H ) :   0.9814 B(  5-C , 18-H ) :   0.9686
B(  5-C , 19-H ) :   0.9732 B(  6-C , 20-H ) :   0.9731 B(  6-C , 21-H ) :   0.9692
B(  6-C , 22-H ) :   0.9791

Dispersion correction           -0.006500626
FINAL SINGLE POINT ENERGY      -276.280656133524

DIPOLE MOMENT
-------------

Method             : SCF
Type of density    : Electron Density
Multiplicity       :   1
Irrep              :   0
Energy             :  -276.2853510886830009 Eh
Relativity type    :
Basis              : AO
                                X                 Y                 Z
Electronic contribution:      0.589196557      -0.690069607      -0.721617818
Nuclear contribution   :     -0.527365801       0.640749010       0.715981147
                        -----------------------------------------
Total Dipole Moment    :      0.061830757      -0.049320598      -0.005636671
                        -----------------------------------------
Magnitude (a.u.)       :      0.079292723
Magnitude (Debye)      :      0.201546084

Rotational constants in cm-1:             0.127032             0.052745             0.045881
Rotational constants in MHz :          3808.328367          1581.257830          1375.486129

                             ****ORCA TERMINATED NORMALLY****
TOTAL RUN TIME: 0 days 0 hours 0 minutes 28 seconds 63 msec
