                         Program Version 6.0.0  -   RELEASE  -
|  1> ! r2scan-3c def2/J RI DEFGRID2 scfconv6 printgap
|  2> %output
|  3>     printlevel normal
|  4> end
|  5> * xyz 0 1
|  6> C -3.0156917633 -0.6746429253 2.0550004572
|  7> C -3.0020975749 -1.4636609589 0.7503803401
|  8> C -2.7257872466 -0.5735972667 -0.464405811
|  9> H -3.4885700987 0.2110006526 -0.506094724
| 10> C -2.7425263403 -1.3561308814 -1.7735310238
| 11> N -1.4535854229 0.1568285331 -0.3097881175
| 12> C -0.262232234 -0.5580580686 -0.2111406741
| 13> O -0.2293104451 -1.7741617099 -0.2663688313
| 14> C 0.9191358739 0.261776878 -0.0384780028
| 15> C 0.8780055254 1.6164206284 0.0185740406
| 16> N -0.3479455487 2.2004929382 -0.0906241561
| 17> C -1.5331988758 1.5284699896 -0.2486566288
| 18> O -2.580001312 2.1477509049 -0.3299110397
| 19> C 2.0547249955 2.5007520115 0.2051962679
| 20> Br 2.5529020737 -0.6972100961 0.1139375114
| 21> H -3.3340724855 -1.3123363375 2.8746930308
| 22> H -2.0231884997 -0.2930209019 2.2900113476
| 23> H -3.6986468573 0.1695893777 1.9832529976
| 24> H -2.2540960171 -2.255699652 0.8000160519
| 25> H -3.9763923105 -1.9273464036 0.5951213846
| 26> H -3.7255905951 -1.7945348442 -1.9131020234
| 27> H -2.5326706353 -0.6949971256 -2.6112477979
| 28> H -2.0024129769 -2.1513951212 -1.7539071536
| 29> H -0.4266489328 3.2117666776 -0.0444611946
| 30> H 1.8349096672 3.511997779 -0.1206368791
| 31> H 2.909191816 2.1152199982 -0.3458833696
| 32> H 2.3326904711 2.5237060955 1.2584611077
| 33> *
| 34>
| 35>                          ****END OF INPUT****

CARTESIAN COORDINATES (ANGSTROEM)
---------------------------------
  C     -3.015692   -0.674643    2.055000
  C     -3.002098   -1.463661    0.750380
  C     -2.725787   -0.573597   -0.464406
  H     -3.488570    0.211001   -0.506095
  C     -2.742526   -1.356131   -1.773531
  N     -1.453585    0.156829   -0.309788
  C     -0.262232   -0.558058   -0.211141
  O     -0.229310   -1.774162   -0.266369
  C      0.919136    0.261777   -0.038478
  C      0.878006    1.616421    0.018574
  N     -0.347946    2.200493   -0.090624
  C     -1.533199    1.528470   -0.248657
  O     -2.580001    2.147751   -0.329911
  C      2.054725    2.500752    0.205196
  Br     2.552902   -0.697210    0.113938
  H     -3.334072   -1.312336    2.874693
  H     -2.023188   -0.293021    2.290011
  H     -3.698647    0.169589    1.983253
  H     -2.254096   -2.255700    0.800016
  H     -3.976392   -1.927346    0.595121
  H     -3.725591   -1.794535   -1.913102
  H     -2.532671   -0.694997   -2.611248
  H     -2.002413   -2.151395   -1.753907
  H     -0.426649    3.211767   -0.044461
  H      1.834910    3.511998   -0.120637
  H      2.909192    2.115220   -0.345883
  H      2.332690    2.523706    1.258461

 Total Charge           Charge          ....    0
 Multiplicity           Mult            ....    1
 Number of Electrons    NEL             ....  132
 Basis Dimension        Dim             ....  368

ORBITAL ENERGIES
----------------

  NO   OCC          E(Eh)            E(eV)
   0   2.0000    -482.235849    -13122.3046
   1   2.0000     -62.307026     -1695.4604
   2   2.0000     -56.087617     -1526.2216
   3   2.0000     -56.084841     -1526.1461
   4   2.0000     -56.084610     -1526.1398
   5   2.0000     -18.932546      -515.1808
   6   2.0000     -18.927377      -515.0401
   7   2.0000     -14.241390      -387.5279
   8   2.0000     -14.227600      -387.1527
   9   2.0000     -10.182517      -277.0804
  10   2.0000     -10.152286      -276.2577
  11   2.0000     -10.130682      -275.6699
  12   2.0000     -10.099266      -274.8150
  13   2.0000     -10.076734      -274.2019
  14   2.0000     -10.070148      -274.0227
  15   2.0000     -10.025657      -272.8120
  16   2.0000     -10.017769      -272.5973
  17   2.0000     -10.017163      -272.5809
  18   2.0000      -8.638847      -235.0750
  19   2.0000      -6.447008      -175.4320
  20   2.0000      -6.432631      -175.0408
  21   2.0000      -6.431812      -175.0185
  22   2.0000      -2.544426       -69.2374
  23   2.0000      -2.540917       -69.1419
  24   2.0000      -2.540352       -69.1265
  25   2.0000      -2.529636       -68.8349
  26   2.0000      -2.529626       -68.8346
  27   2.0000      -1.054253       -28.6877
  28   2.0000      -1.015973       -27.6460
  29   2.0000      -0.958974       -26.0950
  30   2.0000      -0.919541       -25.0220
  31   2.0000      -0.815125       -22.1807
  32   2.0000      -0.774499       -21.0752
  33   2.0000      -0.749930       -20.4066
  34   2.0000      -0.708757       -19.2863
  35   2.0000      -0.695158       -18.9162
  36   2.0000      -0.641965       -17.4688
  37   2.0000      -0.636876       -17.3303
  38   2.0000      -0.599407       -16.3107
  39   2.0000      -0.567768       -15.4498
  40   2.0000      -0.553575       -15.0635
  41   2.0000      -0.519129       -14.1262
  42   2.0000      -0.474408       -12.9093
  43   2.0000      -0.458310       -12.4713
  44   2.0000      -0.438010       -11.9189
  45   2.0000      -0.434637       -11.8271
  46   2.0000      -0.415279       -11.3003
  47   2.0000      -0.411135       -11.1876
  48   2.0000      -0.406015       -11.0482
  49   2.0000      -0.398327       -10.8390
  50   2.0000      -0.397538       -10.8176
  51   2.0000      -0.390798       -10.6342
  52   2.0000      -0.382807       -10.4167
  53   2.0000      -0.374861       -10.2005
  54   2.0000      -0.359097        -9.7715
  55   2.0000      -0.338067        -9.1993
  56   2.0000      -0.335672        -9.1341
  57   2.0000      -0.316758        -8.6194
  58   2.0000      -0.309681        -8.4268
  59   2.0000      -0.305393        -8.3102
  60   2.0000      -0.292832        -7.9684
  61   2.0000      -0.269793        -7.3414
  62   2.0000      -0.255836        -6.9617
  63   2.0000      -0.253110        -6.8875
  64   2.0000      -0.233963        -6.3665
  65   2.0000      -0.218461        -5.9446
  66   0.0000      -0.073519        -2.0005
  67   0.0000      -0.033375        -0.9082
  68   0.0000      -0.025496        -0.6938
  69   0.0000       0.038223         1.0401
  70   0.0000       0.067435         1.8350

MULLIKEN ATOMIC CHARGES
-----------------------
   0 C :   -0.518520
   1 C :   -0.274466
   2 C :   -0.068959
   3 H :    0.216838
   4 C :   -0.547318
   5 N :    0.173172
   6 C :    0.205278
   7 O :   -0.429933
   8 C :   -0.139979
   9 C :    0.169257
  10 N :   -0.031841
  11 C :    0.249367
  12 O :   -0.460005
  13 C :   -0.585831
  14 Br:   -0.078799
  15 H :    0.152215
  16 H :    0.149305
  17 H :    0.161014
  18 H :    0.195128
  19 H :    0.148479
  20 H :    0.150975
  21 H :    0.153205
  22 H :    0.199567
  23 H :    0.277124
  24 H :    0.149123
  25 H :    0.187956
  26 H :    0.197648
Sum of atomic charges:    0.0000000

LOEWDIN ATOMIC CHARGES
----------------------
   0 C :   -0.409333
   1 C :   -0.265495
   2 C :    0.042649
   3 H :    0.221547
   4 C :   -0.364043
   5 N :   -0.626186
   6 C :    0.355408
   7 O :   -0.475879
   8 C :   -0.196660
   9 C :    0.153805
  10 N :   -0.516048
  11 C :    0.458350
  12 O :   -0.423386
  13 C :   -0.350711
  14 Br:    0.260017
  15 H :    0.152994
  16 H :    0.153545
  17 H :    0.156159
  18 H :    0.182524
  19 H :    0.159708
  20 H :    0.158310
  21 H :    0.159558
  22 H :    0.181130
  23 H :    0.298633
  24 H :    0.165276
  25 H :    0.183514
  26 H :    0.184614

  Mayer bond orders larger than 0.100000
B(  0-C ,  1-C ) :   0.8457 B(  0-C , 15-H ) :   0.9709 B(  0-C , 16-H ) :   0.9837
B(  0-C , 17-H ) :   0.9785 B(  1-C ,  2-C ) :   0.8959 B(  1-C , 18-H ) :   0.9754
B(  1-C , 19-H ) :   0.9659 B(  2-C ,  3-H ) :   0.9569 B(  2-C ,  4-C ) :   0.8793
B(  2-C ,  5-N ) :   0.8365 B(  4-C , 20-H ) :   0.9701 B(  4-C , 21-H ) :   0.9769
B(  4-C , 22-H ) :   0.9749 B(  5-N ,  6-C ) :   1.1205 B(  5-N , 11-C ) :   1.1204
B(  6-C ,  7-O ) :   1.9291 B(  6-C ,  8-C ) :   0.9511 B(  6-C , 14-Br) :  -0.1201
B(  8-C ,  9-C ) :   1.4714 B(  8-C , 14-Br) :   1.2131 B(  9-C , 10-N ) :   1.1524
B(  9-C , 13-C ) :   0.8623 B( 10-N , 11-C ) :   1.0479 B( 10-N , 23-H ) :   0.9052
B( 11-C , 12-O ) :   1.8982 B( 13-C , 24-H ) :   0.9925 B( 13-C , 25-H ) :   0.9538
B( 13-C , 26-H ) :   0.9425

Dispersion correction           -0.011569615
FINAL SINGLE POINT ENERGY     -3184.787426284966

DIPOLE MOMENT
-------------

Method             : SCF
Type of density    : Electron Density
Multiplicity       :   1
Irrep              :   0
Energy             : -3184.7972694638228859 Eh
Relativity type    :
Basis              : AO
                                X                 Y                 Z
Electronic contribution:     43.414045869      -6.334135742      -1.104799092
Nuclear contribution   :    -42.880236184       7.724782647       1.282346299
                        -----------------------------------------
Total Dipole Moment    :      0.533809685       1.390646906       0.177547207
                        -----------------------------------------
Magnitude (a.u.)       :      1.500124864
Magnitude (Debye)      :      3.813014379

Rotational constants in cm-1:             0.027221             0.012047             0.009682
Rotational constants in MHz :           816.070419           361.145744           290.268234

                             ****ORCA TERMINATED NORMALLY****
TOTAL RUN TIME: 0 days 0 hours 1 minutes 20 seconds 528 msec
