                         Program Version 6.0.0  -   RELEASE  -
|  1> ! r2scan-3c def2/J RI DEFGRID2 scfconv6 printgap
|  2> %output
|  3>     printlevel normal
|  4> end
|  5> %cpcm
|  6>     smd true
|  7>     smdsolvent "water"
|  8> end
|  9> * xyz 0 1
| 10> C -3.0156917633 -0.6746429253 2.0550004572
| 11> C -3.0020975749 -1.4636609589 0.7503803401
| 12> C -2.7257872466 -0.5735972667 -0.464405811
| 13> H -3.4885700987 0.2110006526 -0.506094724
| 14> C -2.7425263403 -1.3561308814 -1.7735310238
| 15> N -1.4535854229 0.1568285331 -0.3097881175
| 16> C -0.262232234 -0.5580580686 -0.2111406741
| 17> O -0.2293104451 -1.7741617099 -0.2663688313
| 18> C 0.9191358739 0.261776878 -0.0384780028
| 19> C 0.8780055254 1.6164206284 0.0185740406
| 20> N -0.3479455487 2.2004929382 -0.0906241561
| 21> C -1.5331988758 1.5284699896 -0.2486566288
| 22> O -2.580001312 2.1477509049 -0.3299110397
| 23> C 2.0547249955 2.5007520115 0.2051962679
| 24> Br 2.5529020737 -0.6972100961 0.1139375114
| 25> H -3.3340724855 -1.3123363375 2.8746930308
| 26> H -2.0231884997 -0.2930209019 2.2900113476
| 27> H -3.6986468573 0.1695893777 1.9832529976
| 28> H -2.2540960171 -2.255699652 0.8000160519
| 29> H -3.9763923105 -1.9273464036 0.5951213846
| 30> H -3.7255905951 -1.7945348442 -1.9131020234
| 31> H -2.5326706353 -0.6949971256 -2.6112477979
| 32> H -2.0024129769 -2.1513951212 -1.7539071536
| 33> H -0.4266489328 3.2117666776 -0.0444611946
| 34> H 1.8349096672 3.511997779 -0.1206368791
| 35> H 2.909191816 2.1152199982 -0.3458833696
| 36> H 2.3326904711 2.5237060955 1.2584611077
| 37> *
| 38>
| 39>                          ****END OF INPUT****

CARTESIAN COORDINATES (ANGSTROEM)
---------------------------------
  C     -3.015692   -0.674643    2.055000
  C     -3.002098   -1.463661    0.750380
  C     -2.725787   -0.573597   -0.464406
  H     -3.488570    0.211001   -0.506095
  C     -2.742526   -1.356131   -1.773531
  N     -1.453585    0.156829   -0.309788
  C     -0.262232   -0.558058   -0.211141
  O     -0.229310   -1.774162   -0.266369
  C      0.919136    0.261777   -0.038478
  C      0.878006    1.616421    0.018574
  N     -0.347946    2.200493   -0.090624
  C     -1.533199    1.528470   -0.248657
  O     -2.580001    2.147751   -0.329911
  C      2.054725    2.500752    0.205196
  Br     2.552902   -0.697210    0.113938
  H     -3.334072   -1.312336    2.874693
  H     -2.023188   -0.293021    2.290011
  H     -3.698647    0.169589    1.983253
  H     -2.254096   -2.255700    0.800016
  H     -3.976392   -1.927346    0.595121
  H     -3.725591   -1.794535   -1.913102
  H     -2.532671   -0.694997   -2.611248
  H     -2.002413   -2.151395   -1.753907
  H     -0.426649    3.211767   -0.044461
  H      1.834910    3.511998   -0.120637
  H      2.909192    2.115220   -0.345883
  H      2.332690    2.523706    1.258461

 Total Charge           Charge          ....    0
 Multiplicity           Mult            ....    1
 Number of Electrons    NEL             ....  132
 Basis Dimension        Dim             ....  368

ORBITAL ENERGIES
----------------

  NO   OCC          E(Eh)            E(eV)
   0   2.0000    -482.234579    -13122.2700
   1   2.0000     -62.305813     -1695.4274
   2   2.0000     -56.086363     -1526.1875
   3   2.0000     -56.083641     -1526.1135
   4   2.0000     -56.083421     -1526.1075
   5   2.0000     -18.938874      -515.3530
   6   2.0000     -18.933456      -515.2055
   7   2.0000     -14.228670      -387.1818
   8   2.0000     -14.227428      -387.1480
   9   2.0000     -10.183998      -277.1207
  10   2.0000     -10.155717      -276.3511
  11   2.0000     -10.121122      -275.4097
  12   2.0000     -10.092606      -274.6338
  13   2.0000     -10.073750      -274.1207
  14   2.0000     -10.041090      -273.2320
  15   2.0000     -10.021933      -272.7107
  16   2.0000     -10.013786      -272.4890
  17   2.0000     -10.011152      -272.4173
  18   2.0000      -8.637691      -235.0435
  19   2.0000      -6.445649      -175.3950
  20   2.0000      -6.431568      -175.0119
  21   2.0000      -6.430777      -174.9903
  22   2.0000      -2.543132       -69.2021
  23   2.0000      -2.539687       -69.1084
  24   2.0000      -2.539142       -69.0936
  25   2.0000      -2.528641       -68.8078
  26   2.0000      -2.528633       -68.8076
  27   2.0000      -1.055556       -28.7231
  28   2.0000      -1.022580       -27.8258
  29   2.0000      -0.953031       -25.9333
  30   2.0000      -0.917360       -24.9626
  31   2.0000      -0.808513       -22.0008
  32   2.0000      -0.768164       -20.9028
  33   2.0000      -0.738718       -20.1015
  34   2.0000      -0.702491       -19.1157
  35   2.0000      -0.686899       -18.6915
  36   2.0000      -0.637428       -17.3453
  37   2.0000      -0.626476       -17.0473
  38   2.0000      -0.593847       -16.1594
  39   2.0000      -0.562157       -15.2971
  40   2.0000      -0.547412       -14.8958
  41   2.0000      -0.507459       -13.8087
  42   2.0000      -0.468585       -12.7509
  43   2.0000      -0.453111       -12.3298
  44   2.0000      -0.439208       -11.9515
  45   2.0000      -0.420662       -11.4468
  46   2.0000      -0.416354       -11.3296
  47   2.0000      -0.405227       -11.0268
  48   2.0000      -0.398641       -10.8476
  49   2.0000      -0.391178       -10.6445
  50   2.0000      -0.389474       -10.5981
  51   2.0000      -0.385616       -10.4931
  52   2.0000      -0.373439       -10.1618
  53   2.0000      -0.372512       -10.1366
  54   2.0000      -0.353897        -9.6300
  55   2.0000      -0.335471        -9.1286
  56   2.0000      -0.326488        -8.8842
  57   2.0000      -0.311278        -8.4703
  58   2.0000      -0.308567        -8.3965
  59   2.0000      -0.302543        -8.2326
  60   2.0000      -0.292514        -7.9597
  61   2.0000      -0.269798        -7.3416
  62   2.0000      -0.262055        -7.1309
  63   2.0000      -0.256245        -6.9728
  64   2.0000      -0.241332        -6.5670
  65   2.0000      -0.214811        -5.8453
  66   0.0000      -0.066215        -1.8018
  67   0.0000      -0.029530        -0.8036
  68   0.0000      -0.026094        -0.7100
  69   0.0000       0.056812         1.5459
  70   0.0000       0.077333         2.1043

MULLIKEN ATOMIC CHARGES
-----------------------
   0 C :   -0.566261
   1 C :   -0.268401
   2 C :   -0.053484
   3 H :    0.217768
   4 C :   -0.581209
   5 N :    0.197123
   6 C :    0.189477
   7 O :   -0.492624
   8 C :   -0.144897
   9 C :    0.207346
  10 N :   -0.038727
  11 C :    0.279310
  12 O :   -0.541493
  13 C :   -0.611688
  14 Br:   -0.109758
  15 H :    0.165285
  16 H :    0.168100
  17 H :    0.167249
  18 H :    0.179336
  19 H :    0.169463
  20 H :    0.173524
  21 H :    0.172086
  22 H :    0.185989
  23 H :    0.337034
  24 H :    0.191666
  25 H :    0.187078
  26 H :    0.220708
Sum of atomic charges:    0.0000000

LOEWDIN ATOMIC CHARGES
----------------------
   0 C :   -0.416359
   1 C :   -0.265457
   2 C :    0.045129
   3 H :    0.222308
   4 C :   -0.368560
   5 N :   -0.614716
   6 C :    0.356918
   7 O :   -0.535917
   8 C :   -0.204736
   9 C :    0.179559
  10 N :   -0.476831
  11 C :    0.465611
  12 O :   -0.481184
  13 C :   -0.345725
  14 Br:    0.240602
  15 H :    0.156278
  16 H :    0.158278
  17 H :    0.157317
  18 H :    0.176169
  19 H :    0.166685
  20 H :    0.165487
  21 H :    0.165057
  22 H :    0.174757
  23 H :    0.317617
  24 H :    0.183880
  25 H :    0.183168
  26 H :    0.194664

  Mayer bond orders larger than 0.100000
B(  0-C ,  1-C ) :   0.8348 B(  0-C , 15-H ) :   0.9678 B(  0-C , 16-H ) :   0.9806
B(  0-C , 17-H ) :   0.9782 B(  1-C ,  2-C ) :   0.8953 B(  1-C , 18-H ) :   0.9776
B(  1-C , 19-H ) :   0.9634 B(  2-C ,  3-H ) :   0.9504 B(  2-C ,  4-C ) :   0.8705
B(  2-C ,  5-N ) :   0.8262 B(  4-C , 20-H ) :   0.9669 B(  4-C , 21-H ) :   0.9735
B(  4-C , 22-H ) :   0.9771 B(  5-N ,  6-C ) :   1.1230 B(  5-N , 11-C ) :   1.1347
B(  6-C ,  7-O ) :   1.8942 B(  6-C ,  8-C ) :   0.9700 B(  8-C ,  9-C ) :   1.4477
B(  8-C , 14-Br) :   1.1462 B(  9-C , 10-N ) :   1.1607 B(  9-C , 13-C ) :   0.8487
B( 10-N , 11-C ) :   1.0738 B( 10-N , 23-H ) :   0.8796 B( 11-C , 12-O ) :   1.8288
B( 13-C , 24-H ) :   0.9791 B( 13-C , 25-H ) :   0.9555 B( 13-C , 26-H ) :   0.9309

Dispersion correction           -0.011569615
FINAL SINGLE POINT ENERGY     -3184.803694470561

DIPOLE MOMENT
-------------

Method             : SCF
Type of density    : Electron Density
Multiplicity       :   1
Irrep              :   0
Energy             : -3184.8135376494183220 Eh
Relativity type    :
Basis              : AO
                                X                 Y                 Z
Electronic contribution:     43.636231918      -5.523489924      -1.019597220
Nuclear contribution   :    -42.880236184       7.724782647       1.282346299
                        -----------------------------------------
Total Dipole Moment    :      0.755995734       2.201292723       0.262749078
                        -----------------------------------------
Magnitude (a.u.)       :      2.342275876
Magnitude (Debye)      :      5.953592138

Rotational constants in cm-1:             0.027221             0.012047             0.009682
Rotational constants in MHz :           816.070419           361.145744           290.268234

                             ****ORCA TERMINATED NORMALLY****
TOTAL RUN TIME: 0 days 0 hours 1 minutes 43 seconds 460 msec
