                         Program Version 6.0.0  -   RELEASE  -
|  1> ! r2scan-3c def2/J RI DEFGRID2 scfconv6 printgap
|  2> %output
|  3>     printlevel normal
|  4> end
|  5> * xyz 0 1
|  6> C -2.275802305 0.4625384694 0.7999157747
|  7> C -1.7105706424 0.4748686955 -0.6157104566
|  8> C -0.5456690691 -0.4974981633 -0.8170160804
|  9> C 0.7664847963 -0.1765837338 -0.0671060032
| 10> C 1.2075063807 1.2729285919 -0.2783238993
| 11> C 1.8604249886 -1.1247480333 -0.582107585
| 12> O 0.6212804638 -0.3440712496 1.3406072025
| 13> H -1.5055320493 0.7204989516 1.521436091
| 14> H -2.6619297805 -0.5243002817 1.0466931094
| 15> H -3.0889984909 1.1795838353 0.8874283497
| 16> H -2.503170598 0.1939622289 -1.3144442604
| 17> H -1.3941227692 1.485787563 -0.8738582171
| 18> H -0.8721078255 -1.4980996192 -0.5194961797
| 19> H -0.3090930438 -0.53176457 -1.8822655247
| 20> H 0.5396339936 1.9455511664 0.2512892178
| 21> H 1.2085906403 1.5178513763 -1.3357958368
| 22> H 2.208423811 1.4087343012 0.1228497948
| 23> H 2.759392357 -1.0059505263 0.0185169362
| 24> H 2.0995836963 -0.8992297757 -1.6170158797
| 25> H 1.5322677173 -2.1604345863 -0.5188271714
| 26> H 0.4383664811 -1.2742606367 1.5271436566
| 27> *
| 28>
| 29>                          ****END OF INPUT****

CARTESIAN COORDINATES (ANGSTROEM)
---------------------------------
  C     -2.275802    0.462538    0.799916
  C     -1.710571    0.474869   -0.615710
  C     -0.545669   -0.497498   -0.817016
  C      0.766485   -0.176584   -0.067106
  C      1.207506    1.272929   -0.278324
  C      1.860425   -1.124748   -0.582108
  O      0.621280   -0.344071    1.340607
  H     -1.505532    0.720499    1.521436
  H     -2.661930   -0.524300    1.046693
  H     -3.088998    1.179584    0.887428
  H     -2.503171    0.193962   -1.314444
  H     -1.394123    1.485788   -0.873858
  H     -0.872108   -1.498100   -0.519496
  H     -0.309093   -0.531765   -1.882266
  H      0.539634    1.945551    0.251289
  H      1.208591    1.517851   -1.335796
  H      2.208424    1.408734    0.122850
  H      2.759392   -1.005951    0.018517
  H      2.099584   -0.899230   -1.617016
  H      1.532268   -2.160435   -0.518827
  H      0.438366   -1.274261    1.527144

 Total Charge           Charge          ....    0
 Multiplicity           Mult            ....    1
 Number of Electrons    NEL             ....   58
 Basis Dimension        Dim             ....  208

ORBITAL ENERGIES
----------------

  NO   OCC          E(Eh)            E(eV)
   0   2.0000     -18.942448      -515.4502
   1   2.0000     -10.088096      -274.5110
   2   2.0000     -10.023503      -272.7534
   3   2.0000     -10.021573      -272.7009
   4   2.0000     -10.017646      -272.5940
   5   2.0000     -10.015302      -272.5302
   6   2.0000     -10.005026      -272.2506
   7   2.0000      -0.983045       -26.7500
   8   2.0000      -0.767600       -20.8875
   9   2.0000      -0.723515       -19.6878
  10   2.0000      -0.658647       -17.9227
  11   2.0000      -0.643444       -17.5090
  12   2.0000      -0.562880       -15.3167
  13   2.0000      -0.529738       -14.4149
  14   2.0000      -0.455269       -12.3885
  15   2.0000      -0.434232       -11.8160
  16   2.0000      -0.420428       -11.4404
  17   2.0000      -0.399538       -10.8720
  18   2.0000      -0.385682       -10.4949
  19   2.0000      -0.366523        -9.9736
  20   2.0000      -0.352735        -9.5984
  21   2.0000      -0.349610        -9.5134
  22   2.0000      -0.330880        -9.0037
  23   2.0000      -0.324329        -8.8254
  24   2.0000      -0.309878        -8.4322
  25   2.0000      -0.300264        -8.1706
  26   2.0000      -0.296864        -8.0781
  27   2.0000      -0.277158        -7.5419
  28   2.0000      -0.226351        -6.1593
  29   0.0000       0.058094         1.5808
  30   0.0000       0.101858         2.7717
  31   0.0000       0.113712         3.0943
  32   0.0000       0.116578         3.1723
  33   0.0000       0.128285         3.4908

MULLIKEN ATOMIC CHARGES
-----------------------
   0 C :   -0.502269
   1 C :   -0.243508
   2 C :   -0.271798
   3 C :    0.153755
   4 C :   -0.519721
   5 C :   -0.479197
   6 O :   -0.398750
   7 H :    0.185413
   8 H :    0.135710
   9 H :    0.140740
  10 H :    0.143082
  11 H :    0.146507
  12 H :    0.142727
  13 H :    0.148302
  14 H :    0.164966
  15 H :    0.157385
  16 H :    0.152389
  17 H :    0.167200
  18 H :    0.151866
  19 H :    0.139662
  20 H :    0.285540
Sum of atomic charges:    0.0000000

LOEWDIN ATOMIC CHARGES
----------------------
   0 C :   -0.426980
   1 C :   -0.309968
   2 C :   -0.282510
   3 C :    0.057333
   4 C :   -0.372704
   5 C :   -0.391404
   6 O :   -0.608478
   7 H :    0.168291
   8 H :    0.147873
   9 H :    0.146623
  10 H :    0.151428
  11 H :    0.154681
  12 H :    0.160614
  13 H :    0.164304
  14 H :    0.166996
  15 H :    0.160328
  16 H :    0.164072
  17 H :    0.163885
  18 H :    0.159949
  19 H :    0.155540
  20 H :    0.270126

  Mayer bond orders larger than 0.100000
B(  0-C ,  1-C ) :   0.8876 B(  0-C ,  7-H ) :   0.9753 B(  0-C ,  8-H ) :   0.9832
B(  0-C ,  9-H ) :   0.9716 B(  1-C ,  2-C ) :   0.8965 B(  1-C , 10-H ) :   0.9699
B(  1-C , 11-H ) :   0.9813 B(  2-C ,  3-C ) :   0.9143 B(  2-C , 12-H ) :   0.9826
B(  2-C , 13-H ) :   0.9683 B(  3-C ,  4-C ) :   0.9187 B(  3-C ,  5-C ) :   0.9406
B(  3-C ,  6-O ) :   0.8703 B(  4-C , 14-H ) :   0.9686 B(  4-C , 15-H ) :   0.9800
B(  4-C , 16-H ) :   0.9629 B(  5-C , 17-H ) :   0.9816 B(  5-C , 18-H ) :   0.9763
B(  5-C , 19-H ) :   0.9644 B(  6-O , 20-H ) :   0.9006

Dispersion correction           -0.005802045
FINAL SINGLE POINT ENERGY      -312.205495845292

DIPOLE MOMENT
-------------

Method             : SCF
Type of density    : Electron Density
Multiplicity       :   1
Irrep              :   0
Energy             :  -312.2107755362052330 Eh
Relativity type    :
Basis              : AO
                                X                 Y                 Z
Electronic contribution:      1.447004458      -0.901896281       2.085843563
Nuclear contribution   :     -1.443709719       0.518322766      -2.500336163
                        -----------------------------------------
Total Dipole Moment    :      0.003294739      -0.383573515      -0.414492601
                        -----------------------------------------
Magnitude (a.u.)       :      0.564750930
Magnitude (Debye)      :      1.435482784

Rotational constants in cm-1:             0.129675             0.057576             0.055567
Rotational constants in MHz :          3887.571178          1726.096632          1665.845014

                             ****ORCA TERMINATED NORMALLY****
TOTAL RUN TIME: 0 days 0 hours 0 minutes 27 seconds 736 msec
