                         Program Version 6.0.0  -   RELEASE  -
|  1> ! r2scan-3c def2/J RI DEFGRID2 scfconv6 printgap
|  2> %output
|  3>     printlevel normal
|  4> end
|  5> %cpcm
|  6>     smd true
|  7>     smdsolvent "water"
|  8> end
|  9> * xyz 0 1
| 10> C -2.275802305 0.4625384694 0.7999157747
| 11> C -1.7105706424 0.4748686955 -0.6157104566
| 12> C -0.5456690691 -0.4974981633 -0.8170160804
| 13> C 0.7664847963 -0.1765837338 -0.0671060032
| 14> C 1.2075063807 1.2729285919 -0.2783238993
| 15> C 1.8604249886 -1.1247480333 -0.582107585
| 16> O 0.6212804638 -0.3440712496 1.3406072025
| 17> H -1.5055320493 0.7204989516 1.521436091
| 18> H -2.6619297805 -0.5243002817 1.0466931094
| 19> H -3.0889984909 1.1795838353 0.8874283497
| 20> H -2.503170598 0.1939622289 -1.3144442604
| 21> H -1.3941227692 1.485787563 -0.8738582171
| 22> H -0.8721078255 -1.4980996192 -0.5194961797
| 23> H -0.3090930438 -0.53176457 -1.8822655247
| 24> H 0.5396339936 1.9455511664 0.2512892178
| 25> H 1.2085906403 1.5178513763 -1.3357958368
| 26> H 2.208423811 1.4087343012 0.1228497948
| 27> H 2.759392357 -1.0059505263 0.0185169362
| 28> H 2.0995836963 -0.8992297757 -1.6170158797
| 29> H 1.5322677173 -2.1604345863 -0.5188271714
| 30> H 0.4383664811 -1.2742606367 1.5271436566
| 31> *
| 32>
| 33>                          ****END OF INPUT****

CARTESIAN COORDINATES (ANGSTROEM)
---------------------------------
  C     -2.275802    0.462538    0.799916
  C     -1.710571    0.474869   -0.615710
  C     -0.545669   -0.497498   -0.817016
  C      0.766485   -0.176584   -0.067106
  C      1.207506    1.272929   -0.278324
  C      1.860425   -1.124748   -0.582108
  O      0.621280   -0.344071    1.340607
  H     -1.505532    0.720499    1.521436
  H     -2.661930   -0.524300    1.046693
  H     -3.088998    1.179584    0.887428
  H     -2.503171    0.193962   -1.314444
  H     -1.394123    1.485788   -0.873858
  H     -0.872108   -1.498100   -0.519496
  H     -0.309093   -0.531765   -1.882266
  H      0.539634    1.945551    0.251289
  H      1.208591    1.517851   -1.335796
  H      2.208424    1.408734    0.122850
  H      2.759392   -1.005951    0.018517
  H      2.099584   -0.899230   -1.617016
  H      1.532268   -2.160435   -0.518827
  H      0.438366   -1.274261    1.527144

 Total Charge           Charge          ....    0
 Multiplicity           Mult            ....    1
 Number of Electrons    NEL             ....   58
 Basis Dimension        Dim             ....  208

ORBITAL ENERGIES
----------------

  NO   OCC          E(Eh)            E(eV)
   0   2.0000     -18.943626      -515.4823
   1   2.0000     -10.082532      -274.3597
   2   2.0000     -10.015076      -272.5241
   3   2.0000     -10.013487      -272.4808
   4   2.0000     -10.008601      -272.3479
   5   2.0000     -10.007109      -272.3073
   6   2.0000     -10.003191      -272.2007
   7   2.0000      -0.983135       -26.7524
   8   2.0000      -0.760742       -20.7008
   9   2.0000      -0.717947       -19.5363
  10   2.0000      -0.651238       -17.7211
  11   2.0000      -0.637175       -17.3384
  12   2.0000      -0.557810       -15.1788
  13   2.0000      -0.524945       -14.2845
  14   2.0000      -0.448802       -12.2125
  15   2.0000      -0.428925       -11.6717
  16   2.0000      -0.414558       -11.2807
  17   2.0000      -0.393231       -10.7004
  18   2.0000      -0.380117       -10.3435
  19   2.0000      -0.359525        -9.7832
  20   2.0000      -0.346390        -9.4258
  21   2.0000      -0.343373        -9.3436
  22   2.0000      -0.328238        -8.9318
  23   2.0000      -0.318039        -8.6543
  24   2.0000      -0.306813        -8.3488
  25   2.0000      -0.296220        -8.0606
  26   2.0000      -0.290340        -7.9006
  27   2.0000      -0.272561        -7.4168
  28   2.0000      -0.226867        -6.1734
  29   0.0000       0.073641         2.0039
  30   0.0000       0.109994         2.9931
  31   0.0000       0.122199         3.3252
  32   0.0000       0.129083         3.5125
  33   0.0000       0.134592         3.6624

MULLIKEN ATOMIC CHARGES
-----------------------
   0 C :   -0.534301
   1 C :   -0.260032
   2 C :   -0.292929
   3 C :    0.202436
   4 C :   -0.565523
   5 C :   -0.526048
   6 O :   -0.482287
   7 H :    0.171105
   8 H :    0.152927
   9 H :    0.151385
  10 H :    0.152972
  11 H :    0.155004
  12 H :    0.162083
  13 H :    0.161970
  14 H :    0.171175
  15 H :    0.178530
  16 H :    0.163254
  17 H :    0.167776
  18 H :    0.169529
  19 H :    0.161240
  20 H :    0.339735
Sum of atomic charges:    0.0000000

LOEWDIN ATOMIC CHARGES
----------------------
   0 C :   -0.435004
   1 C :   -0.312433
   2 C :   -0.281788
   3 C :    0.060532
   4 C :   -0.382327
   5 C :   -0.395602
   6 O :   -0.641800
   7 H :    0.161419
   8 H :    0.152287
   9 H :    0.148715
  10 H :    0.154412
  11 H :    0.156576
  12 H :    0.167514
  13 H :    0.169505
  14 H :    0.166564
  15 H :    0.168499
  16 H :    0.164530
  17 H :    0.163141
  18 H :    0.165364
  19 H :    0.162722
  20 H :    0.287175

  Mayer bond orders larger than 0.100000
B(  0-C ,  1-C ) :   0.8796 B(  0-C ,  7-H ) :   0.9790 B(  0-C ,  8-H ) :   0.9787
B(  0-C ,  9-H ) :   0.9709 B(  1-C ,  2-C ) :   0.8905 B(  1-C , 10-H ) :   0.9690
B(  1-C , 11-H ) :   0.9833 B(  2-C ,  3-C ) :   0.9063 B(  2-C , 12-H ) :   0.9828
B(  2-C , 13-H ) :   0.9660 B(  3-C ,  4-C ) :   0.9181 B(  3-C ,  5-C ) :   0.9283
B(  3-C ,  6-O ) :   0.8520 B(  4-C , 14-H ) :   0.9662 B(  4-C , 15-H ) :   0.9728
B(  4-C , 16-H ) :   0.9630 B(  5-C , 17-H ) :   0.9773 B(  5-C , 18-H ) :   0.9729
B(  5-C , 19-H ) :   0.9647 B(  6-O , 20-H ) :   0.8753

Dispersion correction           -0.005802045
FINAL SINGLE POINT ENERGY      -312.210148437526

DIPOLE MOMENT
-------------

Method             : SCF
Type of density    : Electron Density
Multiplicity       :   1
Irrep              :   0
Energy             :  -312.2154281284390436 Eh
Relativity type    :
Basis              : AO
                                X                 Y                 Z
Electronic contribution:      1.390632865      -1.121470102       1.835385702
Nuclear contribution   :     -1.443709719       0.518322766      -2.500336163
                        -----------------------------------------
Total Dipole Moment    :     -0.053076854      -0.603147335      -0.664950461
                        -----------------------------------------
Magnitude (a.u.)       :      0.899312502
Magnitude (Debye)      :      2.285870718

Rotational constants in cm-1:             0.129675             0.057576             0.055567
Rotational constants in MHz :          3887.571178          1726.096632          1665.845014

                             ****ORCA TERMINATED NORMALLY****
TOTAL RUN TIME: 0 days 0 hours 0 minutes 32 seconds 666 msec
