                         Program Version 6.0.0  -   RELEASE  -
|  1> ! pbe def2-sv(p) def2/J RI DEFGRID1 loosescf d4 GCP(DFT/SV(P)) printgap
|  2> %output
|  3>     printlevel normal
|  4> end
|  5> * xyz 0 1
|  6> C -2.3600655411 0.2686926672 1.0708892076
|  7> C -1.8055247686 0.5863592303 -0.3210419648
|  8> C -0.5320256509 -0.1878129669 -0.5400761457
|  9> O -0.4494010718 -1.2338164293 -1.1524577882
| 10> O 0.5032345545 0.3923903171 0.0475540654
| 11> C 1.7790024883 -0.2650820178 -0.0348016328
| 12> C 2.7525747932 0.4738461771 0.8626838097
| 13> H -3.2895909467 0.8078924916 1.2260442956
| 14> H -2.5537837172 -0.7971645373 1.165939559
| 15> H -1.6479062594 0.5658285948 1.8360016549
| 16> H -1.5861407127 1.6505478461 -0.3955937327
| 17> H -2.5219709997 0.2944854218 -1.0878603211
| 18> H 1.6516090194 -1.3089739773 0.2702574619
| 19> H 2.1035721143 -0.2533653543 -1.0804702434
| 20> H 2.832995238 1.5101213414 0.5483309163
| 21> H 2.4075679323 0.445676285 1.8920066179
| 22> H 3.727755041 0.0025427462 0.7990149382
| 23> *
| 24>
| 25>                          ****END OF INPUT****

CARTESIAN COORDINATES (ANGSTROEM)
---------------------------------
  C     -2.360066    0.268693    1.070889
  C     -1.805525    0.586359   -0.321042
  C     -0.532026   -0.187813   -0.540076
  O     -0.449401   -1.233816   -1.152458
  O      0.503235    0.392390    0.047554
  C      1.779002   -0.265082   -0.034802
  C      2.752575    0.473846    0.862684
  H     -3.289591    0.807892    1.226044
  H     -2.553784   -0.797165    1.165940
  H     -1.647906    0.565829    1.836002
  H     -1.586141    1.650548   -0.395594
  H     -2.521971    0.294485   -1.087860
  H      1.651609   -1.308974    0.270257
  H      2.103572   -0.253365   -1.080470
  H      2.832995    1.510121    0.548331
  H      2.407568    0.445676    1.892007
  H      3.727755    0.002543    0.799015

 Total Charge           Charge          ....    0
 Multiplicity           Mult            ....    1
 Number of Electrons    NEL             ....   56
 Basis Dimension        Dim             ....  118

ORBITAL ENERGIES
----------------

  NO   OCC          E(Eh)            E(eV)
   0   2.0000     -18.797094      -511.4949
   1   2.0000     -18.728351      -509.6243
   2   2.0000     -10.002413      -272.1795
   3   2.0000      -9.946923      -270.6695
   4   2.0000      -9.898163      -269.3427
   5   2.0000      -9.889688      -269.1121
   6   2.0000      -9.887973      -269.0654
   7   2.0000      -1.004077       -27.3223
   8   2.0000      -0.905182       -24.6312
   9   2.0000      -0.722807       -19.6686
  10   2.0000      -0.689631       -18.7658
  11   2.0000      -0.601544       -16.3689
  12   2.0000      -0.559570       -15.2267
  13   2.0000      -0.507411       -13.8074
  14   2.0000      -0.448640       -12.2081
  15   2.0000      -0.437424       -11.9029
  16   2.0000      -0.416767       -11.3408
  17   2.0000      -0.387749       -10.5512
  18   2.0000      -0.385966       -10.5027
  19   2.0000      -0.361902        -9.8478
  20   2.0000      -0.358186        -9.7467
  21   2.0000      -0.337326        -9.1791
  22   2.0000      -0.330264        -8.9869
  23   2.0000      -0.314467        -8.5571
  24   2.0000      -0.308460        -8.3936
  25   2.0000      -0.295410        -8.0385
  26   2.0000      -0.255002        -6.9390
  27   2.0000      -0.212169        -5.7734
  28   0.0000      -0.017895        -0.4870
  29   0.0000       0.038668         1.0522
  30   0.0000       0.057126         1.5545
  31   0.0000       0.080818         2.1992
  32   0.0000       0.085266         2.3202

MULLIKEN ATOMIC CHARGES
-----------------------
   0 C :   -0.305161
   1 C :   -0.126509
   2 C :    0.095005
   3 O :   -0.215911
   4 O :   -0.245121
   5 C :   -0.028477
   6 C :   -0.272509
   7 H :    0.115974
   8 H :    0.116026
   9 H :    0.112549
  10 H :    0.101391
  11 H :    0.103835
  12 H :    0.106010
  13 H :    0.104097
  14 H :    0.114266
  15 H :    0.113553
  16 H :    0.110983
Sum of atomic charges:    0.0000000

LOEWDIN ATOMIC CHARGES
----------------------
   0 C :   -0.331429
   1 C :   -0.249104
   2 C :    0.033740
   3 O :   -0.172476
   4 O :   -0.072598
   5 C :   -0.108128
   6 C :   -0.350804
   7 H :    0.123784
   8 H :    0.124947
   9 H :    0.121897
  10 H :    0.131688
  11 H :    0.134147
  12 H :    0.116189
  13 H :    0.115880
  14 H :    0.126317
  15 H :    0.125754
  16 H :    0.130196

  Mayer bond orders larger than 0.100000
B(  0-C ,  1-C ) :   1.1399 B(  0-C ,  7-H ) :   0.9524 B(  0-C ,  8-H ) :   0.9535
B(  0-C ,  9-H ) :   0.9540 B(  1-C ,  2-C ) :   1.0347 B(  1-C , 10-H ) :   0.9064
B(  1-C , 11-H ) :   0.9116 B(  2-C ,  3-O ) :   2.0526 B(  2-C ,  4-O ) :   1.1982
B(  4-O ,  5-C ) :   0.9129 B(  5-C ,  6-C ) :   1.1493 B(  5-C , 12-H ) :   0.9284
B(  5-C , 13-H ) :   0.9348 B(  6-C , 14-H ) :   0.9491 B(  6-C , 15-H ) :   0.9508
B(  6-C , 16-H ) :   0.9446

Dispersion correction           -0.011684142
FINAL SINGLE POINT ENERGY      -346.244061877182

DIPOLE MOMENT
-------------

Method             : SCF
Type of density    : Electron Density
Multiplicity       :   1
Irrep              :   0
Energy             :  -346.3085811990881098 Eh
Relativity type    :
Basis              : AO
                                X                 Y                 Z
Electronic contribution:     -0.771914151      -2.161408444      -4.336334612
Nuclear contribution   :      1.055398189       2.724712935       4.837387105
                        -----------------------------------------
Total Dipole Moment    :      0.283484038       0.563304491       0.501052493
                        -----------------------------------------
Magnitude (a.u.)       :      0.805436993
Magnitude (Debye)      :      2.047258137

Rotational constants in cm-1:             0.159767             0.050946             0.042444
Rotational constants in MHz :          4789.698779          1527.324649          1272.438922

                             ****ORCA TERMINATED NORMALLY****
TOTAL RUN TIME: 0 days 0 hours 0 minutes 9 seconds 287 msec
