                         Program Version 6.0.0  -   RELEASE  -
|  1> ! r2scan-3c def2/J RI DEFGRID2 scfconv6 printgap
|  2> %output
|  3>     printlevel normal
|  4> end
|  5> * xyz 0 1
|  6> C 4.966583775 0.5500510498 -1.0169845791
|  7> C 4.510655978 0.0230392511 0.3463532708
|  8> C 3.0626681278 -0.4146278503 0.2851721752
|  9> O 2.730977697 -1.5886257354 0.2270711061
| 10> N 2.1912583146 0.630425082 0.2769404291
| 11> C 0.8033974576 0.6230205892 0.1830238477
| 12> C 0.1357267497 1.8499484723 0.1837263141
| 13> C -1.239751351 1.9012813836 0.0940115003
| 14> C -1.9750874254 0.7288549412 0.0018051256
| 15> C -1.3158164564 -0.4936275301 5.30769e-05
| 16> C 0.0633734029 -0.5533468493 0.0896988185
| 17> Cl -2.2178154819 -1.9703534934 -0.1145159364
| 18> Cl -3.7038169239 0.7932634685 -0.1094685945
| 19> H 4.8384436305 -0.2175996938 -1.7764401234
| 20> H 6.0180746175 0.8190008038 -0.9734264511
| 21> H 4.3960593638 1.4256607904 -1.3137839617
| 22> H 4.6364326679 0.7922618379 1.108179692
| 23> H 5.1086124738 -0.846297948 0.6199839169
| 24> H 2.6004064332 1.5550468594 0.3352877461
| 25> H 0.6941343821 2.7693314598 0.2549846333
| 26> H -1.7556450925 2.8467984065 0.094730426
| 27> H 0.5625974381 -1.5077562101 0.0875816083
| 28> *
| 29>
| 30>                          ****END OF INPUT****

CARTESIAN COORDINATES (ANGSTROEM)
---------------------------------
  C      4.966584    0.550051   -1.016985
  C      4.510656    0.023039    0.346353
  C      3.062668   -0.414628    0.285172
  O      2.730978   -1.588626    0.227071
  N      2.191258    0.630425    0.276940
  C      0.803397    0.623021    0.183024
  C      0.135727    1.849948    0.183726
  C     -1.239751    1.901281    0.094012
  C     -1.975087    0.728855    0.001805
  C     -1.315816   -0.493628    0.000053
  C      0.063373   -0.553347    0.089699
  Cl    -2.217815   -1.970353   -0.114516
  Cl    -3.703817    0.793263   -0.109469
  H      4.838444   -0.217600   -1.776440
  H      6.018075    0.819001   -0.973426
  H      4.396059    1.425661   -1.313784
  H      4.636433    0.792262    1.108180
  H      5.108612   -0.846298    0.619984
  H      2.600406    1.555047    0.335288
  H      0.694134    2.769331    0.254985
  H     -1.755645    2.846798    0.094730
  H      0.562597   -1.507756    0.087582

 Total Charge           Charge          ....    0
 Multiplicity           Mult            ....    1
 Number of Electrons    NEL             ....  112
 Basis Dimension        Dim             ....  318

ORBITAL ENERGIES
----------------

  NO   OCC          E(Eh)            E(eV)
   0   2.0000    -101.224560     -2754.4603
   1   2.0000    -101.223834     -2754.4406
   2   2.0000     -18.931564      -515.1541
   3   2.0000     -14.223366      -387.0375
   4   2.0000     -10.147704      -276.1331
   5   2.0000     -10.114384      -275.2264
   6   2.0000     -10.110058      -275.1087
   7   2.0000     -10.106061      -274.9999
   8   2.0000     -10.064210      -273.8611
   9   2.0000     -10.061165      -273.7782
  10   2.0000     -10.055642      -273.6279
  11   2.0000     -10.052635      -273.5461
  12   2.0000     -10.045851      -273.3615
  13   2.0000      -9.380268      -255.2501
  14   2.0000      -9.379508      -255.2294
  15   2.0000      -7.126714      -193.9278
  16   2.0000      -7.125999      -193.9083
  17   2.0000      -7.116517      -193.6503
  18   2.0000      -7.115873      -193.6327
  19   2.0000      -7.115822      -193.6314
  20   2.0000      -7.115017      -193.6095
  21   2.0000      -1.020498       -27.7692
  22   2.0000      -0.934498       -25.4290
  23   2.0000      -0.885953       -24.1080
  24   2.0000      -0.824353       -22.4318
  25   2.0000      -0.813397       -22.1337
  26   2.0000      -0.767469       -20.8839
  27   2.0000      -0.728852       -19.8331
  28   2.0000      -0.710929       -19.3454
  29   2.0000      -0.641793       -17.4641
  30   2.0000      -0.616149       -16.7663
  31   2.0000      -0.593139       -16.1401
  32   2.0000      -0.564140       -15.3510
  33   2.0000      -0.523513       -14.2455
  34   2.0000      -0.477804       -13.0017
  35   2.0000      -0.473026       -12.8717
  36   2.0000      -0.455664       -12.3993
  37   2.0000      -0.437816       -11.9136
  38   2.0000      -0.431268       -11.7354
  39   2.0000      -0.422958       -11.5093
  40   2.0000      -0.415827       -11.3152
  41   2.0000      -0.402598       -10.9553
  42   2.0000      -0.392482       -10.6800
  43   2.0000      -0.378166       -10.2904
  44   2.0000      -0.364172        -9.9096
  45   2.0000      -0.356233        -9.6936
  46   2.0000      -0.355015        -9.6604
  47   2.0000      -0.340636        -9.2692
  48   2.0000      -0.326582        -8.8867
  49   2.0000      -0.323318        -8.7979
  50   2.0000      -0.300577        -8.1791
  51   2.0000      -0.281282        -7.6541
  52   2.0000      -0.278096        -7.5674
  53   2.0000      -0.245023        -6.6674
  54   2.0000      -0.231860        -6.3092
  55   2.0000      -0.215112        -5.8535
  56   0.0000      -0.059189        -1.6106
  57   0.0000      -0.056282        -1.5315
  58   0.0000      -0.018163        -0.4942
  59   0.0000      -0.002923        -0.0796
  60   0.0000       0.031689         0.8623

MULLIKEN ATOMIC CHARGES
-----------------------
   0 C :   -0.451277
   1 C :   -0.363415
   2 C :    0.356787
   3 O :   -0.443116
   4 N :   -0.072897
   5 C :    0.223733
   6 C :   -0.351704
   7 C :   -0.213193
   8 C :    0.113976
   9 C :    0.062946
  10 C :   -0.194307
  11 Cl:   -0.110107
  12 Cl:   -0.118132
  13 H :    0.164248
  14 H :    0.158638
  15 H :    0.134666
  16 H :    0.147496
  17 H :    0.176132
  18 H :    0.254936
  19 H :    0.135772
  20 H :    0.165032
  21 H :    0.223784
Sum of atomic charges:   -0.0000000

LOEWDIN ATOMIC CHARGES
----------------------
   0 C :   -0.394309
   1 C :   -0.245202
   2 C :    0.339313
   3 O :   -0.453901
   4 N :   -0.591434
   5 C :    0.158305
   6 C :   -0.137762
   7 C :   -0.154725
   8 C :   -0.193504
   9 C :   -0.169707
  10 C :   -0.122845
  11 Cl:    0.154298
  12 Cl:    0.142711
  13 H :    0.163099
  14 H :    0.155102
  15 H :    0.148495
  16 H :    0.164394
  17 H :    0.180313
  18 H :    0.284237
  19 H :    0.172312
  20 H :    0.182071
  21 H :    0.218740

  Mayer bond orders larger than 0.100000
B(  0-C ,  1-C ) :   0.9161 B(  0-C , 13-H ) :   0.9701 B(  0-C , 14-H ) :   0.9708
B(  0-C , 15-H ) :   0.9765 B(  1-C ,  2-C ) :   0.9023 B(  1-C , 16-H ) :   0.9845
B(  1-C , 17-H ) :   0.9708 B(  2-C ,  3-O ) :   1.8236 B(  2-C ,  4-N ) :   1.0445
B(  4-N ,  5-C ) :   1.0402 B(  4-N , 18-H ) :   0.9188 B(  5-C ,  6-C ) :   1.2657
B(  5-C , 10-C ) :   1.4284 B(  6-C ,  7-C ) :   1.3904 B(  6-C , 19-H ) :   0.9434
B(  7-C ,  8-C ) :   1.3614 B(  7-C , 20-H ) :   0.9332 B(  8-C ,  9-C ) :   1.2914
B(  8-C , 12-Cl) :   1.0335 B(  9-C , 10-C ) :   1.1551 B(  9-C , 11-Cl) :   1.0849
B( 10-C , 21-H ) :   0.9209

Dispersion correction           -0.009099885
FINAL SINGLE POINT ENERGY     -1398.617354636705

DIPOLE MOMENT
-------------

Method             : SCF
Type of density    : Electron Density
Multiplicity       :   1
Irrep              :   0
Energy             : -1398.6214290504258315 Eh
Relativity type    :
Basis              : AO
                                X                 Y                 Z
Electronic contribution:    -31.983338675      -6.985140533       1.223887809
Nuclear contribution   :     33.424206024       8.724167610      -1.160756990
                        -----------------------------------------
Total Dipole Moment    :      1.440867349       1.739027077       0.063130820
                        -----------------------------------------
Magnitude (a.u.)       :      2.259269659
Magnitude (Debye)      :      5.742607100

Rotational constants in cm-1:             0.046203             0.009582             0.008138
Rotational constants in MHz :          1385.129163           287.247434           243.959062

                             ****ORCA TERMINATED NORMALLY****
TOTAL RUN TIME: 0 days 0 hours 0 minutes 46 seconds 172 msec
