                         Program Version 6.0.0  -   RELEASE  -
|  1> ! r2scan-3c def2/J RI DEFGRID2 scfconv6 printgap
|  2> %output
|  3>     printlevel normal
|  4> end
|  5> %cpcm
|  6>     smd true
|  7>     smdsolvent "water"
|  8> end
|  9> * xyz 0 1
| 10> C 4.966583775 0.5500510498 -1.0169845791
| 11> C 4.510655978 0.0230392511 0.3463532708
| 12> C 3.0626681278 -0.4146278503 0.2851721752
| 13> O 2.730977697 -1.5886257354 0.2270711061
| 14> N 2.1912583146 0.630425082 0.2769404291
| 15> C 0.8033974576 0.6230205892 0.1830238477
| 16> C 0.1357267497 1.8499484723 0.1837263141
| 17> C -1.239751351 1.9012813836 0.0940115003
| 18> C -1.9750874254 0.7288549412 0.0018051256
| 19> C -1.3158164564 -0.4936275301 5.30769e-05
| 20> C 0.0633734029 -0.5533468493 0.0896988185
| 21> Cl -2.2178154819 -1.9703534934 -0.1145159364
| 22> Cl -3.7038169239 0.7932634685 -0.1094685945
| 23> H 4.8384436305 -0.2175996938 -1.7764401234
| 24> H 6.0180746175 0.8190008038 -0.9734264511
| 25> H 4.3960593638 1.4256607904 -1.3137839617
| 26> H 4.6364326679 0.7922618379 1.108179692
| 27> H 5.1086124738 -0.846297948 0.6199839169
| 28> H 2.6004064332 1.5550468594 0.3352877461
| 29> H 0.6941343821 2.7693314598 0.2549846333
| 30> H -1.7556450925 2.8467984065 0.094730426
| 31> H 0.5625974381 -1.5077562101 0.0875816083
| 32> *
| 33>
| 34>                          ****END OF INPUT****

CARTESIAN COORDINATES (ANGSTROEM)
---------------------------------
  C      4.966584    0.550051   -1.016985
  C      4.510656    0.023039    0.346353
  C      3.062668   -0.414628    0.285172
  O      2.730978   -1.588626    0.227071
  N      2.191258    0.630425    0.276940
  C      0.803397    0.623021    0.183024
  C      0.135727    1.849948    0.183726
  C     -1.239751    1.901281    0.094012
  C     -1.975087    0.728855    0.001805
  C     -1.315816   -0.493628    0.000053
  C      0.063373   -0.553347    0.089699
  Cl    -2.217815   -1.970353   -0.114516
  Cl    -3.703817    0.793263   -0.109469
  H      4.838444   -0.217600   -1.776440
  H      6.018075    0.819001   -0.973426
  H      4.396059    1.425661   -1.313784
  H      4.636433    0.792262    1.108180
  H      5.108612   -0.846298    0.619984
  H      2.600406    1.555047    0.335288
  H      0.694134    2.769331    0.254985
  H     -1.755645    2.846798    0.094730
  H      0.562597   -1.507756    0.087582

 Total Charge           Charge          ....    0
 Multiplicity           Mult            ....    1
 Number of Electrons    NEL             ....  112
 Basis Dimension        Dim             ....  318

ORBITAL ENERGIES
----------------

  NO   OCC          E(Eh)            E(eV)
   0   2.0000    -101.230655     -2754.6262
   1   2.0000    -101.228913     -2754.5788
   2   2.0000     -18.935889      -515.2717
   3   2.0000     -14.209253      -386.6534
   4   2.0000     -10.145017      -276.0600
   5   2.0000     -10.114659      -275.2339
   6   2.0000     -10.108601      -275.0690
   7   2.0000     -10.099684      -274.8264
   8   2.0000     -10.056474      -273.6506
   9   2.0000     -10.050916      -273.4993
  10   2.0000     -10.049898      -273.4716
  11   2.0000     -10.035449      -273.0785
  12   2.0000     -10.021594      -272.7014
  13   2.0000      -9.386529      -255.4204
  14   2.0000      -9.384795      -255.3732
  15   2.0000      -7.132840      -194.0945
  16   2.0000      -7.131082      -194.0466
  17   2.0000      -7.122874      -193.8233
  18   2.0000      -7.122149      -193.8035
  19   2.0000      -7.121101      -193.7750
  20   2.0000      -7.120467      -193.7577
  21   2.0000      -1.022776       -27.8312
  22   2.0000      -0.925314       -25.1791
  23   2.0000      -0.886845       -24.1323
  24   2.0000      -0.828827       -22.5535
  25   2.0000      -0.809533       -22.0285
  26   2.0000      -0.750763       -20.4293
  27   2.0000      -0.724251       -19.7079
  28   2.0000      -0.704090       -19.1593
  29   2.0000      -0.629386       -17.1265
  30   2.0000      -0.606461       -16.5026
  31   2.0000      -0.582173       -15.8417
  32   2.0000      -0.553988       -15.0748
  33   2.0000      -0.513143       -13.9633
  34   2.0000      -0.471213       -12.8224
  35   2.0000      -0.468688       -12.7537
  36   2.0000      -0.446953       -12.1622
  37   2.0000      -0.430630       -11.7180
  38   2.0000      -0.425144       -11.5687
  39   2.0000      -0.411030       -11.1847
  40   2.0000      -0.404462       -11.0060
  41   2.0000      -0.401585       -10.9277
  42   2.0000      -0.391997       -10.6668
  43   2.0000      -0.373899       -10.1743
  44   2.0000      -0.352843        -9.6013
  45   2.0000      -0.347775        -9.4634
  46   2.0000      -0.338578        -9.2132
  47   2.0000      -0.328948        -8.9511
  48   2.0000      -0.323400        -8.8002
  49   2.0000      -0.317682        -8.6446
  50   2.0000      -0.306142        -8.3305
  51   2.0000      -0.284460        -7.7405
  52   2.0000      -0.280555        -7.6343
  53   2.0000      -0.244803        -6.6614
  54   2.0000      -0.235895        -6.4190
  55   2.0000      -0.212371        -5.7789
  56   0.0000      -0.056659        -1.5418
  57   0.0000      -0.052386        -1.4255
  58   0.0000      -0.020754        -0.5647
  59   0.0000       0.002266         0.0616
  60   0.0000       0.038272         1.0414

MULLIKEN ATOMIC CHARGES
-----------------------
   0 C :   -0.499012
   1 C :   -0.338924
   2 C :    0.365180
   3 O :   -0.538524
   4 N :   -0.086764
   5 C :    0.200167
   6 C :   -0.353247
   7 C :   -0.218697
   8 C :    0.110319
   9 C :    0.053155
  10 C :   -0.222064
  11 Cl:   -0.136027
  12 Cl:   -0.139475
  13 H :    0.164101
  14 H :    0.171613
  15 H :    0.165578
  16 H :    0.176604
  17 H :    0.175333
  18 H :    0.332118
  19 H :    0.189730
  20 H :    0.200856
  21 H :    0.227979
Sum of atomic charges:   -0.0000000

LOEWDIN ATOMIC CHARGES
----------------------
   0 C :   -0.397364
   1 C :   -0.239312
   2 C :    0.345081
   3 O :   -0.529099
   4 N :   -0.558539
   5 C :    0.158423
   6 C :   -0.118062
   7 C :   -0.152178
   8 C :   -0.202698
   9 C :   -0.179656
  10 C :   -0.137311
  11 Cl:    0.133792
  12 Cl:    0.125720
  13 H :    0.160618
  14 H :    0.160076
  15 H :    0.158718
  16 H :    0.180375
  17 H :    0.178807
  18 H :    0.306782
  19 H :    0.194821
  20 H :    0.195022
  21 H :    0.215983

  Mayer bond orders larger than 0.100000
B(  0-C ,  1-C ) :   0.8949 B(  0-C , 13-H ) :   0.9693 B(  0-C , 14-H ) :   0.9658
B(  0-C , 15-H ) :   0.9754 B(  1-C ,  2-C ) :   0.9188 B(  1-C , 16-H ) :   0.9640
B(  1-C , 17-H ) :   0.9764 B(  2-C ,  3-O ) :   1.7441 B(  2-C ,  4-N ) :   1.0787
B(  4-N ,  5-C ) :   1.0243 B(  4-N , 18-H ) :   0.8902 B(  5-C ,  6-C ) :   1.2840
B(  5-C , 10-C ) :   1.4008 B(  6-C ,  7-C ) :   1.3784 B(  6-C , 19-H ) :   0.9563
B(  7-C ,  8-C ) :   1.3145 B(  7-C , 20-H ) :   0.9380 B(  8-C ,  9-C ) :   1.2767
B(  8-C , 12-Cl) :   1.0180 B(  9-C , 10-C ) :   1.1594 B(  9-C , 11-Cl) :   1.0580
B( 10-C , 21-H ) :   0.9187

Dispersion correction           -0.009099885
FINAL SINGLE POINT ENERGY     -1398.631008027649

DIPOLE MOMENT
-------------

Method             : SCF
Type of density    : Electron Density
Multiplicity       :   1
Irrep              :   0
Energy             : -1398.6350824413693772 Eh
Relativity type    :
Basis              : AO
                                X                 Y                 Z
Electronic contribution:    -31.473981423      -5.912330052       1.303344177
Nuclear contribution   :     33.424206024       8.724167610      -1.160756990
                        -----------------------------------------
Total Dipole Moment    :      1.950224601       2.811837558       0.142587188
                        -----------------------------------------
Magnitude (a.u.)       :      3.424928839
Magnitude (Debye)      :      8.705477273

Rotational constants in cm-1:             0.046203             0.009582             0.008138
Rotational constants in MHz :          1385.129163           287.247434           243.959062

                             ****ORCA TERMINATED NORMALLY****
TOTAL RUN TIME: 0 days 0 hours 1 minutes 4 seconds 831 msec
