                         Program Version 6.0.0  -   RELEASE  -
|  1> ! r2scan-3c def2/J RI DEFGRID2 scfconv6 printgap
|  2> %output
|  3>     printlevel normal
|  4> end
|  5> * xyz 0 1
|  6> C 2.3288621009 -0.5181702883 0.5784625452
|  7> C 1.4881250734 -0.1592678653 -0.6415071271
|  8> C 0.5832834301 1.0518038787 -0.4125642472
|  9> C -0.5613706685 0.7872836141 0.5537982238
| 10> S -1.7071228738 -0.519068399 -0.0279196804
| 11> H 1.7015595216 -0.8344483975 1.4083726252
| 12> H 2.9218315197 0.3358557816 0.8989551671
| 13> H 3.0043874153 -1.3358832803 0.3397916908
| 14> H 0.8730094748 -1.0170285873 -0.9232224853
| 15> H 2.1538508019 0.0608775051 -1.4782492378
| 16> H 0.1688530918 1.373141707 -1.3710248162
| 17> H 1.175696235 1.8770329498 -0.0100546843
| 18> H -0.1996063673 0.4234135749 1.5139279007
| 19> H -1.1539962414 1.6864598924 0.7181183015
| 20> H -2.0830595743 0.1009287192 -1.1401423704
| 21> *
| 22>
| 23>                          ****END OF INPUT****

CARTESIAN COORDINATES (ANGSTROEM)
---------------------------------
  C      2.328862   -0.518170    0.578463
  C      1.488125   -0.159268   -0.641507
  C      0.583283    1.051804   -0.412564
  C     -0.561371    0.787284    0.553798
  S     -1.707123   -0.519068   -0.027920
  H      1.701560   -0.834448    1.408373
  H      2.921832    0.335856    0.898955
  H      3.004387   -1.335883    0.339792
  H      0.873009   -1.017029   -0.923222
  H      2.153851    0.060878   -1.478249
  H      0.168853    1.373142   -1.371025
  H      1.175696    1.877033   -0.010055
  H     -0.199606    0.423414    1.513928
  H     -1.153996    1.686460    0.718118
  H     -2.083060    0.100929   -1.140142

 Total Charge           Charge          ....    0
 Multiplicity           Mult            ....    1
 Number of Electrons    NEL             ....   50
 Basis Dimension        Dim             ....  153

ORBITAL ENERGIES
----------------

  NO   OCC          E(Eh)            E(eV)
   0   2.0000     -88.549405     -2409.5518
   1   2.0000     -10.065459      -273.8951
   2   2.0000     -10.035327      -273.0751
   3   2.0000     -10.024376      -272.7771
   4   2.0000     -10.018131      -272.6072
   5   2.0000      -7.844676      -213.4645
   6   2.0000      -5.791897      -157.6055
   7   2.0000      -5.788091      -157.5020
   8   2.0000      -5.781689      -157.3278
   9   2.0000      -0.784769       -21.3547
  10   2.0000      -0.725057       -19.7298
  11   2.0000      -0.659265       -17.9395
  12   2.0000      -0.598503       -16.2861
  13   2.0000      -0.535808       -14.5801
  14   2.0000      -0.443422       -12.0661
  15   2.0000      -0.433344       -11.7919
  16   2.0000      -0.402091       -10.9414
  17   2.0000      -0.376345       -10.2409
  18   2.0000      -0.367335        -9.9957
  19   2.0000      -0.350508        -9.5378
  20   2.0000      -0.316696        -8.6177
  21   2.0000      -0.303749        -8.2654
  22   2.0000      -0.300641        -8.1809
  23   2.0000      -0.285955        -7.7812
  24   2.0000      -0.208930        -5.6853
  25   0.0000       0.014090         0.3834
  26   0.0000       0.054683         1.4880
  27   0.0000       0.089838         2.4446
  28   0.0000       0.117338         3.1929
  29   0.0000       0.121103         3.2954

MULLIKEN ATOMIC CHARGES
-----------------------
   0 C :   -0.485151
   1 C :   -0.232561
   2 C :   -0.225307
   3 C :   -0.269498
   4 S :   -0.265453
   5 H :    0.143766
   6 H :    0.142400
   7 H :    0.148761
   8 H :    0.161784
   9 H :    0.141787
  10 H :    0.143527
  11 H :    0.138479
  12 H :    0.153387
  13 H :    0.172071
  14 H :    0.132009
Sum of atomic charges:    0.0000000

LOEWDIN ATOMIC CHARGES
----------------------
   0 C :   -0.424778
   1 C :   -0.326561
   2 C :   -0.320612
   3 C :   -0.362110
   4 S :   -0.100669
   5 H :    0.147369
   6 H :    0.148901
   7 H :    0.153153
   8 H :    0.162982
   9 H :    0.152069
  10 H :    0.156035
  11 H :    0.158135
  12 H :    0.168080
  13 H :    0.162055
  14 H :    0.125950

  Mayer bond orders larger than 0.100000
B(  0-C ,  1-C ) :   0.9047 B(  0-C ,  5-H ) :   0.9825 B(  0-C ,  6-H ) :   0.9827
B(  0-C ,  7-H ) :   0.9692 B(  1-C ,  2-C ) :   0.8986 B(  1-C ,  8-H ) :   0.9625
B(  1-C ,  9-H ) :   0.9651 B(  2-C ,  3-C ) :   0.8916 B(  2-C , 10-H ) :   0.9691
B(  2-C , 11-H ) :   0.9640 B(  3-C ,  4-S ) :   0.9799 B(  3-C , 12-H ) :   0.9684
B(  3-C , 13-H ) :   0.9529 B(  4-S , 14-H ) :   0.9596

Dispersion correction           -0.003785419
FINAL SINGLE POINT ENERGY      -556.555205969242

DIPOLE MOMENT
-------------

Method             : SCF
Type of density    : Electron Density
Multiplicity       :   1
Irrep              :   0
Energy             :  -556.5618867634499338 Eh
Relativity type    :
Basis              : AO
                                X                 Y                 Z
Electronic contribution:     -7.700400355      -1.975532499      -0.087449375
Nuclear contribution   :      8.081574458       2.519979975      -0.040044339
                        -----------------------------------------
Total Dipole Moment    :      0.381174103       0.544447476      -0.127493714
                        -----------------------------------------
Magnitude (a.u.)       :      0.676735841
Magnitude (Debye)      :      1.720125807

Rotational constants in cm-1:             0.236034             0.066628             0.062028
Rotational constants in MHz :          7076.107282          1997.469370          1859.549758

                             ****ORCA TERMINATED NORMALLY****
TOTAL RUN TIME: 0 days 0 hours 0 minutes 14 seconds 314 msec
