                         Program Version 6.0.0  -   RELEASE  -
|  1> ! r2scan-3c def2/J RI DEFGRID2 scfconv6 printgap
|  2> %output
|  3>     printlevel normal
|  4> end
|  5> %cpcm
|  6>     smd true
|  7>     smdsolvent "water"
|  8> end
|  9> * xyz 0 1
| 10> C 2.3288621009 -0.5181702883 0.5784625452
| 11> C 1.4881250734 -0.1592678653 -0.6415071271
| 12> C 0.5832834301 1.0518038787 -0.4125642472
| 13> C -0.5613706685 0.7872836141 0.5537982238
| 14> S -1.7071228738 -0.519068399 -0.0279196804
| 15> H 1.7015595216 -0.8344483975 1.4083726252
| 16> H 2.9218315197 0.3358557816 0.8989551671
| 17> H 3.0043874153 -1.3358832803 0.3397916908
| 18> H 0.8730094748 -1.0170285873 -0.9232224853
| 19> H 2.1538508019 0.0608775051 -1.4782492378
| 20> H 0.1688530918 1.373141707 -1.3710248162
| 21> H 1.175696235 1.8770329498 -0.0100546843
| 22> H -0.1996063673 0.4234135749 1.5139279007
| 23> H -1.1539962414 1.6864598924 0.7181183015
| 24> H -2.0830595743 0.1009287192 -1.1401423704
| 25> *
| 26>
| 27>                          ****END OF INPUT****

CARTESIAN COORDINATES (ANGSTROEM)
---------------------------------
  C      2.328862   -0.518170    0.578463
  C      1.488125   -0.159268   -0.641507
  C      0.583283    1.051804   -0.412564
  C     -0.561371    0.787284    0.553798
  S     -1.707123   -0.519068   -0.027920
  H      1.701560   -0.834448    1.408373
  H      2.921832    0.335856    0.898955
  H      3.004387   -1.335883    0.339792
  H      0.873009   -1.017029   -0.923222
  H      2.153851    0.060878   -1.478249
  H      0.168853    1.373142   -1.371025
  H      1.175696    1.877033   -0.010055
  H     -0.199606    0.423414    1.513928
  H     -1.153996    1.686460    0.718118
  H     -2.083060    0.100929   -1.140142

 Total Charge           Charge          ....    0
 Multiplicity           Mult            ....    1
 Number of Electrons    NEL             ....   50
 Basis Dimension        Dim             ....  153

ORBITAL ENERGIES
----------------

  NO   OCC          E(Eh)            E(eV)
   0   2.0000     -88.546767     -2409.4800
   1   2.0000     -10.053946      -273.5818
   2   2.0000     -10.022309      -272.7209
   3   2.0000     -10.015431      -272.5337
   4   2.0000     -10.007578      -272.3200
   5   2.0000      -7.842169      -213.3963
   6   2.0000      -5.789153      -157.5309
   7   2.0000      -5.785451      -157.4301
   8   2.0000      -5.779589      -157.2706
   9   2.0000      -0.774709       -21.0809
  10   2.0000      -0.717073       -19.5126
  11   2.0000      -0.650594       -17.7036
  12   2.0000      -0.588937       -16.0258
  13   2.0000      -0.525473       -14.2989
  14   2.0000      -0.432085       -11.7576
  15   2.0000      -0.422671       -11.5015
  16   2.0000      -0.393093       -10.6966
  17   2.0000      -0.366344        -9.9687
  18   2.0000      -0.356433        -9.6990
  19   2.0000      -0.340670        -9.2701
  20   2.0000      -0.309775        -8.4294
  21   2.0000      -0.292820        -7.9680
  22   2.0000      -0.289496        -7.8776
  23   2.0000      -0.279186        -7.5970
  24   2.0000      -0.208368        -5.6700
  25   0.0000       0.018592         0.5059
  26   0.0000       0.061476         1.6728
  27   0.0000       0.101845         2.7713
  28   0.0000       0.127186         3.4609
  29   0.0000       0.131151         3.5688

MULLIKEN ATOMIC CHARGES
-----------------------
   0 C :   -0.523892
   1 C :   -0.244960
   2 C :   -0.237743
   3 C :   -0.266631
   4 S :   -0.345924
   5 H :    0.158713
   6 H :    0.154800
   7 H :    0.156188
   8 H :    0.151107
   9 H :    0.152456
  10 H :    0.159151
  11 H :    0.154569
  12 H :    0.175055
  13 H :    0.187709
  14 H :    0.169402
Sum of atomic charges:    0.0000000

LOEWDIN ATOMIC CHARGES
----------------------
   0 C :   -0.433478
   1 C :   -0.329273
   2 C :   -0.319586
   3 C :   -0.357029
   4 S :   -0.138341
   5 H :    0.151536
   6 H :    0.152891
   7 H :    0.153577
   8 H :    0.157504
   9 H :    0.154641
  10 H :    0.160505
  11 H :    0.164570
  12 H :    0.175362
  13 H :    0.168617
  14 H :    0.138504

  Mayer bond orders larger than 0.100000
B(  0-C ,  1-C ) :   0.9006 B(  0-C ,  5-H ) :   0.9787 B(  0-C ,  6-H ) :   0.9792
B(  0-C ,  7-H ) :   0.9677 B(  1-C ,  2-C ) :   0.8906 B(  1-C ,  8-H ) :   0.9680
B(  1-C ,  9-H ) :   0.9663 B(  2-C ,  3-C ) :   0.8916 B(  2-C , 10-H ) :   0.9687
B(  2-C , 11-H ) :   0.9612 B(  3-C ,  4-S ) :   0.9645 B(  3-C , 12-H ) :   0.9617
B(  3-C , 13-H ) :   0.9482 B(  4-S , 14-H ) :   0.9535

Dispersion correction           -0.003785419
FINAL SINGLE POINT ENERGY      -556.556684965927

DIPOLE MOMENT
-------------

Method             : SCF
Type of density    : Electron Density
Multiplicity       :   1
Irrep              :   0
Energy             :  -556.5633657601348432 Eh
Relativity type    :
Basis              : AO
                                X                 Y                 Z
Electronic contribution:     -7.586356535      -1.728297549      -0.091130772
Nuclear contribution   :      8.081574458       2.519979975      -0.040044339
                        -----------------------------------------
Total Dipole Moment    :      0.495217923       0.791682426      -0.131175111
                        -----------------------------------------
Magnitude (a.u.)       :      0.942978666
Magnitude (Debye)      :      2.396861288

Rotational constants in cm-1:             0.236034             0.066628             0.062028
Rotational constants in MHz :          7076.107282          1997.469370          1859.549758

                             ****ORCA TERMINATED NORMALLY****
TOTAL RUN TIME: 0 days 0 hours 0 minutes 16 seconds 678 msec
