                         Program Version 6.0.0  -   RELEASE  -
|  1> ! pbe def2-sv(p) def2/J RI DEFGRID1 loosescf d4 GCP(DFT/SV(P)) printgap
|  2> %output
|  3>     printlevel normal
|  4> end
|  5> * xyz 0 1
|  6> C -2.2764861776 0.2940090037 1.099601995
|  7> C -1.8277364104 0.4246642887 -0.3592061079
|  8> C -0.454400886 -0.1772711692 -0.5054954174
|  9> O -0.2338679472 -1.3417536045 -0.7674743122
| 10> O 0.4956309217 0.7224535038 -0.2883852499
| 11> C 1.8678213136 0.2956437889 -0.3179517268
| 12> C 2.322640846 -0.1747734756 1.055123742
| 13> H -1.6000727053 0.8392474754 1.7527410007
| 14> H -3.2773011909 0.6994084713 1.2127343224
| 15> H -2.2855341002 -0.7517176217 1.3978693359
| 16> H -1.7856964048 1.4747968223 -0.6435375853
| 17> H -2.5139777502 -0.1170846203 -1.0089932432
| 18> H 1.9664279245 -0.5082642431 -1.0537838141
| 19> H 2.4246750112 1.1758467623 -0.6407887638
| 20> H 3.374613413 -0.4378473096 1.0147339009
| 21> H 2.1777122079 0.613988889 1.7884210027
| 22> H 1.7512550051 -1.0498134633 1.3572650817
| 23> *
| 24>
| 25>                          ****END OF INPUT****

CARTESIAN COORDINATES (ANGSTROEM)
---------------------------------
  C     -2.276486    0.294009    1.099602
  C     -1.827736    0.424664   -0.359206
  C     -0.454401   -0.177271   -0.505495
  O     -0.233868   -1.341754   -0.767474
  O      0.495631    0.722454   -0.288385
  C      1.867821    0.295644   -0.317952
  C      2.322641   -0.174773    1.055124
  H     -1.600073    0.839247    1.752741
  H     -3.277301    0.699408    1.212734
  H     -2.285534   -0.751718    1.397869
  H     -1.785696    1.474797   -0.643538
  H     -2.513978   -0.117085   -1.008993
  H      1.966428   -0.508264   -1.053784
  H      2.424675    1.175847   -0.640789
  H      3.374613   -0.437847    1.014734
  H      2.177712    0.613989    1.788421
  H      1.751255   -1.049813    1.357265

 Total Charge           Charge          ....    0
 Multiplicity           Mult            ....    1
 Number of Electrons    NEL             ....   56
 Basis Dimension        Dim             ....  118

ORBITAL ENERGIES
----------------

  NO   OCC          E(Eh)            E(eV)
   0   2.0000     -18.796886      -511.4893
   1   2.0000     -18.729622      -509.6589
   2   2.0000     -10.003633      -272.2127
   3   2.0000      -9.945872      -270.6409
   4   2.0000      -9.898103      -269.3411
   5   2.0000      -9.888308      -269.0745
   6   2.0000      -9.887392      -269.0496
   7   2.0000      -1.003400       -27.3039
   8   2.0000      -0.907029       -24.6815
   9   2.0000      -0.721246       -19.6261
  10   2.0000      -0.687140       -18.6980
  11   2.0000      -0.606114       -16.4932
  12   2.0000      -0.564295       -15.3553
  13   2.0000      -0.495001       -13.4697
  14   2.0000      -0.451175       -12.2771
  15   2.0000      -0.433234       -11.7889
  16   2.0000      -0.416289       -11.3278
  17   2.0000      -0.391833       -10.6623
  18   2.0000      -0.386329       -10.5126
  19   2.0000      -0.366029        -9.9602
  20   2.0000      -0.356154        -9.6914
  21   2.0000      -0.341048        -9.2804
  22   2.0000      -0.323106        -8.7921
  23   2.0000      -0.315247        -8.5783
  24   2.0000      -0.312498        -8.5035
  25   2.0000      -0.289439        -7.8760
  26   2.0000      -0.254335        -6.9208
  27   2.0000      -0.214822        -5.8456
  28   0.0000      -0.018630        -0.5069
  29   0.0000       0.040244         1.0951
  30   0.0000       0.062279         1.6947
  31   0.0000       0.077467         2.1080
  32   0.0000       0.087173         2.3721

MULLIKEN ATOMIC CHARGES
-----------------------
   0 C :   -0.304380
   1 C :   -0.130379
   2 C :    0.098837
   3 O :   -0.214750
   4 O :   -0.242118
   5 C :   -0.014523
   6 C :   -0.303168
   7 H :    0.110947
   8 H :    0.116741
   9 H :    0.117822
  10 H :    0.099854
  11 H :    0.105565
  12 H :    0.108847
  13 H :    0.101134
  14 H :    0.112330
  15 H :    0.112627
  16 H :    0.124613
Sum of atomic charges:   -0.0000000

LOEWDIN ATOMIC CHARGES
----------------------
   0 C :   -0.330447
   1 C :   -0.249220
   2 C :    0.036991
   3 O :   -0.175061
   4 O :   -0.069254
   5 C :   -0.113543
   6 C :   -0.355846
   7 H :    0.121630
   8 H :    0.124043
   9 H :    0.125507
  10 H :    0.130221
  11 H :    0.135074
  12 H :    0.119638
  13 H :    0.116632
  14 H :    0.130236
  15 H :    0.123613
  16 H :    0.129786

  Mayer bond orders larger than 0.100000
B(  0-C ,  1-C ) :   1.1417 B(  0-C ,  7-H ) :   0.9537 B(  0-C ,  8-H ) :   0.9526
B(  0-C ,  9-H ) :   0.9530 B(  1-C ,  2-C ) :   1.0253 B(  1-C , 10-H ) :   0.9076
B(  1-C , 11-H ) :   0.9098 B(  2-C ,  3-O ) :   2.0426 B(  2-C ,  4-O ) :   1.2049
B(  4-O ,  5-C ) :   0.9218 B(  5-C ,  6-C ) :   1.1734 B(  5-C , 12-H ) :   0.9118
B(  5-C , 13-H ) :   0.9371 B(  6-C , 14-H ) :   0.9446 B(  6-C , 15-H ) :   0.9494
B(  6-C , 16-H ) :   0.9467

Dispersion correction           -0.012101508
FINAL SINGLE POINT ENERGY      -346.244408984813

DIPOLE MOMENT
-------------

Method             : SCF
Type of density    : Electron Density
Multiplicity       :   1
Irrep              :   0
Energy             :  -346.3088619904681877 Eh
Relativity type    :
Basis              : AO
                                X                 Y                 Z
Electronic contribution:     -0.026325471      -1.167037345      -4.536172343
Nuclear contribution   :      0.221630870       1.809512660       4.840919447
                        -----------------------------------------
Total Dipole Moment    :      0.195305399       0.642475316       0.304747104
                        -----------------------------------------
Magnitude (a.u.)       :      0.737420862
Magnitude (Debye)      :      1.874374872

Rotational constants in cm-1:             0.154301             0.053494             0.049237
Rotational constants in MHz :          4625.812867          1603.704730          1476.081048

                             ****ORCA TERMINATED NORMALLY****
TOTAL RUN TIME: 0 days 0 hours 0 minutes 8 seconds 734 msec
