                         Program Version 6.0.0  -   RELEASE  -
|  1> ! pbe def2-sv(p) def2/J RI DEFGRID1 loosescf d4 GCP(DFT/SV(P)) printgap
|  2> %output
|  3>     printlevel normal
|  4> end
|  5> * xyz 0 1
|  6> C 2.2379764835 1.1095077061 -0.546000035
|  7> C 1.198931768 0.4942477468 0.388713268
|  8> C 1.8156624535 -0.6543902079 1.1958565743
|  9> C 5.64e-08 0.0012109243 -0.4047440519
| 10> O -0.0005159623 0.0043748292 -1.6192834046
| 11> C -1.1984586525 -0.495207567 0.3873610739
| 12> C -2.2358174121 -1.1109311886 -0.5488423309
| 13> C -1.8177102519 0.6512045687 1.1957453748
| 14> H 2.6122790124 0.3577319956 -1.2371825181
| 15> H 3.0703754416 1.5105024115 0.0251914635
| 16> H 1.7931507432 1.9100879319 -1.1324065514
| 17> H 0.8487605281 1.2625893575 1.0836840026
| 18> H 2.050076215 -1.4909691358 0.5412023873
| 19> H 2.7374103785 -0.3133860761 1.6596785122
| 20> H 1.1451436248 -0.9961628402 1.9784563915
| 21> H -0.8474238481 -1.2639959728 1.0813605137
| 22> H -2.6100392889 -0.3592905656 -1.2401913839
| 23> H -1.789430154 -1.9108633562 -1.1349477423
| 24> H -3.0685252494 -1.5130767367 0.0211877199
| 25> H -2.0544438041 1.487789561 0.542051804
| 26> H -2.7384601816 0.3076974505 1.6597527106
| 27> H -1.1476477825 0.9938338284 1.978271864
| 28> *
| 29>
| 30>                          ****END OF INPUT****

CARTESIAN COORDINATES (ANGSTROEM)
---------------------------------
  C      2.237976    1.109508   -0.546000
  C      1.198932    0.494248    0.388713
  C      1.815662   -0.654390    1.195857
  C      0.000000    0.001211   -0.404744
  O     -0.000516    0.004375   -1.619283
  C     -1.198459   -0.495208    0.387361
  C     -2.235817   -1.110931   -0.548842
  C     -1.817710    0.651205    1.195745
  H      2.612279    0.357732   -1.237183
  H      3.070375    1.510502    0.025191
  H      1.793151    1.910088   -1.132407
  H      0.848761    1.262589    1.083684
  H      2.050076   -1.490969    0.541202
  H      2.737410   -0.313386    1.659679
  H      1.145144   -0.996163    1.978456
  H     -0.847424   -1.263996    1.081361
  H     -2.610039   -0.359291   -1.240191
  H     -1.789430   -1.910863   -1.134948
  H     -3.068525   -1.513077    0.021188
  H     -2.054444    1.487790    0.542052
  H     -2.738460    0.307697    1.659753
  H     -1.147648    0.993834    1.978272

 Total Charge           Charge          ....    0
 Multiplicity           Mult            ....    1
 Number of Electrons    NEL             ....   64
 Basis Dimension        Dim             ....  140

ORBITAL ENERGIES
----------------

  NO   OCC          E(Eh)            E(eV)
   0   2.0000     -18.737485      -509.8729
   1   2.0000      -9.965340      -271.1707
   2   2.0000      -9.901722      -269.4396
   3   2.0000      -9.901708      -269.4392
   4   2.0000      -9.887808      -269.0609
   5   2.0000      -9.887803      -269.0608
   6   2.0000      -9.871161      -268.6079
   7   2.0000      -9.871145      -268.6075
   8   2.0000      -0.935510       -25.4565
   9   2.0000      -0.735723       -20.0200
  10   2.0000      -0.712807       -19.3965
  11   2.0000      -0.617368       -16.7994
  12   2.0000      -0.615120       -16.7383
  13   2.0000      -0.581787       -15.8312
  14   2.0000      -0.526002       -14.3132
  15   2.0000      -0.452286       -12.3073
  16   2.0000      -0.447303       -12.1717
  17   2.0000      -0.412434       -11.2229
  18   2.0000      -0.405683       -11.0392
  19   2.0000      -0.383688       -10.4407
  20   2.0000      -0.371278       -10.1030
  21   2.0000      -0.360721        -9.8157
  22   2.0000      -0.347201        -9.4478
  23   2.0000      -0.343545        -9.3483
  24   2.0000      -0.333844        -9.0844
  25   2.0000      -0.322886        -8.7862
  26   2.0000      -0.315001        -8.5716
  27   2.0000      -0.301093        -8.1931
  28   2.0000      -0.300474        -8.1763
  29   2.0000      -0.293701        -7.9920
  30   2.0000      -0.289831        -7.8867
  31   2.0000      -0.192739        -5.2447
  32   0.0000      -0.048118        -1.3093
  33   0.0000       0.023360         0.6357
  34   0.0000       0.059988         1.6324
  35   0.0000       0.068294         1.8584
  36   0.0000       0.071302         1.9402

MULLIKEN ATOMIC CHARGES
-----------------------
   0 C :   -0.218690
   1 C :   -0.187234
   2 C :   -0.268551
   3 C :    0.054163
   4 O :   -0.166075
   5 C :   -0.187208
   6 C :   -0.218720
   7 C :   -0.268364
   8 H :    0.103055
   9 H :    0.092674
  10 H :    0.105253
  11 H :    0.094321
  12 H :    0.109402
  13 H :    0.111334
  14 H :    0.114403
  15 H :    0.094205
  16 H :    0.103161
  17 H :    0.105139
  18 H :    0.092664
  19 H :    0.109410
  20 H :    0.111362
  21 H :    0.114294
Sum of atomic charges:   -0.0000000

LOEWDIN ATOMIC CHARGES
----------------------
   0 C :   -0.326822
   1 C :   -0.183477
   2 C :   -0.321903
   3 C :    0.065966
   4 O :   -0.120175
   5 C :   -0.183472
   6 C :   -0.326800
   7 C :   -0.321846
   8 H :    0.123260
   9 H :    0.115735
  10 H :    0.123295
  11 H :    0.129845
  12 H :    0.124025
  13 H :    0.124795
  14 H :    0.118351
  15 H :    0.129773
  16 H :    0.123283
  17 H :    0.123252
  18 H :    0.115728
  19 H :    0.124051
  20 H :    0.124798
  21 H :    0.118338

  Mayer bond orders larger than 0.100000
B(  0-C ,  1-C ) :   1.1276 B(  0-C ,  8-H ) :   0.9466 B(  0-C ,  9-H ) :   0.9459
B(  0-C , 10-H ) :   0.9479 B(  1-C ,  2-C ) :   1.0869 B(  1-C ,  3-C ) :   0.9524
B(  1-C , 11-H ) :   0.8774 B(  2-C , 12-H ) :   0.9490 B(  2-C , 13-H ) :   0.9482
B(  2-C , 14-H ) :   0.9425 B(  3-C ,  4-O ) :   2.1952 B(  3-C ,  5-C ) :   0.9524
B(  5-C ,  6-C ) :   1.1275 B(  5-C ,  7-C ) :   1.0868 B(  5-C , 15-H ) :   0.8775
B(  6-C , 16-H ) :   0.9465 B(  6-C , 17-H ) :   0.9481 B(  6-C , 18-H ) :   0.9459
B(  7-C , 19-H ) :   0.9490 B(  7-C , 20-H ) :   0.9482 B(  7-C , 21-H ) :   0.9425

Dispersion correction           -0.018869766
FINAL SINGLE POINT ENERGY      -349.569025376758

DIPOLE MOMENT
-------------

Method             : SCF
Type of density    : Electron Density
Multiplicity       :   1
Irrep              :   0
Energy             :  -349.6430079255329701 Eh
Relativity type    :
Basis              : AO
                                X                 Y                 Z
Electronic contribution:     -0.000957988       0.014326722      -4.443627468
Nuclear contribution   :      0.001142193      -0.016364379       5.441828484
                        -----------------------------------------
Total Dipole Moment    :      0.000184205      -0.002037657       0.998201016
                        -----------------------------------------
Magnitude (a.u.)       :      0.998203113
Magnitude (Debye)      :      2.537230676

Rotational constants in cm-1:             0.101284             0.045717             0.039699
Rotational constants in MHz :          3036.414115          1370.565724          1190.155508

                             ****ORCA TERMINATED NORMALLY****
TOTAL RUN TIME: 0 days 0 hours 0 minutes 10 seconds 897 msec
