                         Program Version 6.0.0  -   RELEASE  -
|  1> ! r2scan-3c def2/J RI DEFGRID2 scfconv6 printgap
|  2> %output
|  3>     printlevel normal
|  4> end
|  5> * xyz 0 1
|  6> C -1.1150334261 -0.0518637212 0.7134633767
|  7> C 0.2383975873 0.5754850169 0.3436524769
|  8> C 1.1131713349 -0.3979858203 -0.4698402517
|  9> O 1.695368882 -1.3987094521 0.3313977472
| 10> O -0.0565246541 1.7421301907 -0.3981363486
| 11> O -1.8408094489 -0.4618798144 -0.4189090449
| 12> H -1.6885424568 0.6825715892 1.2929551538
| 13> H -0.9642126997 -0.9416272982 1.326140491
| 14> H 0.7670356914 0.8289191069 1.2745179093
| 15> H 1.9509205298 0.1494918187 -0.9100423974
| 16> H 0.5136944564 -0.8332088744 -1.2777839751
| 17> H 1.0161478727 -2.0316735176 0.5993978736
| 18> H 0.7590465884 2.2150551162 -0.6093346453
| 19> H -1.9668073218 0.3137289178 -0.9850336395
| 20> *
| 21>
| 22>                          ****END OF INPUT****

CARTESIAN COORDINATES (ANGSTROEM)
---------------------------------
  C     -1.115033   -0.051864    0.713463
  C      0.238398    0.575485    0.343652
  C      1.113171   -0.397986   -0.469840
  O      1.695369   -1.398709    0.331398
  O     -0.056525    1.742130   -0.398136
  O     -1.840809   -0.461880   -0.418909
  H     -1.688542    0.682572    1.292955
  H     -0.964213   -0.941627    1.326140
  H      0.767036    0.828919    1.274518
  H      1.950921    0.149492   -0.910042
  H      0.513694   -0.833209   -1.277784
  H      1.016148   -2.031674    0.599398
  H      0.759047    2.215055   -0.609335
  H     -1.966807    0.313729   -0.985034

 Total Charge           Charge          ....    0
 Multiplicity           Mult            ....    1
 Number of Electrons    NEL             ....   50
 Basis Dimension        Dim             ....  169

ORBITAL ENERGIES
----------------

  NO   OCC          E(Eh)            E(eV)
   0   2.0000     -18.966175      -516.0959
   1   2.0000     -18.956432      -515.8307
   2   2.0000     -18.953089      -515.7398
   3   2.0000     -10.088049      -274.5098
   4   2.0000     -10.082867      -274.3688
   5   2.0000     -10.078237      -274.2428
   6   2.0000      -1.011526       -27.5250
   7   2.0000      -0.991479       -26.9795
   8   2.0000      -0.985626       -26.8202
   9   2.0000      -0.725106       -19.7311
  10   2.0000      -0.651741       -17.7348
  11   2.0000      -0.576260       -15.6808
  12   2.0000      -0.500509       -13.6195
  13   2.0000      -0.496212       -13.5026
  14   2.0000      -0.465493       -12.6667
  15   2.0000      -0.435241       -11.8435
  16   2.0000      -0.400737       -10.9046
  17   2.0000      -0.390301       -10.6206
  18   2.0000      -0.374793       -10.1986
  19   2.0000      -0.343449        -9.3457
  20   2.0000      -0.312561        -8.5052
  21   2.0000      -0.292012        -7.9460
  22   2.0000      -0.273672        -7.4470
  23   2.0000      -0.247034        -6.7221
  24   2.0000      -0.229426        -6.2430
  25   0.0000       0.038218         1.0400
  26   0.0000       0.047374         1.2891
  27   0.0000       0.089673         2.4401
  28   0.0000       0.114318         3.1108
  29   0.0000       0.117450         3.1960

MULLIKEN ATOMIC CHARGES
-----------------------
   0 C :   -0.202796
   1 C :    0.120604
   2 C :   -0.239779
   3 O :   -0.419904
   4 O :   -0.448216
   5 O :   -0.433651
   6 H :    0.145499
   7 H :    0.129072
   8 H :    0.137593
   9 H :    0.129439
  10 H :    0.166210
  11 H :    0.304115
  12 H :    0.293758
  13 H :    0.318055
Sum of atomic charges:    0.0000000

LOEWDIN ATOMIC CHARGES
----------------------
   0 C :    0.027912
   1 C :    0.069510
   2 C :    0.024560
   3 O :   -0.605910
   4 O :   -0.604972
   5 O :   -0.601430
   6 H :    0.170269
   7 H :    0.176933
   8 H :    0.174289
   9 H :    0.175641
  10 H :    0.176406
  11 H :    0.267624
  12 H :    0.273339
  13 H :    0.275831

  Mayer bond orders larger than 0.100000
B(  0-C ,  1-C ) :   0.9386 B(  0-C ,  5-O ) :   0.9891 B(  0-C ,  6-H ) :   0.9721
B(  0-C ,  7-H ) :   0.9709 B(  1-C ,  2-C ) :   0.8632 B(  1-C ,  4-O ) :   0.8726
B(  1-C ,  8-H ) :   0.9424 B(  2-C ,  3-O ) :   0.9704 B(  2-C ,  9-H ) :   0.9815
B(  2-C , 10-H ) :   0.9845 B(  3-O , 11-H ) :   0.8901 B(  4-O , 12-H ) :   0.8983
B(  5-O , 13-H ) :   0.8764

Dispersion correction           -0.003071044
FINAL SINGLE POINT ENERGY      -344.723969916469

DIPOLE MOMENT
-------------

Method             : SCF
Type of density    : Electron Density
Multiplicity       :   1
Irrep              :   0
Energy             :  -344.7313744428668656 Eh
Relativity type    :
Basis              : AO
                                X                 Y                 Z
Electronic contribution:     -0.219646639       0.100554535      -0.588079812
Nuclear contribution   :      0.360338828       0.357802106       0.659656854
                        -----------------------------------------
Total Dipole Moment    :      0.140692190       0.458356641       0.071577042
                        -----------------------------------------
Magnitude (a.u.)       :      0.484776624
Magnitude (Debye)      :      1.232204254

Rotational constants in cm-1:             0.150365             0.091155             0.067976
Rotational constants in MHz :          4507.819144          2732.751267          2037.879427

                             ****ORCA TERMINATED NORMALLY****
TOTAL RUN TIME: 0 days 0 hours 0 minutes 20 seconds 913 msec
