                         Program Version 6.0.0  -   RELEASE  -
|  1> ! r2scan-3c def2/J RI DEFGRID2 scfconv6 printgap
|  2> %output
|  3>     printlevel normal
|  4> end
|  5> %cpcm
|  6>     smd true
|  7>     smdsolvent "water"
|  8> end
|  9> * xyz 0 1
| 10> C -1.1150334261 -0.0518637212 0.7134633767
| 11> C 0.2383975873 0.5754850169 0.3436524769
| 12> C 1.1131713349 -0.3979858203 -0.4698402517
| 13> O 1.695368882 -1.3987094521 0.3313977472
| 14> O -0.0565246541 1.7421301907 -0.3981363486
| 15> O -1.8408094489 -0.4618798144 -0.4189090449
| 16> H -1.6885424568 0.6825715892 1.2929551538
| 17> H -0.9642126997 -0.9416272982 1.326140491
| 18> H 0.7670356914 0.8289191069 1.2745179093
| 19> H 1.9509205298 0.1494918187 -0.9100423974
| 20> H 0.5136944564 -0.8332088744 -1.2777839751
| 21> H 1.0161478727 -2.0316735176 0.5993978736
| 22> H 0.7590465884 2.2150551162 -0.6093346453
| 23> H -1.9668073218 0.3137289178 -0.9850336395
| 24> *
| 25>
| 26>                          ****END OF INPUT****

CARTESIAN COORDINATES (ANGSTROEM)
---------------------------------
  C     -1.115033   -0.051864    0.713463
  C      0.238398    0.575485    0.343652
  C      1.113171   -0.397986   -0.469840
  O      1.695369   -1.398709    0.331398
  O     -0.056525    1.742130   -0.398136
  O     -1.840809   -0.461880   -0.418909
  H     -1.688542    0.682572    1.292955
  H     -0.964213   -0.941627    1.326140
  H      0.767036    0.828919    1.274518
  H      1.950921    0.149492   -0.910042
  H      0.513694   -0.833209   -1.277784
  H      1.016148   -2.031674    0.599398
  H      0.759047    2.215055   -0.609335
  H     -1.966807    0.313729   -0.985034

 Total Charge           Charge          ....    0
 Multiplicity           Mult            ....    1
 Number of Electrons    NEL             ....   50
 Basis Dimension        Dim             ....  169

ORBITAL ENERGIES
----------------

  NO   OCC          E(Eh)            E(eV)
   0   2.0000     -18.957385      -515.8567
   1   2.0000     -18.955577      -515.8075
   2   2.0000     -18.954412      -515.7758
   3   2.0000     -10.078427      -274.2479
   4   2.0000     -10.072186      -274.0781
   5   2.0000     -10.069819      -274.0137
   6   2.0000      -1.005583       -27.3633
   7   2.0000      -0.989643       -26.9296
   8   2.0000      -0.982013       -26.7219
   9   2.0000      -0.716107       -19.4863
  10   2.0000      -0.643532       -17.5114
  11   2.0000      -0.567835       -15.4516
  12   2.0000      -0.491170       -13.3654
  13   2.0000      -0.489562       -13.3217
  14   2.0000      -0.460071       -12.5192
  15   2.0000      -0.427405       -11.6303
  16   2.0000      -0.397533       -10.8174
  17   2.0000      -0.383040       -10.4231
  18   2.0000      -0.371005       -10.0955
  19   2.0000      -0.339368        -9.2347
  20   2.0000      -0.311237        -8.4692
  21   2.0000      -0.288754        -7.8574
  22   2.0000      -0.272768        -7.4224
  23   2.0000      -0.246383        -6.7044
  24   2.0000      -0.227800        -6.1988
  25   0.0000       0.057452         1.5633
  26   0.0000       0.063442         1.7263
  27   0.0000       0.108864         2.9624
  28   0.0000       0.130391         3.5481
  29   0.0000       0.133400         3.6300

MULLIKEN ATOMIC CHARGES
-----------------------
   0 C :   -0.192591
   1 C :    0.111235
   2 C :   -0.246959
   3 O :   -0.500518
   4 O :   -0.511529
   5 O :   -0.504173
   6 H :    0.154329
   7 H :    0.158645
   8 H :    0.151555
   9 H :    0.159000
  10 H :    0.161280
  11 H :    0.358899
  12 H :    0.345444
  13 H :    0.355384
Sum of atomic charges:    0.0000000

LOEWDIN ATOMIC CHARGES
----------------------
   0 C :    0.027061
   1 C :    0.075004
   2 C :    0.023852
   3 O :   -0.638320
   4 O :   -0.623495
   5 O :   -0.635267
   6 H :    0.174382
   7 H :    0.189297
   8 H :    0.181285
   9 H :    0.185609
  10 H :    0.176052
  11 H :    0.285900
  12 H :    0.291390
  13 H :    0.287249

  Mayer bond orders larger than 0.100000
B(  0-C ,  1-C ) :   0.9513 B(  0-C ,  5-O ) :   0.9649 B(  0-C ,  6-H ) :   0.9659
B(  0-C ,  7-H ) :   0.9594 B(  1-C ,  2-C ) :   0.8850 B(  1-C ,  4-O ) :   0.8741
B(  1-C ,  8-H ) :   0.9395 B(  2-C ,  3-O ) :   0.9616 B(  2-C ,  9-H ) :   0.9740
B(  2-C , 10-H ) :   0.9772 B(  3-O , 11-H ) :   0.8610 B(  4-O , 12-H ) :   0.8731
B(  5-O , 13-H ) :   0.8570

Dispersion correction           -0.003071044
FINAL SINGLE POINT ENERGY      -344.744734341915

DIPOLE MOMENT
-------------

Method             : SCF
Type of density    : Electron Density
Multiplicity       :   1
Irrep              :   0
Energy             :  -344.7521388683123291 Eh
Relativity type    :
Basis              : AO
                                X                 Y                 Z
Electronic contribution:     -0.131495493       0.234328184      -0.516109969
Nuclear contribution   :      0.360338828       0.357802106       0.659656854
                        -----------------------------------------
Total Dipole Moment    :      0.228843336       0.592130289       0.143546885
                        -----------------------------------------
Magnitude (a.u.)       :      0.650840426
Magnitude (Debye)      :      1.654304893

Rotational constants in cm-1:             0.150365             0.091155             0.067976
Rotational constants in MHz :          4507.819144          2732.751267          2037.879427

                             ****ORCA TERMINATED NORMALLY****
TOTAL RUN TIME: 0 days 0 hours 0 minutes 23 seconds 935 msec
