                         Program Version 6.0.0  -   RELEASE  -
|  1> ! wb97x-v def2-tzvp def2/J RIJCOSX DEFGRID2 scfconv7 GCP(DFT/TZ) printgap
|  2> %output
|  3>     printlevel normal
|  4> end
|  5> * xyz 0 1
|  6> C 1.892566567421017 -1.1685052659725204 -0.46670145829668885
|  7> C 1.192461665726232 -0.028672263459766176 0.2565054212153333
|  8> C 2.0649039602889805 1.2132739587902608 0.35442167516560413
|  9> O -0.013345339005957876 0.3217085603822632 -0.4675062616135301
| 10> C -1.2404400112936904 0.1334245868892745 0.2702193340120151
| 11> C -2.3196223225441472 0.877384925840573 -0.49468631095281
| 12> C -1.5739782352081724 -1.3448285575032255 0.42640986240564754
| 13> H 2.810542171284807 -1.4493237667072358 0.06025132415558114
| 14> H 1.2452520664764892 -2.04877144236226 -0.5276286140164976
| 15> H 2.1609181016844126 -0.8630785335885633 -1.4842662325854765
| 16> H 0.914497468135319 -0.3541527138159975 1.2677917504073979
| 17> H 2.985216967371721 0.9936380076208422 0.9055489038258833
| 18> H 1.535164700671378 2.018224669598305 0.87391290694611
| 19> H 2.339259649207491 1.5644859272628802 -0.6465988804603624
| 20> H -1.119787537116972 0.5888139340561291 1.2661150115917652
| 21> H -3.276717961538065 0.795383710862806 0.02885383656680933
| 22> H -2.0678794863658494 1.9377464823532222 -0.5920156250840627
| 23> H -2.439030132038479 0.4515307488909466 -1.4970771316038274
| 24> H -0.7943050280275269 -1.879197408629936 0.97769104491417
| 25> H -1.6911375150687986 -1.8116599958887591 -0.5581408327294662
| 26> H -2.5130990994703386 -1.460144095685974 0.9782304444936796
| 27> *
| 28>
| 29>                          ****END OF INPUT****

CARTESIAN COORDINATES (ANGSTROEM)
---------------------------------
  C      1.892567   -1.168505   -0.466701
  C      1.192462   -0.028672    0.256505
  C      2.064904    1.213274    0.354422
  O     -0.013345    0.321709   -0.467506
  C     -1.240440    0.133425    0.270219
  C     -2.319622    0.877385   -0.494686
  C     -1.573978   -1.344829    0.426410
  H      2.810542   -1.449324    0.060251
  H      1.245252   -2.048771   -0.527629
  H      2.160918   -0.863079   -1.484266
  H      0.914497   -0.354153    1.267792
  H      2.985217    0.993638    0.905549
  H      1.535165    2.018225    0.873913
  H      2.339260    1.564486   -0.646599
  H     -1.119788    0.588814    1.266115
  H     -3.276718    0.795384    0.028854
  H     -2.067879    1.937746   -0.592016
  H     -2.439030    0.451531   -1.497077
  H     -0.794305   -1.879197    0.977691
  H     -1.691138   -1.811660   -0.558141
  H     -2.513099   -1.460144    0.978230

 Total Charge           Charge          ....    0
 Multiplicity           Mult            ....    1
 Number of Electrons    NEL             ....   58
 Basis Dimension        Dim             ....  301

ORBITAL ENERGIES
----------------

  NO   OCC          E(Eh)            E(eV)
   0   2.0000     -21.659034      -589.3723
   1   2.0000     -12.094992      -329.1215
   2   2.0000     -12.093501      -329.0809
   3   2.0000     -12.034275      -327.4693
   4   2.0000     -12.031340      -327.3894
   5   2.0000     -12.030991      -327.3799
   6   2.0000     -12.030898      -327.3774
   7   2.0000      -1.660413       -45.1821
   8   2.0000      -1.315430       -35.7947
   9   2.0000      -1.266932       -34.4750
  10   2.0000      -1.183502       -32.2047
  11   2.0000      -1.179104       -32.0850
  12   2.0000      -1.112271       -30.2664
  13   2.0000      -1.058531       -28.8041
  14   2.0000      -0.973687       -26.4954
  15   2.0000      -0.942103       -25.6359
  16   2.0000      -0.933944       -25.4139
  17   2.0000      -0.869455       -23.6591
  18   2.0000      -0.866887       -23.5892
  19   2.0000      -0.842897       -22.9364
  20   2.0000      -0.825500       -22.4630
  21   2.0000      -0.817244       -22.2383
  22   2.0000      -0.811044       -22.0696
  23   2.0000      -0.807187       -21.9647
  24   2.0000      -0.804973       -21.9044
  25   2.0000      -0.785225       -21.3671
  26   2.0000      -0.779719       -21.2172
  27   2.0000      -0.764580       -20.8053
  28   2.0000      -0.757830       -20.6216
  29   0.0000      -0.167500        -4.5579
  30   0.0000      -0.103296        -2.8108
  31   0.0000      -0.033533        -0.9125
  32   0.0000      -0.012956        -0.3525
  33   0.0000      -0.002611        -0.0710

MULLIKEN ATOMIC CHARGES
-----------------------
   0 C :   -0.320372
   1 C :    0.084785
   2 C :   -0.318288
   3 O :   -0.305767
   4 C :    0.074985
   5 C :   -0.318210
   6 C :   -0.333392
   7 H :    0.102555
   8 H :    0.111461
   9 H :    0.110713
  10 H :    0.066208
  11 H :    0.102508
  12 H :    0.108627
  13 H :    0.110913
  14 H :    0.063211
  15 H :    0.100418
  16 H :    0.115415
  17 H :    0.109977
  18 H :    0.109904
  19 H :    0.113444
  20 H :    0.110906
Sum of atomic charges:    0.0000000

LOEWDIN ATOMIC CHARGES
----------------------
   0 C :   -0.284772
   1 C :   -0.362709
   2 C :   -0.284132
   3 O :    0.167910
   4 C :   -0.372525
   5 C :   -0.281076
   6 C :   -0.286922
   7 H :    0.119472
   8 H :    0.117446
   9 H :    0.122368
  10 H :    0.132935
  11 H :    0.118996
  12 H :    0.118534
  13 H :    0.122065
  14 H :    0.129667
  15 H :    0.120130
  16 H :    0.120604
  17 H :    0.122086
  18 H :    0.116187
  19 H :    0.122177
  20 H :    0.121559

  Mayer bond orders larger than 0.100000
B(  0-C ,  1-C ) :   0.9878 B(  0-C ,  7-H ) :   0.9764 B(  0-C ,  8-H ) :   0.9785
B(  0-C ,  9-H ) :   0.9742 B(  1-C ,  2-C ) :   0.9943 B(  1-C ,  3-O ) :   0.9061
B(  1-C , 10-H ) :   0.9679 B(  2-C , 11-H ) :   0.9773 B(  2-C , 12-H ) :   0.9781
B(  2-C , 13-H ) :   0.9771 B(  3-O ,  4-C ) :   1.0121 B(  4-C ,  5-C ) :   0.9922
B(  4-C ,  6-C ) :   0.9682 B(  4-C , 14-H ) :   0.9757 B(  5-C , 15-H ) :   0.9734
B(  5-C , 16-H ) :   0.9801 B(  5-C , 17-H ) :   0.9776 B(  6-C , 18-H ) :   0.9741
B(  6-C , 19-H ) :   0.9761 B(  6-C , 20-H ) :   0.9730

FINAL SINGLE POINT ENERGY      -312.304887289608

DIPOLE MOMENT
-------------

Method             : SCF
Type of density    : Electron Density
Multiplicity       :   1
Irrep              :   0
Energy             :  -312.3201638885082616 Eh
Relativity type    :
Basis              : AO
                                X                 Y                 Z
Electronic contribution:     -0.100996725       1.213122152      -0.789802278
Nuclear contribution   :      0.074583084      -1.392228269       1.271607543
                        -----------------------------------------
Total Dipole Moment    :     -0.026413641      -0.179106118       0.481805265
                        -----------------------------------------
Magnitude (a.u.)       :      0.514696993
Magnitude (Debye)      :      1.308255788

Rotational constants in cm-1:             0.137537             0.053458             0.043867
Rotational constants in MHz :          4123.256604          1602.621334          1315.099586

                             ****ORCA TERMINATED NORMALLY****
TOTAL RUN TIME: 0 days 0 hours 2 minutes 10 seconds 52 msec
