                         Program Version 6.0.0  -   RELEASE  -
|  1> ! wb97x-v def2-tzvp def2/J RIJCOSX DEFGRID2 scfconv7 GCP(DFT/TZ) printgap
|  2> %output
|  3>     printlevel normal
|  4> end
|  5> %cpcm
|  6>     smd true
|  7>     smdsolvent "water"
|  8> end
|  9> * xyz 0 1
| 10> C 1.892566567421017 -1.1685052659725204 -0.46670145829668885
| 11> C 1.192461665726232 -0.028672263459766176 0.2565054212153333
| 12> C 2.0649039602889805 1.2132739587902608 0.35442167516560413
| 13> O -0.013345339005957876 0.3217085603822632 -0.4675062616135301
| 14> C -1.2404400112936904 0.1334245868892745 0.2702193340120151
| 15> C -2.3196223225441472 0.877384925840573 -0.49468631095281
| 16> C -1.5739782352081724 -1.3448285575032255 0.42640986240564754
| 17> H 2.810542171284807 -1.4493237667072358 0.06025132415558114
| 18> H 1.2452520664764892 -2.04877144236226 -0.5276286140164976
| 19> H 2.1609181016844126 -0.8630785335885633 -1.4842662325854765
| 20> H 0.914497468135319 -0.3541527138159975 1.2677917504073979
| 21> H 2.985216967371721 0.9936380076208422 0.9055489038258833
| 22> H 1.535164700671378 2.018224669598305 0.87391290694611
| 23> H 2.339259649207491 1.5644859272628802 -0.6465988804603624
| 24> H -1.119787537116972 0.5888139340561291 1.2661150115917652
| 25> H -3.276717961538065 0.795383710862806 0.02885383656680933
| 26> H -2.0678794863658494 1.9377464823532222 -0.5920156250840627
| 27> H -2.439030132038479 0.4515307488909466 -1.4970771316038274
| 28> H -0.7943050280275269 -1.879197408629936 0.97769104491417
| 29> H -1.6911375150687986 -1.8116599958887591 -0.5581408327294662
| 30> H -2.5130990994703386 -1.460144095685974 0.9782304444936796
| 31> *
| 32>
| 33>                          ****END OF INPUT****

CARTESIAN COORDINATES (ANGSTROEM)
---------------------------------
  C      1.892567   -1.168505   -0.466701
  C      1.192462   -0.028672    0.256505
  C      2.064904    1.213274    0.354422
  O     -0.013345    0.321709   -0.467506
  C     -1.240440    0.133425    0.270219
  C     -2.319622    0.877385   -0.494686
  C     -1.573978   -1.344829    0.426410
  H      2.810542   -1.449324    0.060251
  H      1.245252   -2.048771   -0.527629
  H      2.160918   -0.863079   -1.484266
  H      0.914497   -0.354153    1.267792
  H      2.985217    0.993638    0.905549
  H      1.535165    2.018225    0.873913
  H      2.339260    1.564486   -0.646599
  H     -1.119788    0.588814    1.266115
  H     -3.276718    0.795384    0.028854
  H     -2.067879    1.937746   -0.592016
  H     -2.439030    0.451531   -1.497077
  H     -0.794305   -1.879197    0.977691
  H     -1.691138   -1.811660   -0.558141
  H     -2.513099   -1.460144    0.978230

 Total Charge           Charge          ....    0
 Multiplicity           Mult            ....    1
 Number of Electrons    NEL             ....   58
 Basis Dimension        Dim             ....  301

ORBITAL ENERGIES
----------------

  NO   OCC          E(Eh)            E(eV)
   0   2.0000     -21.665374      -589.5448
   1   2.0000     -12.090388      -328.9962
   2   2.0000     -12.088772      -328.9522
   3   2.0000     -12.026142      -327.2480
   4   2.0000     -12.025369      -327.2269
   5   2.0000     -12.024954      -327.2156
   6   2.0000     -12.024908      -327.2144
   7   2.0000      -1.666843       -45.3571
   8   2.0000      -1.312368       -35.7113
   9   2.0000      -1.261991       -34.3405
  10   2.0000      -1.177974       -32.0543
  11   2.0000      -1.173800       -31.9407
  12   2.0000      -1.111673       -30.2502
  13   2.0000      -1.056907       -28.7599
  14   2.0000      -0.970888       -26.4192
  15   2.0000      -0.945274       -25.7222
  16   2.0000      -0.934795       -25.4371
  17   2.0000      -0.864718       -23.5302
  18   2.0000      -0.863328       -23.4924
  19   2.0000      -0.837797       -22.7976
  20   2.0000      -0.819892       -22.3104
  21   2.0000      -0.814039       -22.1511
  22   2.0000      -0.804255       -21.8849
  23   2.0000      -0.802476       -21.8365
  24   2.0000      -0.799758       -21.7625
  25   2.0000      -0.779142       -21.2015
  26   2.0000      -0.774613       -21.0783
  27   2.0000      -0.759173       -20.6581
  28   2.0000      -0.753387       -20.5007
  29   0.0000      -0.165103        -4.4927
  30   0.0000      -0.101674        -2.7667
  31   0.0000      -0.021973        -0.5979
  32   0.0000      -0.007083        -0.1927
  33   0.0000       0.003413         0.0929

MULLIKEN ATOMIC CHARGES
-----------------------
   0 C :   -0.392076
   1 C :    0.126237
   2 C :   -0.388510
   3 O :   -0.396825
   4 C :    0.090556
   5 C :   -0.375089
   6 C :   -0.387138
   7 H :    0.127976
   8 H :    0.132916
   9 H :    0.121983
  10 H :    0.099223
  11 H :    0.128041
  12 H :    0.129585
  13 H :    0.122197
  14 H :    0.090720
  15 H :    0.128119
  16 H :    0.128075
  17 H :    0.122326
  18 H :    0.135566
  19 H :    0.121766
  20 H :    0.134354
Sum of atomic charges:    0.0000000

LOEWDIN ATOMIC CHARGES
----------------------
   0 C :   -0.292201
   1 C :   -0.359241
   2 C :   -0.292192
   3 O :    0.132184
   4 C :   -0.370735
   5 C :   -0.290309
   6 C :   -0.289973
   7 H :    0.126358
   8 H :    0.120257
   9 H :    0.122137
  10 H :    0.143479
  11 H :    0.125989
  12 H :    0.121092
  13 H :    0.121940
  14 H :    0.138414
  15 H :    0.127736
  16 H :    0.120658
  17 H :    0.122477
  18 H :    0.122047
  19 H :    0.122493
  20 H :    0.127389

  Mayer bond orders larger than 0.100000
B(  0-C ,  1-C ) :   0.9805 B(  0-C ,  7-H ) :   0.9741 B(  0-C ,  8-H ) :   0.9773
B(  0-C ,  9-H ) :   0.9702 B(  1-C ,  2-C ) :   0.9845 B(  1-C ,  3-O ) :   0.8600
B(  1-C , 10-H ) :   0.9699 B(  2-C , 11-H ) :   0.9747 B(  2-C , 12-H ) :   0.9773
B(  2-C , 13-H ) :   0.9732 B(  3-O ,  4-C ) :   0.9777 B(  4-C ,  5-C ) :   0.9846
B(  4-C ,  6-C ) :   0.9719 B(  4-C , 14-H ) :   0.9786 B(  5-C , 15-H ) :   0.9714
B(  5-C , 16-H ) :   0.9776 B(  5-C , 17-H ) :   0.9718 B(  6-C , 18-H ) :   0.9710
B(  6-C , 19-H ) :   0.9702 B(  6-C , 20-H ) :   0.9696

FINAL SINGLE POINT ENERGY      -312.307495032287

DIPOLE MOMENT
-------------

Method             : SCF
Type of density    : Electron Density
Multiplicity       :   1
Irrep              :   0
Energy             :  -312.3227716311873792 Eh
Relativity type    :
Basis              : AO
                                X                 Y                 Z
Electronic contribution:     -0.101073169       1.082828843      -0.432544584
Nuclear contribution   :      0.074583084      -1.392228269       1.271607543
                        -----------------------------------------
Total Dipole Moment    :     -0.026490085      -0.309399426       0.839062959
                        -----------------------------------------
Magnitude (a.u.)       :      0.894682278
Magnitude (Debye)      :      2.274101625

Rotational constants in cm-1:             0.137537             0.053458             0.043867
Rotational constants in MHz :          4123.256604          1602.621334          1315.099586

                             ****ORCA TERMINATED NORMALLY****
TOTAL RUN TIME: 0 days 0 hours 2 minutes 33 seconds 335 msec
