                         Program Version 6.0.0  -   RELEASE  -
|  1> ! r2scan-3c def2/J RI DEFGRID2 scfconv6 printgap
|  2> %output
|  3>     printlevel normal
|  4> end
|  5> * xyz 0 1
|  6> C 2.7042524045 -0.3325506201 0.2726496794
|  7> C 1.3406621508 -0.7198982061 -0.2904804755
|  8> C 0.2380416168 0.2268388579 0.2022513893
|  9> H 0.2258014788 0.2261142227 1.298685233
| 10> C -1.1647265623 -0.1571164148 -0.3154356186
| 11> C -1.5526562153 -1.5884473992 0.0489684777
| 12> C -2.199509346 0.817214722 0.2491454497
| 13> O 0.5434064236 1.5682330638 -0.1421811986
| 14> H 3.4844057615 -0.9542954592 -0.1586154244
| 15> H 2.7152509334 -0.4596283116 1.3526991695
| 16> H 2.9237195477 0.7095772841 0.0534277506
| 17> H 1.3698158809 -0.6887223604 -1.3827887168
| 18> H 1.1045887958 -1.7375387965 0.0156046336
| 19> H -1.1548570834 -0.0619987615 -1.4082657647
| 20> H -2.5996731139 -1.7544435464 -0.1928577499
| 21> H -0.9616162915 -2.3156461655 -0.499967991
| 22> H -1.4163974158 -1.7575134028 1.1146985238
| 23> H -2.3148384735 0.6590060622 1.3192201579
| 24> H -3.1639618165 0.6699431833 -0.2300398897
| 25> H -1.8813534313 1.8446068148 0.0902931846
| 26> H 0.5976081124 1.6280937476 -1.1064031107
| 27> *
| 28>
| 29>                          ****END OF INPUT****

CARTESIAN COORDINATES (ANGSTROEM)
---------------------------------
  C      2.704252   -0.332551    0.272650
  C      1.340662   -0.719898   -0.290480
  C      0.238042    0.226839    0.202251
  H      0.225801    0.226114    1.298685
  C     -1.164727   -0.157116   -0.315436
  C     -1.552656   -1.588447    0.048968
  C     -2.199509    0.817215    0.249145
  O      0.543406    1.568233   -0.142181
  H      3.484406   -0.954295   -0.158615
  H      2.715251   -0.459628    1.352699
  H      2.923720    0.709577    0.053428
  H      1.369816   -0.688722   -1.382789
  H      1.104589   -1.737539    0.015605
  H     -1.154857   -0.061999   -1.408266
  H     -2.599673   -1.754444   -0.192858
  H     -0.961616   -2.315646   -0.499968
  H     -1.416397   -1.757513    1.114699
  H     -2.314838    0.659006    1.319220
  H     -3.163962    0.669943   -0.230040
  H     -1.881353    1.844607    0.090293
  H      0.597608    1.628094   -1.106403

 Total Charge           Charge          ....    0
 Multiplicity           Mult            ....    1
 Number of Electrons    NEL             ....   58
 Basis Dimension        Dim             ....  208

ORBITAL ENERGIES
----------------

  NO   OCC          E(Eh)            E(eV)
   0   2.0000     -18.944664      -515.5105
   1   2.0000     -10.076202      -274.1874
   2   2.0000     -10.033828      -273.0343
   3   2.0000     -10.025845      -272.8171
   4   2.0000     -10.019012      -272.6312
   5   2.0000     -10.012710      -272.4597
   6   2.0000     -10.009520      -272.3729
   7   2.0000      -0.984624       -26.7930
   8   2.0000      -0.771424       -20.9915
   9   2.0000      -0.730242       -19.8709
  10   2.0000      -0.648662       -17.6510
  11   2.0000      -0.636541       -17.3212
  12   2.0000      -0.565099       -15.3771
  13   2.0000      -0.543390       -14.7864
  14   2.0000      -0.455859       -12.4045
  15   2.0000      -0.429925       -11.6988
  16   2.0000      -0.423669       -11.5286
  17   2.0000      -0.414242       -11.2721
  18   2.0000      -0.375739       -10.2244
  19   2.0000      -0.367276        -9.9941
  20   2.0000      -0.359253        -9.7758
  21   2.0000      -0.352562        -9.5937
  22   2.0000      -0.332500        -9.0478
  23   2.0000      -0.315404        -8.5826
  24   2.0000      -0.307693        -8.3728
  25   2.0000      -0.301655        -8.2084
  26   2.0000      -0.298630        -8.1261
  27   2.0000      -0.275211        -7.4889
  28   2.0000      -0.231574        -6.3014
  29   0.0000       0.066865         1.8195
  30   0.0000       0.091755         2.4968
  31   0.0000       0.107865         2.9351
  32   0.0000       0.115833         3.1520
  33   0.0000       0.126436         3.4405

MULLIKEN ATOMIC CHARGES
-----------------------
   0 C :   -0.495377
   1 C :   -0.259147
   2 C :   -0.046722
   3 H :    0.144721
   4 C :    0.028517
   5 C :   -0.535535
   6 C :   -0.510622
   7 O :   -0.424714
   8 H :    0.145095
   9 H :    0.143171
  10 H :    0.167103
  11 H :    0.140938
  12 H :    0.146389
  13 H :    0.140409
  14 H :    0.147864
  15 H :    0.153176
  16 H :    0.158182
  17 H :    0.144424
  18 H :    0.147099
  19 H :    0.174498
  20 H :    0.290531
Sum of atomic charges:   -0.0000000

LOEWDIN ATOMIC CHARGES
----------------------
   0 C :   -0.418210
   1 C :   -0.291396
   2 C :    0.054895
   3 H :    0.184522
   4 C :   -0.225177
   5 C :   -0.415538
   6 C :   -0.411271
   7 O :   -0.618789
   8 H :    0.148588
   9 H :    0.151899
  10 H :    0.161846
  11 H :    0.155498
  12 H :    0.160811
  13 H :    0.157028
  14 H :    0.156070
  15 H :    0.152509
  16 H :    0.156332
  17 H :    0.154613
  18 H :    0.150647
  19 H :    0.168041
  20 H :    0.267082

  Mayer bond orders larger than 0.100000
B(  0-C ,  1-C ) :   0.9070 B(  0-C ,  8-H ) :   0.9759 B(  0-C ,  9-H ) :   0.9810
B(  0-C , 10-H ) :   0.9797 B(  1-C ,  2-C ) :   0.9389 B(  1-C , 11-H ) :   0.9769
B(  1-C , 12-H ) :   0.9615 B(  2-C ,  3-H ) :   0.9685 B(  2-C ,  4-C ) :   0.9184
B(  2-C ,  7-O ) :   0.8942 B(  4-C ,  5-C ) :   0.8695 B(  4-C ,  6-C ) :   0.9054
B(  4-C , 13-H ) :   0.9559 B(  5-C , 14-H ) :   0.9677 B(  5-C , 15-H ) :   0.9718
B(  5-C , 16-H ) :   0.9903 B(  6-C , 17-H ) :   0.9831 B(  6-C , 18-H ) :   0.9775
B(  6-C , 19-H ) :   0.9710 B(  7-O , 20-H ) :   0.8946

Dispersion correction           -0.005571150
FINAL SINGLE POINT ENERGY      -312.203004536652

DIPOLE MOMENT
-------------

Method             : SCF
Type of density    : Electron Density
Multiplicity       :   1
Irrep              :   0
Energy             :  -312.2086301546075333 Eh
Relativity type    :
Basis              : AO
                                X                 Y                 Z
Electronic contribution:      0.922343595       3.284800533      -0.652596271
Nuclear contribution   :     -0.997184344      -3.722293029       0.247150599
                        -----------------------------------------
Total Dipole Moment    :     -0.074840749      -0.437492497      -0.405445672
                        -----------------------------------------
Magnitude (a.u.)       :      0.601154735
Magnitude (Debye)      :      1.528013903

Rotational constants in cm-1:             0.132997             0.056768             0.043209
Rotational constants in MHz :          3987.148976          1701.856333          1295.358432

                             ****ORCA TERMINATED NORMALLY****
TOTAL RUN TIME: 0 days 0 hours 0 minutes 28 seconds 340 msec
