                         Program Version 6.0.0  -   RELEASE  -
|  1> ! r2scan-3c def2/J RI DEFGRID2 scfconv6 printgap
|  2> %output
|  3>     printlevel normal
|  4> end
|  5> %cpcm
|  6>     smd true
|  7>     smdsolvent "water"
|  8> end
|  9> * xyz 0 1
| 10> C 2.7042524045 -0.3325506201 0.2726496794
| 11> C 1.3406621508 -0.7198982061 -0.2904804755
| 12> C 0.2380416168 0.2268388579 0.2022513893
| 13> H 0.2258014788 0.2261142227 1.298685233
| 14> C -1.1647265623 -0.1571164148 -0.3154356186
| 15> C -1.5526562153 -1.5884473992 0.0489684777
| 16> C -2.199509346 0.817214722 0.2491454497
| 17> O 0.5434064236 1.5682330638 -0.1421811986
| 18> H 3.4844057615 -0.9542954592 -0.1586154244
| 19> H 2.7152509334 -0.4596283116 1.3526991695
| 20> H 2.9237195477 0.7095772841 0.0534277506
| 21> H 1.3698158809 -0.6887223604 -1.3827887168
| 22> H 1.1045887958 -1.7375387965 0.0156046336
| 23> H -1.1548570834 -0.0619987615 -1.4082657647
| 24> H -2.5996731139 -1.7544435464 -0.1928577499
| 25> H -0.9616162915 -2.3156461655 -0.499967991
| 26> H -1.4163974158 -1.7575134028 1.1146985238
| 27> H -2.3148384735 0.6590060622 1.3192201579
| 28> H -3.1639618165 0.6699431833 -0.2300398897
| 29> H -1.8813534313 1.8446068148 0.0902931846
| 30> H 0.5976081124 1.6280937476 -1.1064031107
| 31> *
| 32>
| 33>                          ****END OF INPUT****

CARTESIAN COORDINATES (ANGSTROEM)
---------------------------------
  C      2.704252   -0.332551    0.272650
  C      1.340662   -0.719898   -0.290480
  C      0.238042    0.226839    0.202251
  H      0.225801    0.226114    1.298685
  C     -1.164727   -0.157116   -0.315436
  C     -1.552656   -1.588447    0.048968
  C     -2.199509    0.817215    0.249145
  O      0.543406    1.568233   -0.142181
  H      3.484406   -0.954295   -0.158615
  H      2.715251   -0.459628    1.352699
  H      2.923720    0.709577    0.053428
  H      1.369816   -0.688722   -1.382789
  H      1.104589   -1.737539    0.015605
  H     -1.154857   -0.061999   -1.408266
  H     -2.599673   -1.754444   -0.192858
  H     -0.961616   -2.315646   -0.499968
  H     -1.416397   -1.757513    1.114699
  H     -2.314838    0.659006    1.319220
  H     -3.163962    0.669943   -0.230040
  H     -1.881353    1.844607    0.090293
  H      0.597608    1.628094   -1.106403

 Total Charge           Charge          ....    0
 Multiplicity           Mult            ....    1
 Number of Electrons    NEL             ....   58
 Basis Dimension        Dim             ....  208

ORBITAL ENERGIES
----------------

  NO   OCC          E(Eh)            E(eV)
   0   2.0000     -18.945518      -515.5338
   1   2.0000     -10.069704      -274.0106
   2   2.0000     -10.024683      -272.7855
   3   2.0000     -10.015613      -272.5387
   4   2.0000     -10.008099      -272.3342
   5   2.0000     -10.007252      -272.3112
   6   2.0000     -10.004665      -272.2408
   7   2.0000      -0.984287       -26.7838
   8   2.0000      -0.763292       -20.7702
   9   2.0000      -0.722748       -19.6670
  10   2.0000      -0.641486       -17.4557
  11   2.0000      -0.630622       -17.1601
  12   2.0000      -0.558134       -15.1876
  13   2.0000      -0.535726       -14.5778
  14   2.0000      -0.448757       -12.2113
  15   2.0000      -0.425134       -11.5685
  16   2.0000      -0.417405       -11.3582
  17   2.0000      -0.405770       -11.0416
  18   2.0000      -0.371131       -10.0990
  19   2.0000      -0.363146        -9.8817
  20   2.0000      -0.352120        -9.5817
  21   2.0000      -0.344446        -9.3729
  22   2.0000      -0.326567        -8.8863
  23   2.0000      -0.310398        -8.4463
  24   2.0000      -0.299444        -8.1483
  25   2.0000      -0.294302        -8.0084
  26   2.0000      -0.292367        -7.9557
  27   2.0000      -0.270885        -7.3712
  28   2.0000      -0.231783        -6.3071
  29   0.0000       0.083939         2.2841
  30   0.0000       0.102125         2.7790
  31   0.0000       0.117977         3.2103
  32   0.0000       0.123742         3.3672
  33   0.0000       0.134909         3.6711

MULLIKEN ATOMIC CHARGES
-----------------------
   0 C :   -0.546049
   1 C :   -0.266331
   2 C :   -0.023954
   3 H :    0.156068
   4 C :    0.038308
   5 C :   -0.574069
   6 C :   -0.561370
   7 O :   -0.509365
   8 H :    0.158306
   9 H :    0.158280
  10 H :    0.162239
  11 H :    0.160967
  12 H :    0.159144
  13 H :    0.161201
  14 H :    0.158205
  15 H :    0.165034
  16 H :    0.170063
  17 H :    0.159789
  18 H :    0.161805
  19 H :    0.165451
  20 H :    0.346275
Sum of atomic charges:   -0.0000000

LOEWDIN ATOMIC CHARGES
----------------------
   0 C :   -0.427638
   1 C :   -0.289526
   2 C :    0.056431
   3 H :    0.187124
   4 C :   -0.220692
   5 C :   -0.421486
   6 C :   -0.420705
   7 O :   -0.654063
   8 H :    0.152787
   9 H :    0.154268
  10 H :    0.157074
  11 H :    0.162972
  12 H :    0.165525
  13 H :    0.164273
  14 H :    0.158080
  15 H :    0.156329
  16 H :    0.159460
  17 H :    0.157243
  18 H :    0.155109
  19 H :    0.162053
  20 H :    0.285382

  Mayer bond orders larger than 0.100000
B(  0-C ,  1-C ) :   0.8845 B(  0-C ,  8-H ) :   0.9718 B(  0-C ,  9-H ) :   0.9805
B(  0-C , 10-H ) :   0.9833 B(  1-C ,  2-C ) :   0.9350 B(  1-C , 11-H ) :   0.9761
B(  1-C , 12-H ) :   0.9585 B(  2-C ,  3-H ) :   0.9700 B(  2-C ,  4-C ) :   0.9171
B(  2-C ,  7-O ) :   0.8760 B(  4-C ,  5-C ) :   0.8647 B(  4-C ,  6-C ) :   0.8827
B(  4-C , 13-H ) :   0.9591 B(  5-C , 14-H ) :   0.9667 B(  5-C , 15-H ) :   0.9681
B(  5-C , 16-H ) :   0.9861 B(  6-C , 17-H ) :   0.9834 B(  6-C , 18-H ) :   0.9735
B(  6-C , 19-H ) :   0.9754 B(  7-O , 20-H ) :   0.8678

Dispersion correction           -0.005571150
FINAL SINGLE POINT ENERGY      -312.207750154089

DIPOLE MOMENT
-------------

Method             : SCF
Type of density    : Electron Density
Multiplicity       :   1
Irrep              :   0
Energy             :  -312.2133757720436051 Eh
Relativity type    :
Basis              : AO
                                X                 Y                 Z
Electronic contribution:      0.878582769       3.032756811      -0.865976922
Nuclear contribution   :     -0.997184344      -3.722293029       0.247150599
                        -----------------------------------------
Total Dipole Moment    :     -0.118601575      -0.689536218      -0.618826322
                        -----------------------------------------
Magnitude (a.u.)       :      0.934062389
Magnitude (Debye)      :      2.374197912

Rotational constants in cm-1:             0.132997             0.056768             0.043209
Rotational constants in MHz :          3987.148976          1701.856333          1295.358432

                             ****ORCA TERMINATED NORMALLY****
TOTAL RUN TIME: 0 days 0 hours 0 minutes 33 seconds 174 msec
