                         Program Version 6.0.0  -   RELEASE  -
|  1> ! r2scan-3c def2/J RI DEFGRID2 scfconv6 printgap
|  2> %output
|  3>     printlevel normal
|  4> end
|  5> * xyz 0 1
|  6> C 2.0885795469 -1.068716901 -0.4654438201
|  7> C 0.8700241128 -0.4464238681 0.2152827941
|  8> C 1.194264618 0.9736708088 0.671929302
|  9> C -0.3318002031 -0.4696910595 -0.7373321644
| 10> C -1.6831852314 -0.2655951654 -0.0531104305
| 11> O -1.8626887411 1.0924745264 0.3029130998
| 12> H 2.9481777473 -1.040840738 0.1998060152
| 13> H 2.336706913 -0.5179752209 -1.3701529249
| 14> H 1.8952566512 -2.1046374096 -0.7344328063
| 15> H 0.6209952174 -1.0491834229 1.0965355948
| 16> H 0.3140279857 1.4482011821 1.0949655364
| 17> H 1.5287603658 1.5713073607 -0.1734810043
| 18> H 1.9830389697 0.9628720093 1.4206952324
| 19> H -0.3662586458 -1.4382126066 -1.2395261538
| 20> H -0.2100018497 0.3057188509 -1.4954002833
| 21> H -2.4783890562 -0.5707179468 -0.7475271561
| 22> H -1.7415142884 -0.9012469754 0.8416341383
| 23> H -2.7393311992 1.2076999379 0.6918817231
| 24> *
| 25>
| 26>                          ****END OF INPUT****

CARTESIAN COORDINATES (ANGSTROEM)
---------------------------------
  C      2.088580   -1.068717   -0.465444
  C      0.870024   -0.446424    0.215283
  C      1.194265    0.973671    0.671929
  C     -0.331800   -0.469691   -0.737332
  C     -1.683185   -0.265595   -0.053110
  O     -1.862689    1.092475    0.302913
  H      2.948178   -1.040841    0.199806
  H      2.336707   -0.517975   -1.370153
  H      1.895257   -2.104637   -0.734433
  H      0.620995   -1.049183    1.096536
  H      0.314028    1.448201    1.094966
  H      1.528760    1.571307   -0.173481
  H      1.983039    0.962872    1.420695
  H     -0.366259   -1.438213   -1.239526
  H     -0.210002    0.305719   -1.495400
  H     -2.478389   -0.570718   -0.747527
  H     -1.741514   -0.901247    0.841634
  H     -2.739331    1.207700    0.691882

 Total Charge           Charge          ....    0
 Multiplicity           Mult            ....    1
 Number of Electrons    NEL             ....   50
 Basis Dimension        Dim             ....  179

ORBITAL ENERGIES
----------------

  NO   OCC          E(Eh)            E(eV)
   0   2.0000     -18.947673      -515.5924
   1   2.0000     -10.074857      -274.1508
   2   2.0000     -10.027829      -272.8711
   3   2.0000     -10.022291      -272.7204
   4   2.0000     -10.010587      -272.4019
   5   2.0000     -10.000527      -272.1282
   6   2.0000      -0.984237       -26.7824
   7   2.0000      -0.771616       -20.9967
   8   2.0000      -0.692157       -18.8345
   9   2.0000      -0.640887       -17.4394
  10   2.0000      -0.582996       -15.8641
  11   2.0000      -0.521725       -14.1969
  12   2.0000      -0.486442       -13.2368
  13   2.0000      -0.427777       -11.6404
  14   2.0000      -0.419872       -11.4253
  15   2.0000      -0.391173       -10.6444
  16   2.0000      -0.376328       -10.2404
  17   2.0000      -0.353474        -9.6185
  18   2.0000      -0.345803        -9.4098
  19   2.0000      -0.325481        -8.8568
  20   2.0000      -0.317666        -8.6441
  21   2.0000      -0.289733        -7.8840
  22   2.0000      -0.286665        -7.8005
  23   2.0000      -0.274944        -7.4816
  24   2.0000      -0.233332        -6.3493
  25   0.0000       0.059721         1.6251
  26   0.0000       0.099339         2.7031
  27   0.0000       0.113833         3.0976
  28   0.0000       0.125325         3.4103
  29   0.0000       0.132062         3.5936

MULLIKEN ATOMIC CHARGES
-----------------------
   0 C :   -0.474787
   1 C :   -0.035902
   2 C :   -0.516025
   3 C :   -0.239086
   4 C :   -0.164395
   5 O :   -0.426813
   6 H :    0.146403
   7 H :    0.145723
   8 H :    0.142472
   9 H :    0.136757
  10 H :    0.181757
  11 H :    0.143150
  12 H :    0.139635
  13 H :    0.139256
  14 H :    0.150217
  15 H :    0.120731
  16 H :    0.119903
  17 H :    0.291005
Sum of atomic charges:    0.0000000

LOEWDIN ATOMIC CHARGES
----------------------
   0 C :   -0.418860
   1 C :   -0.245587
   2 C :   -0.416855
   3 C :   -0.280706
   4 C :    0.005987
   5 O :   -0.637709
   6 H :    0.153159
   7 H :    0.153845
   8 H :    0.150080
   9 H :    0.153836
  10 H :    0.173382
  11 H :    0.152706
  12 H :    0.148459
  13 H :    0.162925
  14 H :    0.169756
  15 H :    0.155258
  16 H :    0.154656
  17 H :    0.265669

  Mayer bond orders larger than 0.100000
B(  0-C ,  1-C ) :   0.9032 B(  0-C ,  6-H ) :   0.9783 B(  0-C ,  7-H ) :   0.9830
B(  0-C ,  8-H ) :   0.9793 B(  1-C ,  2-C ) :   0.9149 B(  1-C ,  3-C ) :   0.9010
B(  1-C ,  9-H ) :   0.9653 B(  2-C , 10-H ) :   0.9631 B(  2-C , 11-H ) :   0.9852
B(  2-C , 12-H ) :   0.9759 B(  3-C ,  4-C ) :   0.9693 B(  3-C , 13-H ) :   0.9660
B(  3-C , 14-H ) :   0.9603 B(  4-C ,  5-O ) :   0.9418 B(  4-C , 15-H ) :   0.9639
B(  4-C , 16-H ) :   0.9805 B(  5-O , 17-H ) :   0.9020

Dispersion correction           -0.004340954
FINAL SINGLE POINT ENERGY      -272.896429094463

DIPOLE MOMENT
-------------

Method             : SCF
Type of density    : Electron Density
Multiplicity       :   1
Irrep              :   0
Energy             :  -272.9020109525243925 Eh
Relativity type    :
Basis              : AO
                                X                 Y                 Z
Electronic contribution:     -4.285365386       1.594277149       0.482650076
Nuclear contribution   :      3.810824082      -1.979275275      -0.384844498
                        -----------------------------------------
Total Dipole Moment    :     -0.474541304      -0.384998126       0.097805579
                        -----------------------------------------
Magnitude (a.u.)       :      0.618852921
Magnitude (Debye)      :      1.572999116

Rotational constants in cm-1:             0.206565             0.070534             0.057200
Rotational constants in MHz :          6192.672897          2114.545805          1714.806006

                             ****ORCA TERMINATED NORMALLY****
TOTAL RUN TIME: 0 days 0 hours 0 minutes 24 seconds 188 msec
