                         Program Version 6.0.0  -   RELEASE  -
|  1> ! r2scan-3c def2/J RI DEFGRID2 scfconv6 printgap
|  2> %output
|  3>     printlevel normal
|  4> end
|  5> %cpcm
|  6>     smd true
|  7>     smdsolvent "water"
|  8> end
|  9> * xyz 0 1
| 10> C 2.0885795469 -1.068716901 -0.4654438201
| 11> C 0.8700241128 -0.4464238681 0.2152827941
| 12> C 1.194264618 0.9736708088 0.671929302
| 13> C -0.3318002031 -0.4696910595 -0.7373321644
| 14> C -1.6831852314 -0.2655951654 -0.0531104305
| 15> O -1.8626887411 1.0924745264 0.3029130998
| 16> H 2.9481777473 -1.040840738 0.1998060152
| 17> H 2.336706913 -0.5179752209 -1.3701529249
| 18> H 1.8952566512 -2.1046374096 -0.7344328063
| 19> H 0.6209952174 -1.0491834229 1.0965355948
| 20> H 0.3140279857 1.4482011821 1.0949655364
| 21> H 1.5287603658 1.5713073607 -0.1734810043
| 22> H 1.9830389697 0.9628720093 1.4206952324
| 23> H -0.3662586458 -1.4382126066 -1.2395261538
| 24> H -0.2100018497 0.3057188509 -1.4954002833
| 25> H -2.4783890562 -0.5707179468 -0.7475271561
| 26> H -1.7415142884 -0.9012469754 0.8416341383
| 27> H -2.7393311992 1.2076999379 0.6918817231
| 28> *
| 29>
| 30>                          ****END OF INPUT****

CARTESIAN COORDINATES (ANGSTROEM)
---------------------------------
  C      2.088580   -1.068717   -0.465444
  C      0.870024   -0.446424    0.215283
  C      1.194265    0.973671    0.671929
  C     -0.331800   -0.469691   -0.737332
  C     -1.683185   -0.265595   -0.053110
  O     -1.862689    1.092475    0.302913
  H      2.948178   -1.040841    0.199806
  H      2.336707   -0.517975   -1.370153
  H      1.895257   -2.104637   -0.734433
  H      0.620995   -1.049183    1.096536
  H      0.314028    1.448201    1.094966
  H      1.528760    1.571307   -0.173481
  H      1.983039    0.962872    1.420695
  H     -0.366259   -1.438213   -1.239526
  H     -0.210002    0.305719   -1.495400
  H     -2.478389   -0.570718   -0.747527
  H     -1.741514   -0.901247    0.841634
  H     -2.739331    1.207700    0.691882

 Total Charge           Charge          ....    0
 Multiplicity           Mult            ....    1
 Number of Electrons    NEL             ....   50
 Basis Dimension        Dim             ....  179

ORBITAL ENERGIES
----------------

  NO   OCC          E(Eh)            E(eV)
   0   2.0000     -18.947297      -515.5822
   1   2.0000     -10.066918      -273.9348
   2   2.0000     -10.023906      -272.7643
   3   2.0000     -10.015839      -272.5448
   4   2.0000     -10.005473      -272.2628
   5   2.0000     -10.002135      -272.1719
   6   2.0000      -0.982961       -26.7477
   7   2.0000      -0.767704       -20.8903
   8   2.0000      -0.687099       -18.6969
   9   2.0000      -0.640054       -17.4168
  10   2.0000      -0.577637       -15.7183
  11   2.0000      -0.517930       -14.0936
  12   2.0000      -0.481110       -13.0917
  13   2.0000      -0.424425       -11.5492
  14   2.0000      -0.415707       -11.3120
  15   2.0000      -0.387025       -10.5315
  16   2.0000      -0.373919       -10.1748
  17   2.0000      -0.352186        -9.5835
  18   2.0000      -0.343819        -9.3558
  19   2.0000      -0.322561        -8.7773
  20   2.0000      -0.316757        -8.6194
  21   2.0000      -0.287111        -7.8127
  22   2.0000      -0.282638        -7.6910
  23   2.0000      -0.272653        -7.4193
  24   2.0000      -0.233492        -6.3536
  25   0.0000       0.076690         2.0869
  26   0.0000       0.106019         2.8849
  27   0.0000       0.122289         3.3277
  28   0.0000       0.130776         3.5586
  29   0.0000       0.138870         3.7789

MULLIKEN ATOMIC CHARGES
-----------------------
   0 C :   -0.520897
   1 C :   -0.006066
   2 C :   -0.566803
   3 C :   -0.259562
   4 C :   -0.179098
   5 O :   -0.503022
   6 H :    0.156344
   7 H :    0.156745
   8 H :    0.157135
   9 H :    0.150440
  10 H :    0.169759
  11 H :    0.159446
  12 H :    0.154566
  13 H :    0.157390
  14 H :    0.154193
  15 H :    0.138349
  16 H :    0.137967
  17 H :    0.343115
Sum of atomic charges:    0.0000000

LOEWDIN ATOMIC CHARGES
----------------------
   0 C :   -0.426549
   1 C :   -0.243951
   2 C :   -0.427702
   3 C :   -0.284511
   4 C :    0.007988
   5 O :   -0.669781
   6 H :    0.155031
   7 H :    0.156101
   8 H :    0.154533
   9 H :    0.158002
  10 H :    0.165997
  11 H :    0.155572
  12 H :    0.152530
  13 H :    0.169497
  14 H :    0.168504
  15 H :    0.162803
  16 H :    0.162449
  17 H :    0.283489

  Mayer bond orders larger than 0.100000
B(  0-C ,  1-C ) :   0.8954 B(  0-C ,  6-H ) :   0.9760 B(  0-C ,  7-H ) :   0.9818
B(  0-C ,  8-H ) :   0.9758 B(  1-C ,  2-C ) :   0.8941 B(  1-C ,  3-C ) :   0.8876
B(  1-C ,  9-H ) :   0.9636 B(  2-C , 10-H ) :   0.9686 B(  2-C , 11-H ) :   0.9846
B(  2-C , 12-H ) :   0.9730 B(  3-C ,  4-C ) :   0.9488 B(  3-C , 13-H ) :   0.9626
B(  3-C , 14-H ) :   0.9650 B(  4-C ,  5-O ) :   0.9269 B(  4-C , 15-H ) :   0.9654
B(  4-C , 16-H ) :   0.9813 B(  5-O , 17-H ) :   0.8762

Dispersion correction           -0.004340954
FINAL SINGLE POINT ENERGY      -272.901212407552

DIPOLE MOMENT
-------------

Method             : SCF
Type of density    : Electron Density
Multiplicity       :   1
Irrep              :   0
Energy             :  -272.9067942656129730 Eh
Relativity type    :
Basis              : AO
                                X                 Y                 Z
Electronic contribution:     -4.419155527       1.353417559       0.507839664
Nuclear contribution   :      3.810824082      -1.979275275      -0.384844498
                        -----------------------------------------
Total Dipole Moment    :     -0.608331445      -0.625857716       0.122995166
                        -----------------------------------------
Magnitude (a.u.)       :      0.881415248
Magnitude (Debye)      :      2.240379514

Rotational constants in cm-1:             0.206565             0.070534             0.057200
Rotational constants in MHz :          6192.672897          2114.545805          1714.806006

                             ****ORCA TERMINATED NORMALLY****
TOTAL RUN TIME: 0 days 0 hours 0 minutes 27 seconds 417 msec
