                         Program Version 6.0.0  -   RELEASE  -
|  1> ! r2scan-3c def2/J RI DEFGRID2 scfconv6 printgap
|  2> %output
|  3>     printlevel normal
|  4> end
|  5> * xyz 0 1
|  6> C -2.95324167 0.2904614638 0.8372352369
|  7> C -2.3416654369 0.2044147683 -0.5567437494
|  8> C -1.132004162 -0.729652138 -0.6307832865
|  9> C 0.0803134555 -0.2569912645 0.1688637903
| 10> C 1.2572997214 -1.2475758305 0.0833319816
| 11> C 2.5440080774 -0.4013702263 0.092418349
| 12> C 2.0837175968 1.0478914787 0.2791989877
| 13> C 0.6803652257 1.0645539179 -0.317331993
| 14> H -3.2067100661 -0.7022874798 1.2025665031
| 15> H -2.2634376097 0.7506013918 1.5397949745
| 16> H -3.8603197353 0.8898430325 0.8135632568
| 17> H -3.1008257485 -0.1656509983 -1.2500761489
| 18> H -2.0520720805 1.2022441368 -0.8899962853
| 19> H -1.4263948743 -1.7182575212 -0.2688099712
| 20> H -0.8381691226 -0.8354909979 -1.6786055203
| 21> H -0.2048505081 -0.1428645927 1.218324347
| 22> H 1.2335033139 -1.9533423162 0.9127700335
| 23> H 1.1901285175 -1.8239282542 -0.8400586925
| 24> H 3.2272996626 -0.7084818077 0.8829942378
| 25> H 3.0684264647 -0.5045334843 -0.8577484539
| 26> H 2.0309664296 1.2912793181 1.3417992263
| 27> H 2.7536018223 1.7599175526 -0.2007735357
| 28> H 0.1057450898 1.9317355755 0.0039308079
| 29> H 0.7357858785 1.066080136 -1.4075891377
| 30> *
| 31>
| 32>                          ****END OF INPUT****

CARTESIAN COORDINATES (ANGSTROEM)
---------------------------------
  C     -2.953242    0.290461    0.837235
  C     -2.341665    0.204415   -0.556744
  C     -1.132004   -0.729652   -0.630783
  C      0.080313   -0.256991    0.168864
  C      1.257300   -1.247576    0.083332
  C      2.544008   -0.401370    0.092418
  C      2.083718    1.047891    0.279199
  C      0.680365    1.064554   -0.317332
  H     -3.206710   -0.702287    1.202567
  H     -2.263438    0.750601    1.539795
  H     -3.860320    0.889843    0.813563
  H     -3.100826   -0.165651   -1.250076
  H     -2.052072    1.202244   -0.889996
  H     -1.426395   -1.718258   -0.268810
  H     -0.838169   -0.835491   -1.678606
  H     -0.204851   -0.142865    1.218324
  H      1.233503   -1.953342    0.912770
  H      1.190129   -1.823928   -0.840059
  H      3.227300   -0.708482    0.882994
  H      3.068426   -0.504533   -0.857748
  H      2.030966    1.291279    1.341799
  H      2.753602    1.759918   -0.200774
  H      0.105745    1.931736    0.003931
  H      0.735786    1.066080   -1.407589

 Total Charge           Charge          ....    0
 Multiplicity           Mult            ....    1
 Number of Electrons    NEL             ....   64
 Basis Dimension        Dim             ....  232

ORBITAL ENERGIES
----------------

  NO   OCC          E(Eh)            E(eV)
   0   2.0000     -10.023495      -272.7532
   1   2.0000     -10.020429      -272.6697
   2   2.0000     -10.018156      -272.6079
   3   2.0000     -10.018151      -272.6077
   4   2.0000     -10.017348      -272.5859
   5   2.0000     -10.016839      -272.5720
   6   2.0000     -10.015840      -272.5449
   7   2.0000     -10.013089      -272.4700
   8   2.0000      -0.804871       -21.9017
   9   2.0000      -0.748963       -20.3803
  10   2.0000      -0.685426       -18.6514
  11   2.0000      -0.670724       -18.2513
  12   2.0000      -0.622485       -16.9387
  13   2.0000      -0.554143       -15.0790
  14   2.0000      -0.527120       -14.3437
  15   2.0000      -0.511956       -13.9310
  16   2.0000      -0.450397       -12.2559
  17   2.0000      -0.434871       -11.8335
  18   2.0000      -0.416268       -11.3272
  19   2.0000      -0.399893       -10.8817
  20   2.0000      -0.380741       -10.3605
  21   2.0000      -0.371566       -10.1108
  22   2.0000      -0.361119        -9.8265
  23   2.0000      -0.328664        -8.9434
  24   2.0000      -0.313241        -8.5237
  25   2.0000      -0.305598        -8.3158
  26   2.0000      -0.300757        -8.1840
  27   2.0000      -0.298486        -8.1222
  28   2.0000      -0.285620        -7.7721
  29   2.0000      -0.276643        -7.5279
  30   2.0000      -0.275329        -7.4921
  31   2.0000      -0.270131        -7.3506
  32   0.0000       0.080182         2.1819
  33   0.0000       0.094939         2.5834
  34   0.0000       0.104315         2.8386
  35   0.0000       0.116395         3.1673
  36   0.0000       0.125228         3.4076

MULLIKEN ATOMIC CHARGES
-----------------------
   0 C :   -0.498459
   1 C :   -0.225961
   2 C :   -0.305867
   3 C :   -0.022651
   4 C :   -0.415907
   5 C :   -0.282638
   6 C :   -0.293589
   7 C :   -0.361288
   8 H :    0.145112
   9 H :    0.149955
  10 H :    0.146238
  11 H :    0.141771
  12 H :    0.142203
  13 H :    0.147145
  14 H :    0.144864
  15 H :    0.160715
  16 H :    0.154435
  17 H :    0.161379
  18 H :    0.148071
  19 H :    0.148950
  20 H :    0.146659
  21 H :    0.151315
  22 H :    0.156149
  23 H :    0.161399
Sum of atomic charges:    0.0000000

LOEWDIN ATOMIC CHARGES
----------------------
   0 C :   -0.427080
   1 C :   -0.314739
   2 C :   -0.302395
   3 C :   -0.227560
   4 C :   -0.299195
   5 C :   -0.305352
   6 C :   -0.303170
   7 C :   -0.300198
   8 H :    0.150219
   9 H :    0.147902
  10 H :    0.150217
  11 H :    0.151137
  12 H :    0.152895
  13 H :    0.157422
  14 H :    0.157111
  15 H :    0.160153
  16 H :    0.157675
  17 H :    0.159158
  18 H :    0.155216
  19 H :    0.154719
  20 H :    0.154518
  21 H :    0.154803
  22 H :    0.157756
  23 H :    0.158788

  Mayer bond orders larger than 0.100000
B(  0-C ,  1-C ) :   0.8906 B(  0-C ,  8-H ) :   0.9811 B(  0-C ,  9-H ) :   0.9841
B(  0-C , 10-H ) :   0.9708 B(  1-C ,  2-C ) :   0.8882 B(  1-C , 11-H ) :   0.9685
B(  1-C , 12-H ) :   0.9815 B(  2-C ,  3-C ) :   0.8909 B(  2-C , 13-H ) :   0.9922
B(  2-C , 14-H ) :   0.9860 B(  3-C ,  4-C ) :   0.9206 B(  3-C ,  7-C ) :   0.8728
B(  3-C , 15-H ) :   0.9493 B(  4-C ,  5-C ) :   0.9157 B(  4-C , 16-H ) :   0.9692
B(  4-C , 17-H ) :   1.0154 B(  5-C ,  6-C ) :   0.9214 B(  5-C , 18-H ) :   0.9692
B(  5-C , 19-H ) :   0.9849 B(  6-C ,  7-C ) :   0.8844 B(  6-C , 20-H ) :   0.9880
B(  6-C , 21-H ) :   0.9590 B(  7-C , 22-H ) :   0.9535 B(  7-C , 23-H ) :   1.0098

Dispersion correction           -0.007026317
FINAL SINGLE POINT ENERGY      -314.382261449497

DIPOLE MOMENT
-------------

Method             : SCF
Type of density    : Electron Density
Multiplicity       :   1
Irrep              :   0
Energy             :  -314.3854429396456567 Eh
Relativity type    :
Basis              : AO
                                X                 Y                 Z
Electronic contribution:      2.430190637      -0.307169277      -0.489055119
Nuclear contribution   :     -2.446093664       0.316033064       0.489801452
                        -----------------------------------------
Total Dipole Moment    :     -0.015903027       0.008863787       0.000746334
                        -----------------------------------------
Magnitude (a.u.)       :      0.018221690
Magnitude (Debye)      :      0.046315855

Rotational constants in cm-1:             0.142112             0.036626             0.033401
Rotational constants in MHz :          4260.419419          1098.033045          1001.337754

                             ****ORCA TERMINATED NORMALLY****
TOTAL RUN TIME: 0 days 0 hours 0 minutes 25 seconds 500 msec
