                         Program Version 6.0.0  -   RELEASE  -
|  1> ! r2scan-3c def2/J RI DEFGRID2 scfconv6 printgap
|  2> %output
|  3>     printlevel normal
|  4> end
|  5> %cpcm
|  6>     smd true
|  7>     smdsolvent "water"
|  8> end
|  9> * xyz 0 1
| 10> C -2.95324167 0.2904614638 0.8372352369
| 11> C -2.3416654369 0.2044147683 -0.5567437494
| 12> C -1.132004162 -0.729652138 -0.6307832865
| 13> C 0.0803134555 -0.2569912645 0.1688637903
| 14> C 1.2572997214 -1.2475758305 0.0833319816
| 15> C 2.5440080774 -0.4013702263 0.092418349
| 16> C 2.0837175968 1.0478914787 0.2791989877
| 17> C 0.6803652257 1.0645539179 -0.317331993
| 18> H -3.2067100661 -0.7022874798 1.2025665031
| 19> H -2.2634376097 0.7506013918 1.5397949745
| 20> H -3.8603197353 0.8898430325 0.8135632568
| 21> H -3.1008257485 -0.1656509983 -1.2500761489
| 22> H -2.0520720805 1.2022441368 -0.8899962853
| 23> H -1.4263948743 -1.7182575212 -0.2688099712
| 24> H -0.8381691226 -0.8354909979 -1.6786055203
| 25> H -0.2048505081 -0.1428645927 1.218324347
| 26> H 1.2335033139 -1.9533423162 0.9127700335
| 27> H 1.1901285175 -1.8239282542 -0.8400586925
| 28> H 3.2272996626 -0.7084818077 0.8829942378
| 29> H 3.0684264647 -0.5045334843 -0.8577484539
| 30> H 2.0309664296 1.2912793181 1.3417992263
| 31> H 2.7536018223 1.7599175526 -0.2007735357
| 32> H 0.1057450898 1.9317355755 0.0039308079
| 33> H 0.7357858785 1.066080136 -1.4075891377
| 34> *
| 35>
| 36>                          ****END OF INPUT****

CARTESIAN COORDINATES (ANGSTROEM)
---------------------------------
  C     -2.953242    0.290461    0.837235
  C     -2.341665    0.204415   -0.556744
  C     -1.132004   -0.729652   -0.630783
  C      0.080313   -0.256991    0.168864
  C      1.257300   -1.247576    0.083332
  C      2.544008   -0.401370    0.092418
  C      2.083718    1.047891    0.279199
  C      0.680365    1.064554   -0.317332
  H     -3.206710   -0.702287    1.202567
  H     -2.263438    0.750601    1.539795
  H     -3.860320    0.889843    0.813563
  H     -3.100826   -0.165651   -1.250076
  H     -2.052072    1.202244   -0.889996
  H     -1.426395   -1.718258   -0.268810
  H     -0.838169   -0.835491   -1.678606
  H     -0.204851   -0.142865    1.218324
  H      1.233503   -1.953342    0.912770
  H      1.190129   -1.823928   -0.840059
  H      3.227300   -0.708482    0.882994
  H      3.068426   -0.504533   -0.857748
  H      2.030966    1.291279    1.341799
  H      2.753602    1.759918   -0.200774
  H      0.105745    1.931736    0.003931
  H      0.735786    1.066080   -1.407589

 Total Charge           Charge          ....    0
 Multiplicity           Mult            ....    1
 Number of Electrons    NEL             ....   64
 Basis Dimension        Dim             ....  232

ORBITAL ENERGIES
----------------

  NO   OCC          E(Eh)            E(eV)
   0   2.0000     -10.016109      -272.5522
   1   2.0000     -10.013836      -272.4903
   2   2.0000     -10.011443      -272.4252
   3   2.0000     -10.011025      -272.4138
   4   2.0000     -10.010943      -272.4116
   5   2.0000     -10.009329      -272.3677
   6   2.0000     -10.009177      -272.3635
   7   2.0000     -10.006123      -272.2805
   8   2.0000      -0.798017       -21.7151
   9   2.0000      -0.742433       -20.2026
  10   2.0000      -0.678903       -18.4739
  11   2.0000      -0.664226       -18.0745
  12   2.0000      -0.616021       -16.7628
  13   2.0000      -0.547689       -14.9034
  14   2.0000      -0.520816       -14.1721
  15   2.0000      -0.505012       -13.7421
  16   2.0000      -0.443555       -12.0697
  17   2.0000      -0.428260       -11.6535
  18   2.0000      -0.409389       -11.1400
  19   2.0000      -0.393325       -10.7029
  20   2.0000      -0.373708       -10.1691
  21   2.0000      -0.364820        -9.9273
  22   2.0000      -0.354352        -9.6424
  23   2.0000      -0.321961        -8.7610
  24   2.0000      -0.306396        -8.3375
  25   2.0000      -0.298831        -8.1316
  26   2.0000      -0.294586        -8.0161
  27   2.0000      -0.291844        -7.9415
  28   2.0000      -0.278407        -7.5758
  29   2.0000      -0.269659        -7.3378
  30   2.0000      -0.268425        -7.3042
  31   2.0000      -0.263124        -7.1600
  32   0.0000       0.088131         2.3982
  33   0.0000       0.102248         2.7823
  34   0.0000       0.111272         3.0279
  35   0.0000       0.122476         3.3327
  36   0.0000       0.130207         3.5431

MULLIKEN ATOMIC CHARGES
-----------------------
   0 C :   -0.534800
   1 C :   -0.239192
   2 C :   -0.323635
   3 C :   -0.016706
   4 C :   -0.433536
   5 C :   -0.298814
   6 C :   -0.314908
   7 C :   -0.378417
   8 H :    0.155412
   9 H :    0.161708
  10 H :    0.155599
  11 H :    0.149156
  12 H :    0.148701
  13 H :    0.153549
  14 H :    0.153830
  15 H :    0.169848
  16 H :    0.162668
  17 H :    0.167345
  18 H :    0.155819
  19 H :    0.157364
  20 H :    0.156035
  21 H :    0.158536
  22 H :    0.165057
  23 H :    0.169380
Sum of atomic charges:    0.0000000

LOEWDIN ATOMIC CHARGES
----------------------
   0 C :   -0.435321
   1 C :   -0.317652
   2 C :   -0.305710
   3 C :   -0.226763
   4 C :   -0.303507
   5 C :   -0.309956
   6 C :   -0.307838
   7 C :   -0.303182
   8 H :    0.152601
   9 H :    0.151067
  10 H :    0.152097
  11 H :    0.152612
  12 H :    0.154303
  13 H :    0.158691
  14 H :    0.159111
  15 H :    0.162817
  16 H :    0.159231
  17 H :    0.160415
  18 H :    0.156732
  19 H :    0.156642
  20 H :    0.156617
  21 H :    0.156269
  22 H :    0.159933
  23 H :    0.160791

  Mayer bond orders larger than 0.100000
B(  0-C ,  1-C ) :   0.8844 B(  0-C ,  8-H ) :   0.9785 B(  0-C ,  9-H ) :   0.9805
B(  0-C , 10-H ) :   0.9687 B(  1-C ,  2-C ) :   0.8852 B(  1-C , 11-H ) :   0.9689
B(  1-C , 12-H ) :   0.9816 B(  2-C ,  3-C ) :   0.8883 B(  2-C , 13-H ) :   0.9904
B(  2-C , 14-H ) :   0.9849 B(  3-C ,  4-C ) :   0.9179 B(  3-C ,  7-C ) :   0.8708
B(  3-C , 15-H ) :   0.9484 B(  4-C ,  5-C ) :   0.9123 B(  4-C , 16-H ) :   0.9683
B(  4-C , 17-H ) :   1.0133 B(  5-C ,  6-C ) :   0.9157 B(  5-C , 18-H ) :   0.9681
B(  5-C , 19-H ) :   0.9835 B(  6-C ,  7-C ) :   0.8826 B(  6-C , 20-H ) :   0.9871
B(  6-C , 21-H ) :   0.9574 B(  7-C , 22-H ) :   0.9522 B(  7-C , 23-H ) :   1.0077

Dispersion correction           -0.007026317
FINAL SINGLE POINT ENERGY      -314.379547900926

DIPOLE MOMENT
-------------

Method             : SCF
Type of density    : Electron Density
Multiplicity       :   1
Irrep              :   0
Energy             :  -314.3827293910744061 Eh
Relativity type    :
Basis              : AO
                                X                 Y                 Z
Electronic contribution:      2.417910177      -0.298746090      -0.483663760
Nuclear contribution   :     -2.446093664       0.316033064       0.489801452
                        -----------------------------------------
Total Dipole Moment    :     -0.028183487       0.017286974       0.006137692
                        -----------------------------------------
Magnitude (a.u.)       :      0.033627662
Magnitude (Debye)      :      0.085474725

Rotational constants in cm-1:             0.142112             0.036626             0.033401
Rotational constants in MHz :          4260.419419          1098.033045          1001.337754

                             ****ORCA TERMINATED NORMALLY****
TOTAL RUN TIME: 0 days 0 hours 0 minutes 30 seconds 561 msec
