                         Program Version 6.0.0  -   RELEASE  -
|  1> ! r2scan-3c def2/J RI DEFGRID2 scfconv6 printgap
|  2> %output
|  3>     printlevel normal
|  4> end
|  5> %cpcm
|  6>     smd true
|  7>     smdsolvent "water"
|  8> end
|  9> * xyz 0 1
| 10> C 2.1360525829 -0.6145326663 -0.8749692174
| 11> C 1.2155665077 -0.1685792117 0.2609723172
| 12> H 0.9096178825 -1.0546913012 0.8397491542
| 13> C -0.0338336655 0.5601725476 -0.2631486329
| 14> C -1.3588416008 -0.0464122681 0.2090676046
| 15> C -2.5080598831 0.9139025976 -0.0919133373
| 16> C -1.6177354731 -1.3938163912 -0.4621564798
| 17> O 1.8817827028 0.7298274072 1.1394588443
| 18> H 1.5974158679 -1.2763067608 -1.5465678748
| 19> H 2.4805107427 0.2544194746 -1.4307271979
| 20> H 3.001568804 -1.1461000391 -0.4846288302
| 21> H 0.0356600683 1.5903316725 0.0921237252
| 22> H -0.0206636371 0.5824118344 -1.3535151058
| 23> H -1.3043818504 -0.1936148522 1.2935904726
| 24> H -2.3590423171 1.8627183745 0.4177459367
| 25> H -3.4536623979 0.4908782189 0.2383660367
| 26> H -2.570687269 1.1036423677 -1.1611441486
| 27> H -0.8109171939 -2.0940015964 -0.2613903912
| 28> H -2.5449281848 -1.8271844897 -0.0948448942
| 29> H -1.7016508122 -1.2654932526 -1.5391984388
| 30> H 2.691809741 0.3166018242 1.4668367718
| 31> *
| 32>
| 33>                          ****END OF INPUT****

CARTESIAN COORDINATES (ANGSTROEM)
---------------------------------
  C      2.136053   -0.614533   -0.874969
  C      1.215567   -0.168579    0.260972
  H      0.909618   -1.054691    0.839749
  C     -0.033834    0.560173   -0.263149
  C     -1.358842   -0.046412    0.209068
  C     -2.508060    0.913903   -0.091913
  C     -1.617735   -1.393816   -0.462156
  O      1.881783    0.729827    1.139459
  H      1.597416   -1.276307   -1.546568
  H      2.480511    0.254419   -1.430727
  H      3.001569   -1.146100   -0.484629
  H      0.035660    1.590332    0.092124
  H     -0.020664    0.582412   -1.353515
  H     -1.304382   -0.193615    1.293590
  H     -2.359042    1.862718    0.417746
  H     -3.453662    0.490878    0.238366
  H     -2.570687    1.103642   -1.161144
  H     -0.810917   -2.094002   -0.261390
  H     -2.544928   -1.827184   -0.094845
  H     -1.701651   -1.265493   -1.539198
  H      2.691810    0.316602    1.466837

 Total Charge           Charge          ....    0
 Multiplicity           Mult            ....    1
 Number of Electrons    NEL             ....   58
 Basis Dimension        Dim             ....  208

ORBITAL ENERGIES
----------------

  NO   OCC          E(Eh)            E(eV)
   0   2.0000     -18.947012      -515.5744
   1   2.0000     -10.074382      -274.1379
   2   2.0000     -10.025681      -272.8127
   3   2.0000     -10.012820      -272.4627
   4   2.0000     -10.009312      -272.3672
   5   2.0000     -10.006111      -272.2801
   6   2.0000     -10.005937      -272.2754
   7   2.0000      -0.983398       -26.7596
   8   2.0000      -0.771220       -20.9859
   9   2.0000      -0.712826       -19.3970
  10   2.0000      -0.643915       -17.5218
  11   2.0000      -0.640728       -17.4351
  12   2.0000      -0.557080       -15.1589
  13   2.0000      -0.520196       -14.1553
  14   2.0000      -0.472987       -12.8706
  15   2.0000      -0.421650       -11.4737
  16   2.0000      -0.413402       -11.2492
  17   2.0000      -0.398502       -10.8438
  18   2.0000      -0.381241       -10.3741
  19   2.0000      -0.360290        -9.8040
  20   2.0000      -0.346973        -9.4416
  21   2.0000      -0.343610        -9.3501
  22   2.0000      -0.337097        -9.1729
  23   2.0000      -0.318568        -8.6687
  24   2.0000      -0.304305        -8.2806
  25   2.0000      -0.286424        -7.7940
  26   2.0000      -0.284088        -7.7304
  27   2.0000      -0.270298        -7.3552
  28   2.0000      -0.236298        -6.4300
  29   0.0000       0.077849         2.1184
  30   0.0000       0.096286         2.6201
  31   0.0000       0.116626         3.1736
  32   0.0000       0.120055         3.2669
  33   0.0000       0.136046         3.7020

MULLIKEN ATOMIC CHARGES
-----------------------
   0 C :   -0.542573
   1 C :    0.059680
   2 H :    0.145307
   3 C :   -0.304270
   4 C :   -0.025083
   5 C :   -0.525530
   6 C :   -0.546223
   7 O :   -0.519003
   8 H :    0.164695
   9 H :    0.164898
  10 H :    0.160121
  11 H :    0.159882
  12 H :    0.166714
  13 H :    0.151861
  14 H :    0.157435
  15 H :    0.158154
  16 H :    0.157076
  17 H :    0.157967
  18 H :    0.157480
  19 H :    0.163641
  20 H :    0.337771
Sum of atomic charges:    0.0000000

LOEWDIN ATOMIC CHARGES
----------------------
   0 C :   -0.406124
   1 C :    0.051766
   2 H :    0.168716
   3 C :   -0.270650
   4 C :   -0.240722
   5 C :   -0.425524
   6 C :   -0.425512
   7 O :   -0.660103
   8 H :    0.163679
   9 H :    0.161484
  10 H :    0.157358
  11 H :    0.180094
  12 H :    0.167847
  13 H :    0.157843
  14 H :    0.155255
  15 H :    0.155218
  16 H :    0.156447
  17 H :    0.155649
  18 H :    0.155624
  19 H :    0.156391
  20 H :    0.285263

  Mayer bond orders larger than 0.100000
B(  0-C ,  1-C ) :   0.9145 B(  0-C ,  8-H ) :   0.9654 B(  0-C ,  9-H ) :   0.9787
B(  0-C , 10-H ) :   0.9689 B(  1-C ,  2-H ) :   0.9702 B(  1-C ,  3-C ) :   0.8704
B(  1-C ,  7-O ) :   0.8930 B(  3-C ,  4-C ) :   0.8959 B(  3-C , 11-H ) :   0.9642
B(  3-C , 12-H ) :   0.9788 B(  4-C ,  5-C ) :   0.8918 B(  4-C ,  6-C ) :   0.8979
B(  4-C , 13-H ) :   0.9585 B(  5-C , 14-H ) :   0.9770 B(  5-C , 15-H ) :   0.9743
B(  5-C , 16-H ) :   0.9809 B(  6-C , 17-H ) :   0.9664 B(  6-C , 18-H ) :   0.9697
B(  6-C , 19-H ) :   0.9866 B(  7-O , 20-H ) :   0.8781

Dispersion correction           -0.005494843
FINAL SINGLE POINT ENERGY      -312.205297365946

DIPOLE MOMENT
-------------

Method             : SCF
Type of density    : Electron Density
Multiplicity       :   1
Irrep              :   0
Energy             :  -312.2109005071916954 Eh
Relativity type    :
Basis              : AO
                                X                 Y                 Z
Electronic contribution:      4.015307075       1.699209393       3.093048460
Nuclear contribution   :     -3.771025969      -2.481295678      -3.288807112
                        -----------------------------------------
Total Dipole Moment    :      0.244281106      -0.782086285      -0.195758652
                        -----------------------------------------
Magnitude (a.u.)       :      0.842409441
Magnitude (Debye)      :      2.141234631

Rotational constants in cm-1:             0.140476             0.047783             0.040875
Rotational constants in MHz :          4211.377999          1432.500459          1225.406126

                             ****ORCA TERMINATED NORMALLY****
TOTAL RUN TIME: 0 days 0 hours 0 minutes 36 seconds 785 msec
