                         Program Version 6.0.0  -   RELEASE  -
|  1> ! pbe def2-sv(p) def2/J RI DEFGRID1 loosescf d4 GCP(DFT/SV(P)) printgap
|  2> %output
|  3>     printlevel normal
|  4> end
|  5> * xyz 0 1
|  6> C 1.619682321 -0.1414012925 1.7789176083
|  7> C 2.0610916235 -0.3023026133 0.3560131861
|  8> C 3.016594702 -1.1606797835 0.0296395198
|  9> C 1.4065373785 0.5365085993 -0.7256013094
| 10> H 2.2072076714 0.9032391945 -1.3766652003
| 11> C 0.4690212943 -0.3292599958 -1.5832578773
| 12> C -0.6897586816 -0.8633216903 -0.7496953548
| 13> C -1.3697285192 0.2472137053 -0.0029703702
| 14> C -0.7552697429 1.4164678969 0.2416205118
| 15> C 0.62110307 1.7449541287 -0.2070638089
| 16> C -2.7252144382 0.0297080898 0.459722208
| 17> O -3.3851836752 -0.9786991346 0.2778818167
| 18> H 1.9912964174 0.7986255079 2.18542411
| 19> H 0.5357743471 -0.1358677985 1.8615660022
| 20> H 2.0160187179 -0.9493890806 2.388500633
| 21> H 3.3626482131 -1.2720590591 -0.9844242201
| 22> H 3.4926197785 -1.7901895646 0.7619542229
| 23> H 0.0749316718 0.2789988258 -2.3995699403
| 24> H 1.0236467265 -1.1623029045 -2.0147041891
| 25> H -1.4268586479 -1.3665433944 -1.3794834815
| 26> H -0.3251298474 -1.6053452081 -0.0332539385
| 27> H -1.2856681366 2.1960191009 0.7728438942
| 28> H 0.5278855479 2.4806558282 -1.0131841707
| 29> H 1.1609384939 2.2458256832 0.597835678
| 30> H -3.1638187868 0.8774871909 1.0206944173
| 31> *
| 32>
| 33>                          ****END OF INPUT****

CARTESIAN COORDINATES (ANGSTROEM)
---------------------------------
  C      1.619682   -0.141401    1.778918
  C      2.061092   -0.302303    0.356013
  C      3.016595   -1.160680    0.029640
  C      1.406537    0.536509   -0.725601
  H      2.207208    0.903239   -1.376665
  C      0.469021   -0.329260   -1.583258
  C     -0.689759   -0.863322   -0.749695
  C     -1.369729    0.247214   -0.002970
  C     -0.755270    1.416468    0.241621
  C      0.621103    1.744954   -0.207064
  C     -2.725214    0.029708    0.459722
  O     -3.385184   -0.978699    0.277882
  H      1.991296    0.798626    2.185424
  H      0.535774   -0.135868    1.861566
  H      2.016019   -0.949389    2.388501
  H      3.362648   -1.272059   -0.984424
  H      3.492620   -1.790190    0.761954
  H      0.074932    0.278999   -2.399570
  H      1.023647   -1.162303   -2.014704
  H     -1.426859   -1.366543   -1.379483
  H     -0.325130   -1.605345   -0.033254
  H     -1.285668    2.196019    0.772844
  H      0.527886    2.480656   -1.013184
  H      1.160938    2.245826    0.597836
  H     -3.163819    0.877487    1.020694

 Total Charge           Charge          ....    0
 Multiplicity           Mult            ....    1
 Number of Electrons    NEL             ....   82
 Basis Dimension        Dim             ....  182

ORBITAL ENERGIES
----------------

  NO   OCC          E(Eh)            E(eV)
   0   2.0000     -18.738842      -509.9098
   1   2.0000      -9.962348      -271.0893
   2   2.0000      -9.918595      -269.8987
   3   2.0000      -9.908688      -269.6291
   4   2.0000      -9.908479      -269.6234
   5   2.0000      -9.907912      -269.6080
   6   2.0000      -9.905785      -269.5501
   7   2.0000      -9.894177      -269.2343
   8   2.0000      -9.893012      -269.2025
   9   2.0000      -9.885563      -268.9998
  10   2.0000      -9.873116      -268.6611
  11   2.0000      -0.930565       -25.3220
  12   2.0000      -0.785642       -21.3784
  13   2.0000      -0.730338       -19.8735
  14   2.0000      -0.685673       -18.6581
  15   2.0000      -0.681379       -18.5413
  16   2.0000      -0.620891       -16.8953
  17   2.0000      -0.586567       -15.9613
  18   2.0000      -0.561487       -15.2788
  19   2.0000      -0.527269       -14.3477
  20   2.0000      -0.489264       -13.3135
  21   2.0000      -0.453720       -12.3464
  22   2.0000      -0.448065       -12.1925
  23   2.0000      -0.426277       -11.5996
  24   2.0000      -0.413484       -11.2515
  25   2.0000      -0.399060       -10.8590
  26   2.0000      -0.397227       -10.8091
  27   2.0000      -0.375594       -10.2204
  28   2.0000      -0.367125        -9.9900
  29   2.0000      -0.359611        -9.7855
  30   2.0000      -0.358657        -9.7596
  31   2.0000      -0.353673        -9.6239
  32   2.0000      -0.344150        -9.3648
  33   2.0000      -0.330231        -8.9861
  34   2.0000      -0.321250        -8.7417
  35   2.0000      -0.298060        -8.1106
  36   2.0000      -0.287345        -7.8191
  37   2.0000      -0.282877        -7.6975
  38   2.0000      -0.237883        -6.4731
  39   2.0000      -0.217973        -5.9314
  40   2.0000      -0.199448        -5.4273
  41   0.0000      -0.088505        -2.4083
  42   0.0000      -0.022235        -0.6051
  43   0.0000       0.019045         0.5182
  44   0.0000       0.028671         0.7802
  45   0.0000       0.050907         1.3852

MULLIKEN ATOMIC CHARGES
-----------------------
   0 C :   -0.221323
   1 C :   -0.068483
   2 C :   -0.234856
   3 C :   -0.137346
   4 H :    0.075360
   5 C :   -0.121553
   6 C :   -0.090732
   7 C :   -0.029335
   8 C :   -0.206362
   9 C :   -0.037514
  10 C :    0.027610
  11 O :   -0.170582
  12 H :    0.112006
  13 H :    0.124442
  14 H :    0.103009
  15 H :    0.087223
  16 H :    0.086156
  17 H :    0.087072
  18 H :    0.089228
  19 H :    0.102827
  20 H :    0.111850
  21 H :    0.069396
  22 H :    0.110919
  23 H :    0.100414
  24 H :    0.030575
Sum of atomic charges:    0.0000000

LOEWDIN ATOMIC CHARGES
----------------------
   0 C :   -0.328071
   1 C :   -0.050975
   2 C :   -0.262606
   3 C :   -0.132380
   4 H :    0.128304
   5 C :   -0.202531
   6 C :   -0.212144
   7 C :   -0.105135
   8 C :   -0.089202
   9 C :   -0.214849
  10 C :   -0.006182
  11 O :   -0.134211
  12 H :    0.130527
  13 H :    0.130344
  14 H :    0.128174
  15 H :    0.116543
  16 H :    0.118589
  17 H :    0.117391
  18 H :    0.120811
  19 H :    0.134444
  20 H :    0.136166
  21 H :    0.124906
  22 H :    0.142832
  23 H :    0.132354
  24 H :    0.076903

  Mayer bond orders larger than 0.100000
B(  0-C ,  1-C ) :   1.1471 B(  0-C , 12-H ) :   0.9169 B(  0-C , 13-H ) :   0.9184
B(  0-C , 14-H ) :   0.9335 B(  1-C ,  2-C ) :   2.0301 B(  1-C ,  3-C ) :   1.0027
B(  2-C , 15-H ) :   0.9117 B(  2-C , 16-H ) :   0.9080 B(  3-C ,  4-H ) :   0.8785
B(  3-C ,  5-C ) :   1.0575 B(  3-C ,  9-C ) :   1.0959 B(  5-C ,  6-C ) :   1.1231
B(  5-C , 17-H ) :   0.9219 B(  5-C , 18-H ) :   0.9134 B(  6-C ,  7-C ) :   1.0726
B(  6-C , 19-H ) :   0.8914 B(  6-C , 20-H ) :   0.8793 B(  7-C ,  8-C ) :   1.7389
B(  7-C , 10-C ) :   1.0183 B(  8-C ,  9-C ) :   1.0554 B(  8-C , 11-O ) :   0.1010
B(  8-C , 21-H ) :   0.9255 B(  9-C , 22-H ) :   0.8755 B(  9-C , 23-H ) :   0.8924
B( 10-C , 11-O ) :   2.1179 B( 10-C , 24-H ) :   0.9218

Dispersion correction           -0.028030975
FINAL SINGLE POINT ENERGY      -463.625760731531

DIPOLE MOMENT
-------------

Method             : SCF
Type of density    : Electron Density
Multiplicity       :   1
Irrep              :   0
Energy             :  -463.7009107401337360 Eh
Relativity type    :
Basis              : AO
                                X                 Y                 Z
Electronic contribution:     -8.528700415      -0.454933917      -0.403318528
Nuclear contribution   :      9.511145374       1.391949566       0.367691102
                        -----------------------------------------
Total Dipole Moment    :      0.982444959       0.937015649      -0.035627426
                        -----------------------------------------
Magnitude (a.u.)       :      1.358111092
Magnitude (Debye)      :      3.452044057

Rotational constants in cm-1:             0.065298             0.023956             0.023325
Rotational constants in MHz :          1957.582365           718.181055           699.268127

                             ****ORCA TERMINATED NORMALLY****
TOTAL RUN TIME: 0 days 0 hours 0 minutes 17 seconds 94 msec
