                         Program Version 6.0.0  -   RELEASE  -
|  1> ! r2scan-3c def2/J RI DEFGRID2 scfconv6 printgap
|  2> %output
|  3>     printlevel normal
|  4> end
|  5> * xyz 0 1
|  6> C -2.8505137115 0.1236323023 0.317158652
|  7> C -1.6561480334 0.622206401 -0.4963115116
|  8> C -0.4083733425 -0.1361134994 -0.1202252664
|  9> O -0.2909797666 -1.3427421686 -0.1709832443
| 10> O 0.5525130331 0.6803121728 0.2936276596
| 11> C 1.8184655688 0.1165312083 0.6769607103
| 12> C 2.7462169808 -0.0077990967 -0.5217653731
| 13> H -2.7091992254 0.3399464268 1.3730407629
| 14> H -3.7594793759 0.6109015054 -0.0215748996
| 15> H -2.9573850098 -0.9514547298 0.1958855751
| 16> H -1.4820132831 1.6844487504 -0.3326381497
| 17> H -1.8415311757 0.4434825795 -1.5567880055
| 18> H 2.2168635734 0.8111642958 1.4169910978
| 19> H 1.640307671 -0.8630546704 1.1307449519
| 20> H 2.331946668 -0.7093367938 -1.2424487426
| 21> H 2.8706243454 0.9596690924 -1.0004127303
| 22> H 3.7133889679 -0.3721086956 -0.1914510976
| 23> *
| 24>
| 25>                          ****END OF INPUT****

CARTESIAN COORDINATES (ANGSTROEM)
---------------------------------
  C     -2.850514    0.123632    0.317159
  C     -1.656148    0.622206   -0.496312
  C     -0.408373   -0.136113   -0.120225
  O     -0.290980   -1.342742   -0.170983
  O      0.552513    0.680312    0.293628
  C      1.818466    0.116531    0.676961
  C      2.746217   -0.007799   -0.521765
  H     -2.709199    0.339946    1.373041
  H     -3.759479    0.610902   -0.021575
  H     -2.957385   -0.951455    0.195886
  H     -1.482013    1.684449   -0.332638
  H     -1.841531    0.443483   -1.556788
  H      2.216864    0.811164    1.416991
  H      1.640308   -0.863055    1.130745
  H      2.331947   -0.709337   -1.242449
  H      2.870624    0.959669   -1.000413
  H      3.713389   -0.372109   -0.191451

 Total Charge           Charge          ....    0
 Multiplicity           Mult            ....    1
 Number of Electrons    NEL             ....   56
 Basis Dimension        Dim             ....  193

ORBITAL ENERGIES
----------------

  NO   OCC          E(Eh)            E(eV)
   0   2.0000     -18.996924      -516.9326
   1   2.0000     -18.927172      -515.0345
   2   2.0000     -10.151343      -276.2321
   3   2.0000     -10.090727      -274.5826
   4   2.0000     -10.042935      -273.2821
   5   2.0000     -10.029048      -272.9043
   6   2.0000     -10.027233      -272.8549
   7   2.0000      -1.071137       -29.1471
   8   2.0000      -0.975195       -26.5364
   9   2.0000      -0.763397       -20.7731
  10   2.0000      -0.730494       -19.8778
  11   2.0000      -0.644272       -17.5315
  12   2.0000      -0.594549       -16.1785
  13   2.0000      -0.522289       -14.2122
  14   2.0000      -0.472825       -12.8662
  15   2.0000      -0.453779       -12.3479
  16   2.0000      -0.433837       -11.8053
  17   2.0000      -0.416390       -11.3306
  18   2.0000      -0.410074       -11.1587
  19   2.0000      -0.378590       -10.3020
  20   2.0000      -0.364326        -9.9138
  21   2.0000      -0.355441        -9.6720
  22   2.0000      -0.333698        -9.0804
  23   2.0000      -0.333216        -9.0673
  24   2.0000      -0.318750        -8.6736
  25   2.0000      -0.305078        -8.3016
  26   2.0000      -0.270864        -7.3706
  27   2.0000      -0.235890        -6.4189
  28   0.0000      -0.014648        -0.3986
  29   0.0000       0.077145         2.0992
  30   0.0000       0.093992         2.5576
  31   0.0000       0.118468         3.2237
  32   0.0000       0.122705         3.3390

MULLIKEN ATOMIC CHARGES
-----------------------
   0 C :   -0.462121
   1 C :   -0.298415
   2 C :    0.408348
   3 O :   -0.438878
   4 O :   -0.178612
   5 C :   -0.139532
   6 C :   -0.465935
   7 H :    0.144649
   8 H :    0.150241
   9 H :    0.171834
  10 H :    0.162483
  11 H :    0.161028
  12 H :    0.147231
  13 H :    0.169389
  14 H :    0.170008
  15 H :    0.151648
  16 H :    0.146635
Sum of atomic charges:   -0.0000000

LOEWDIN ATOMIC CHARGES
----------------------
   0 C :   -0.395030
   1 C :   -0.237265
   2 C :    0.359634
   3 O :   -0.438203
   4 O :   -0.596830
   5 C :    0.026786
   6 C :   -0.389832
   7 H :    0.154719
   8 H :    0.151708
   9 H :    0.165320
  10 H :    0.174214
  11 H :    0.177648
  12 H :    0.177474
  13 H :    0.188952
  14 H :    0.164455
  15 H :    0.157087
  16 H :    0.159164

  Mayer bond orders larger than 0.100000
B(  0-C ,  1-C ) :   0.9020 B(  0-C ,  7-H ) :   0.9750 B(  0-C ,  8-H ) :   0.9735
B(  0-C ,  9-H ) :   0.9719 B(  1-C ,  2-C ) :   0.9569 B(  1-C , 10-H ) :   0.9850
B(  1-C , 11-H ) :   0.9484 B(  2-C ,  3-O ) :   1.8180 B(  2-C ,  4-O ) :   1.0654
B(  4-O ,  5-C ) :   0.8182 B(  5-C ,  6-C ) :   0.9401 B(  5-C , 12-H ) :   0.9612
B(  5-C , 13-H ) :   0.9662 B(  6-C , 14-H ) :   0.9714 B(  6-C , 15-H ) :   0.9736
B(  6-C , 16-H ) :   0.9652

Dispersion correction           -0.003950830
FINAL SINGLE POINT ENERGY      -346.936374365386

DIPOLE MOMENT
-------------

Method             : SCF
Type of density    : Electron Density
Multiplicity       :   1
Irrep              :   0
Energy             :  -346.9428660784160456 Eh
Relativity type    :
Basis              : AO
                                X                 Y                 Z
Electronic contribution:      0.210217741      -1.121128548       0.302274777
Nuclear contribution   :      0.025946186       1.823036343      -0.212694746
                        -----------------------------------------
Total Dipole Moment    :      0.236163928       0.701907796       0.089580031
                        -----------------------------------------
Magnitude (a.u.)       :      0.745970868
Magnitude (Debye)      :      1.896107261

Rotational constants in cm-1:             0.227207             0.046143             0.043212
Rotational constants in MHz :          6811.482413          1383.337431          1295.461670

                             ****ORCA TERMINATED NORMALLY****
TOTAL RUN TIME: 0 days 0 hours 0 minutes 23 seconds 67 msec
