                         Program Version 6.0.0  -   RELEASE  -
|  1> ! r2scan-3c def2/J RI DEFGRID2 scfconv6 printgap
|  2> %output
|  3>     printlevel normal
|  4> end
|  5> %cpcm
|  6>     smd true
|  7>     smdsolvent "water"
|  8> end
|  9> * xyz 0 1
| 10> C -2.8505137115 0.1236323023 0.317158652
| 11> C -1.6561480334 0.622206401 -0.4963115116
| 12> C -0.4083733425 -0.1361134994 -0.1202252664
| 13> O -0.2909797666 -1.3427421686 -0.1709832443
| 14> O 0.5525130331 0.6803121728 0.2936276596
| 15> C 1.8184655688 0.1165312083 0.6769607103
| 16> C 2.7462169808 -0.0077990967 -0.5217653731
| 17> H -2.7091992254 0.3399464268 1.3730407629
| 18> H -3.7594793759 0.6109015054 -0.0215748996
| 19> H -2.9573850098 -0.9514547298 0.1958855751
| 20> H -1.4820132831 1.6844487504 -0.3326381497
| 21> H -1.8415311757 0.4434825795 -1.5567880055
| 22> H 2.2168635734 0.8111642958 1.4169910978
| 23> H 1.640307671 -0.8630546704 1.1307449519
| 24> H 2.331946668 -0.7093367938 -1.2424487426
| 25> H 2.8706243454 0.9596690924 -1.0004127303
| 26> H 3.7133889679 -0.3721086956 -0.1914510976
| 27> *
| 28>
| 29>                          ****END OF INPUT****

CARTESIAN COORDINATES (ANGSTROEM)
---------------------------------
  C     -2.850514    0.123632    0.317159
  C     -1.656148    0.622206   -0.496312
  C     -0.408373   -0.136113   -0.120225
  O     -0.290980   -1.342742   -0.170983
  O      0.552513    0.680312    0.293628
  C      1.818466    0.116531    0.676961
  C      2.746217   -0.007799   -0.521765
  H     -2.709199    0.339946    1.373041
  H     -3.759479    0.610902   -0.021575
  H     -2.957385   -0.951455    0.195886
  H     -1.482013    1.684449   -0.332638
  H     -1.841531    0.443483   -1.556788
  H      2.216864    0.811164    1.416991
  H      1.640308   -0.863055    1.130745
  H      2.331947   -0.709337   -1.242449
  H      2.870624    0.959669   -1.000413
  H      3.713389   -0.372109   -0.191451

 Total Charge           Charge          ....    0
 Multiplicity           Mult            ....    1
 Number of Electrons    NEL             ....   56
 Basis Dimension        Dim             ....  193

ORBITAL ENERGIES
----------------

  NO   OCC          E(Eh)            E(eV)
   0   2.0000     -19.002881      -517.0947
   1   2.0000     -18.943080      -515.4674
   2   2.0000     -10.162094      -276.5246
   3   2.0000     -10.082974      -274.3717
   4   2.0000     -10.037284      -273.1284
   5   2.0000     -10.020243      -272.6647
   6   2.0000     -10.018449      -272.6158
   7   2.0000      -1.078702       -29.3530
   8   2.0000      -0.988967       -26.9112
   9   2.0000      -0.759796       -20.6751
  10   2.0000      -0.723543       -19.6886
  11   2.0000      -0.639687       -17.4068
  12   2.0000      -0.588748       -16.0207
  13   2.0000      -0.520682       -14.1685
  14   2.0000      -0.472623       -12.8607
  15   2.0000      -0.461937       -12.5699
  16   2.0000      -0.435950       -11.8628
  17   2.0000      -0.413139       -11.2421
  18   2.0000      -0.409243       -11.1361
  19   2.0000      -0.376223       -10.2375
  20   2.0000      -0.356342        -9.6965
  21   2.0000      -0.351145        -9.5551
  22   2.0000      -0.331669        -9.0252
  23   2.0000      -0.329686        -8.9712
  24   2.0000      -0.312596        -8.5062
  25   2.0000      -0.303355        -8.2547
  26   2.0000      -0.278555        -7.5799
  27   2.0000      -0.252080        -6.8594
  28   0.0000      -0.022699        -0.6177
  29   0.0000       0.079457         2.1621
  30   0.0000       0.101676         2.7668
  31   0.0000       0.126457         3.4411
  32   0.0000       0.133041         3.6202

MULLIKEN ATOMIC CHARGES
-----------------------
   0 C :   -0.494720
   1 C :   -0.309685
   2 C :    0.448902
   3 O :   -0.522118
   4 O :   -0.199248
   5 C :   -0.143334
   6 C :   -0.492109
   7 H :    0.163117
   8 H :    0.170466
   9 H :    0.165698
  10 H :    0.176520
  11 H :    0.188324
  12 H :    0.173416
  13 H :    0.171970
  14 H :    0.167391
  15 H :    0.165457
  16 H :    0.169953
Sum of atomic charges:    0.0000000

LOEWDIN ATOMIC CHARGES
----------------------
   0 C :   -0.398643
   1 C :   -0.233389
   2 C :    0.369783
   3 O :   -0.497698
   4 O :   -0.599331
   5 C :    0.031640
   6 C :   -0.392781
   7 H :    0.159789
   8 H :    0.159633
   9 H :    0.161438
  10 H :    0.181414
  11 H :    0.187523
  12 H :    0.188920
  13 H :    0.189900
  14 H :    0.162098
  15 H :    0.161908
  16 H :    0.167795

  Mayer bond orders larger than 0.100000
B(  0-C ,  1-C ) :   0.8850 B(  0-C ,  7-H ) :   0.9723 B(  0-C ,  8-H ) :   0.9674
B(  0-C ,  9-H ) :   0.9734 B(  1-C ,  2-C ) :   0.9597 B(  1-C , 10-H ) :   0.9764
B(  1-C , 11-H ) :   0.9405 B(  2-C ,  3-O ) :   1.7521 B(  2-C ,  4-O ) :   1.0887
B(  4-O ,  5-C ) :   0.8004 B(  5-C ,  6-C ) :   0.9386 B(  5-C , 12-H ) :   0.9519
B(  5-C , 13-H ) :   0.9624 B(  6-C , 14-H ) :   0.9689 B(  6-C , 15-H ) :   0.9698
B(  6-C , 16-H ) :   0.9602

Dispersion correction           -0.003950830
FINAL SINGLE POINT ENERGY      -346.941302917696

DIPOLE MOMENT
-------------

Method             : SCF
Type of density    : Electron Density
Multiplicity       :   1
Irrep              :   0
Energy             :  -346.9477946307266620 Eh
Relativity type    :
Basis              : AO
                                X                 Y                 Z
Electronic contribution:      0.282313661      -0.775677902       0.349393720
Nuclear contribution   :      0.025946186       1.823036343      -0.212694746
                        -----------------------------------------
Total Dipole Moment    :      0.308259847       1.047358441       0.136698974
                        -----------------------------------------
Magnitude (a.u.)       :      1.100304706
Magnitude (Debye)      :      2.796752301

Rotational constants in cm-1:             0.227207             0.046143             0.043212
Rotational constants in MHz :          6811.482413          1383.337431          1295.461670

                             ****ORCA TERMINATED NORMALLY****
TOTAL RUN TIME: 0 days 0 hours 0 minutes 24 seconds 947 msec
