                         Program Version 6.0.0  -   RELEASE  -
|  1> ! r2scan-3c def2/J RI DEFGRID2 scfconv6 printgap
|  2> %output
|  3>     printlevel normal
|  4> end
|  5> * xyz 0 1
|  6> C -2.7695827951 0.0108079657 -0.3301580728
|  7> C -2.1034604061 -1.1909391913 -0.1600791452
|  8> C -0.7665490739 -1.1988305119 0.1972393171
|  9> C -0.0776655099 -0.0080515096 0.3915799154
| 10> C -0.754575135 1.1924330143 0.2158048517
| 11> C -2.091465599 1.203228059 -0.1408231942
| 12> C 1.3824769194 -0.0186424358 0.7399739385
| 13> C 2.230567662 -0.0159901199 -0.541293267
| 14> O 3.6144269767 0.0679054722 -0.2865903418
| 15> H -3.8128928359 0.0182961869 -0.6075732557
| 16> H -2.6268621972 -2.1242723996 -0.3052515587
| 17> H -0.2532258832 -2.1400913361 0.3310773869
| 18> H -0.2294746921 2.1250371944 0.3634225751
| 19> H -2.6056902307 2.1438964996 -0.270680942
| 20> H 1.6411857988 0.8645338567 1.3265057996
| 21> H 1.6207868127 -0.9088020059 1.3257691942
| 22> H 2.0019472233 -0.9095580684 -1.1381824239
| 23> H 1.9902352775 0.8650427392 -1.1416931534
| 24> H 3.8900608472 -0.7023575205 0.2299576079
| 25> *
| 26>
| 27>                          ****END OF INPUT****

CARTESIAN COORDINATES (ANGSTROEM)
---------------------------------
  C     -2.769583    0.010808   -0.330158
  C     -2.103460   -1.190939   -0.160079
  C     -0.766549   -1.198831    0.197239
  C     -0.077666   -0.008052    0.391580
  C     -0.754575    1.192433    0.215805
  C     -2.091466    1.203228   -0.140823
  C      1.382477   -0.018642    0.739974
  C      2.230568   -0.015990   -0.541293
  O      3.614427    0.067905   -0.286590
  H     -3.812893    0.018296   -0.607573
  H     -2.626862   -2.124272   -0.305252
  H     -0.253226   -2.140091    0.331077
  H     -0.229475    2.125037    0.363423
  H     -2.605690    2.143896   -0.270681
  H      1.641186    0.864534    1.326506
  H      1.620787   -0.908802    1.325769
  H      2.001947   -0.909558   -1.138182
  H      1.990235    0.865043   -1.141693
  H      3.890061   -0.702358    0.229958

 Total Charge           Charge          ....    0
 Multiplicity           Mult            ....    1
 Number of Electrons    NEL             ....   66
 Basis Dimension        Dim             ....  226

ORBITAL ENERGIES
----------------

  NO   OCC          E(Eh)            E(eV)
   0   2.0000     -18.951225      -515.6890
   1   2.0000     -10.079822      -274.2859
   2   2.0000     -10.045656      -273.3562
   3   2.0000     -10.037156      -273.1249
   4   2.0000     -10.036403      -273.1044
   5   2.0000     -10.036227      -273.0996
   6   2.0000     -10.035015      -273.0666
   7   2.0000     -10.034592      -273.0551
   8   2.0000     -10.034319      -273.0477
   9   2.0000      -0.988414       -26.8961
  10   2.0000      -0.832363       -22.6497
  11   2.0000      -0.756868       -20.5954
  12   2.0000      -0.718218       -19.5437
  13   2.0000      -0.685076       -18.6419
  14   2.0000      -0.604882       -16.4597
  15   2.0000      -0.579071       -15.7573
  16   2.0000      -0.553382       -15.0583
  17   2.0000      -0.486474       -13.2376
  18   2.0000      -0.477938       -13.0054
  19   2.0000      -0.442272       -12.0348
  20   2.0000      -0.428360       -11.6563
  21   2.0000      -0.408854       -11.1255
  22   2.0000      -0.395920       -10.7735
  23   2.0000      -0.391528       -10.6540
  24   2.0000      -0.368804       -10.0357
  25   2.0000      -0.349768        -9.5177
  26   2.0000      -0.339668        -9.2428
  27   2.0000      -0.317307        -8.6344
  28   2.0000      -0.310222        -8.4416
  29   2.0000      -0.294523        -8.0144
  30   2.0000      -0.248065        -6.7502
  31   2.0000      -0.238844        -6.4993
  32   2.0000      -0.225108        -6.1255
  33   0.0000      -0.033858        -0.9213
  34   0.0000      -0.032346        -0.8802
  35   0.0000       0.058624         1.5952
  36   0.0000       0.071738         1.9521
  37   0.0000       0.105242         2.8638

MULLIKEN ATOMIC CHARGES
-----------------------
   0 C :   -0.146166
   1 C :   -0.159167
   2 C :   -0.228513
   3 C :    0.190862
   4 C :   -0.219943
   5 C :   -0.157552
   6 C :   -0.291556
   7 C :   -0.194030
   8 O :   -0.409460
   9 H :    0.146794
  10 H :    0.145418
  11 H :    0.146876
  12 H :    0.149241
  13 H :    0.145643
  14 H :    0.160407
  15 H :    0.140119
  16 H :    0.139252
  17 H :    0.147284
  18 H :    0.294491
Sum of atomic charges:    0.0000000

LOEWDIN ATOMIC CHARGES
----------------------
   0 C :   -0.171120
   1 C :   -0.160575
   2 C :   -0.164261
   3 C :   -0.094380
   4 C :   -0.160775
   5 C :   -0.159885
   6 C :   -0.268331
   7 C :    0.015911
   8 O :   -0.612997
   9 H :    0.166897
  10 H :    0.166916
  11 H :    0.168177
  12 H :    0.169950
  13 H :    0.167210
  14 H :    0.171198
  15 H :    0.161895
  16 H :    0.158865
  17 H :    0.179895
  18 H :    0.265411

  Mayer bond orders larger than 0.100000
B(  0-C ,  1-C ) :   1.4309 B(  0-C ,  5-C ) :   1.4277 B(  0-C ,  9-H ) :   0.9479
B(  1-C ,  2-C ) :   1.4464 B(  1-C , 10-H ) :   0.9470 B(  2-C ,  3-C ) :   1.3941
B(  2-C , 11-H ) :   0.9451 B(  3-C ,  4-C ) :   1.4113 B(  3-C ,  6-C ) :   0.7848
B(  4-C ,  5-C ) :   1.4474 B(  4-C , 12-H ) :   0.9455 B(  5-C , 13-H ) :   0.9485
B(  6-C ,  7-C ) :   0.9039 B(  6-C , 14-H ) :   0.9870 B(  6-C , 15-H ) :   0.9845
B(  7-C ,  8-O ) :   0.9591 B(  7-C , 16-H ) :   0.9860 B(  7-C , 17-H ) :   0.9765
B(  8-O , 18-H ) :   0.8955

Dispersion correction           -0.006050591
FINAL SINGLE POINT ENERGY      -385.989852885657

DIPOLE MOMENT
-------------

Method             : SCF
Type of density    : Electron Density
Multiplicity       :   1
Irrep              :   0
Energy             :  -385.9908586707317681 Eh
Relativity type    :
Basis              : AO
                                X                 Y                 Z
Electronic contribution:     -1.851321942       0.289883052       0.112802681
Nuclear contribution   :      1.569712483      -0.719765076       0.102095292
                        -----------------------------------------
Total Dipole Moment    :     -0.281609459      -0.429882024       0.214897973
                        -----------------------------------------
Magnitude (a.u.)       :      0.557031041
Magnitude (Debye)      :      1.415860386

Rotational constants in cm-1:             0.147866             0.028872             0.025871
Rotational constants in MHz :          4432.924390           865.572881           775.595517

                             ****ORCA TERMINATED NORMALLY****
TOTAL RUN TIME: 0 days 0 hours 0 minutes 25 seconds 19 msec
