                         Program Version 6.0.0  -   RELEASE  -
|  1> ! r2scan-3c def2/J RI DEFGRID2 scfconv6 printgap
|  2> %output
|  3>     printlevel normal
|  4> end
|  5> %cpcm
|  6>     smd true
|  7>     smdsolvent "water"
|  8> end
|  9> * xyz 0 1
| 10> C -2.7695827951 0.0108079657 -0.3301580728
| 11> C -2.1034604061 -1.1909391913 -0.1600791452
| 12> C -0.7665490739 -1.1988305119 0.1972393171
| 13> C -0.0776655099 -0.0080515096 0.3915799154
| 14> C -0.754575135 1.1924330143 0.2158048517
| 15> C -2.091465599 1.203228059 -0.1408231942
| 16> C 1.3824769194 -0.0186424358 0.7399739385
| 17> C 2.230567662 -0.0159901199 -0.541293267
| 18> O 3.6144269767 0.0679054722 -0.2865903418
| 19> H -3.8128928359 0.0182961869 -0.6075732557
| 20> H -2.6268621972 -2.1242723996 -0.3052515587
| 21> H -0.2532258832 -2.1400913361 0.3310773869
| 22> H -0.2294746921 2.1250371944 0.3634225751
| 23> H -2.6056902307 2.1438964996 -0.270680942
| 24> H 1.6411857988 0.8645338567 1.3265057996
| 25> H 1.6207868127 -0.9088020059 1.3257691942
| 26> H 2.0019472233 -0.9095580684 -1.1381824239
| 27> H 1.9902352775 0.8650427392 -1.1416931534
| 28> H 3.8900608472 -0.7023575205 0.2299576079
| 29> *
| 30>
| 31>                          ****END OF INPUT****

CARTESIAN COORDINATES (ANGSTROEM)
---------------------------------
  C     -2.769583    0.010808   -0.330158
  C     -2.103460   -1.190939   -0.160079
  C     -0.766549   -1.198831    0.197239
  C     -0.077666   -0.008052    0.391580
  C     -0.754575    1.192433    0.215805
  C     -2.091466    1.203228   -0.140823
  C      1.382477   -0.018642    0.739974
  C      2.230568   -0.015990   -0.541293
  O      3.614427    0.067905   -0.286590
  H     -3.812893    0.018296   -0.607573
  H     -2.626862   -2.124272   -0.305252
  H     -0.253226   -2.140091    0.331077
  H     -0.229475    2.125037    0.363423
  H     -2.605690    2.143896   -0.270681
  H      1.641186    0.864534    1.326506
  H      1.620787   -0.908802    1.325769
  H      2.001947   -0.909558   -1.138182
  H      1.990235    0.865043   -1.141693
  H      3.890061   -0.702358    0.229958

 Total Charge           Charge          ....    0
 Multiplicity           Mult            ....    1
 Number of Electrons    NEL             ....   66
 Basis Dimension        Dim             ....  226

ORBITAL ENERGIES
----------------

  NO   OCC          E(Eh)            E(eV)
   0   2.0000     -18.952878      -515.7340
   1   2.0000     -10.073423      -274.1118
   2   2.0000     -10.041753      -273.2500
   3   2.0000     -10.031985      -272.9842
   4   2.0000     -10.031900      -272.9819
   5   2.0000     -10.030164      -272.9346
   6   2.0000     -10.029862      -272.9264
   7   2.0000     -10.029771      -272.9239
   8   2.0000     -10.026487      -272.8346
   9   2.0000      -0.988810       -26.9069
  10   2.0000      -0.829487       -22.5715
  11   2.0000      -0.750996       -20.4356
  12   2.0000      -0.714390       -19.4395
  13   2.0000      -0.679886       -18.5006
  14   2.0000      -0.599263       -16.3068
  15   2.0000      -0.573413       -15.6034
  16   2.0000      -0.547387       -14.8952
  17   2.0000      -0.479847       -13.0573
  18   2.0000      -0.472845       -12.8668
  19   2.0000      -0.435714       -11.8564
  20   2.0000      -0.421135       -11.4597
  21   2.0000      -0.404800       -11.0152
  22   2.0000      -0.391652       -10.6574
  23   2.0000      -0.384889       -10.4734
  24   2.0000      -0.363336        -9.8869
  25   2.0000      -0.346635        -9.4324
  26   2.0000      -0.336641        -9.1605
  27   2.0000      -0.310939        -8.4611
  28   2.0000      -0.303432        -8.2568
  29   2.0000      -0.291529        -7.9329
  30   2.0000      -0.250420        -6.8143
  31   2.0000      -0.238522        -6.4905
  32   2.0000      -0.224822        -6.1177
  33   0.0000      -0.032294        -0.8788
  34   0.0000      -0.030850        -0.8395
  35   0.0000       0.075637         2.0582
  36   0.0000       0.084936         2.3112
  37   0.0000       0.110504         3.0070

MULLIKEN ATOMIC CHARGES
-----------------------
   0 C :   -0.180577
   1 C :   -0.199788
   2 C :   -0.241367
   3 C :    0.129272
   4 C :   -0.236858
   5 C :   -0.200217
   6 C :   -0.258868
   7 C :   -0.201331
   8 O :   -0.497962
   9 H :    0.178987
  10 H :    0.177324
  11 H :    0.179844
  12 H :    0.179884
  13 H :    0.177324
  14 H :    0.166088
  15 H :    0.165920
  16 H :    0.150941
  17 H :    0.159231
  18 H :    0.352152
Sum of atomic charges:   -0.0000000

LOEWDIN ATOMIC CHARGES
----------------------
   0 C :   -0.185248
   1 C :   -0.173513
   2 C :   -0.170433
   3 C :   -0.100936
   4 C :   -0.169088
   5 C :   -0.173512
   6 C :   -0.265874
   7 C :    0.015440
   8 O :   -0.647645
   9 H :    0.176705
  10 H :    0.177193
  11 H :    0.180265
  12 H :    0.180424
  13 H :    0.177229
  14 H :    0.173741
  15 H :    0.172925
  16 H :    0.165620
  17 H :    0.181490
  18 H :    0.285216

  Mayer bond orders larger than 0.100000
B(  0-C ,  1-C ) :   1.3895 B(  0-C ,  5-C ) :   1.3881 B(  0-C ,  9-H ) :   0.9544
B(  1-C ,  2-C ) :   1.4085 B(  1-C , 10-H ) :   0.9574 B(  2-C ,  3-C ) :   1.3792
B(  2-C , 11-H ) :   0.9520 B(  3-C ,  4-C ) :   1.3813 B(  3-C ,  6-C ) :   0.7979
B(  4-C ,  5-C ) :   1.4101 B(  4-C , 12-H ) :   0.9519 B(  5-C , 13-H ) :   0.9576
B(  6-C ,  7-C ) :   0.9004 B(  6-C , 14-H ) :   0.9790 B(  6-C , 15-H ) :   0.9746
B(  7-C ,  8-O ) :   0.9510 B(  7-C , 16-H ) :   0.9780 B(  7-C , 17-H ) :   0.9766
B(  8-O , 18-H ) :   0.8665

Dispersion correction           -0.006050591
FINAL SINGLE POINT ENERGY      -386.000415172557

DIPOLE MOMENT
-------------

Method             : SCF
Type of density    : Electron Density
Multiplicity       :   1
Irrep              :   0
Energy             :  -386.0014209576321491 Eh
Relativity type    :
Basis              : AO
                                X                 Y                 Z
Electronic contribution:     -1.871137921       0.079120798       0.213497378
Nuclear contribution   :      1.569712483      -0.719765076       0.102095292
                        -----------------------------------------
Total Dipole Moment    :     -0.301425437      -0.640644279       0.315592670
                        -----------------------------------------
Magnitude (a.u.)       :      0.775165220
Magnitude (Debye)      :      1.970313407

Rotational constants in cm-1:             0.147866             0.028872             0.025871
Rotational constants in MHz :          4432.924390           865.572881           775.595517

                             ****ORCA TERMINATED NORMALLY****
TOTAL RUN TIME: 0 days 0 hours 0 minutes 29 seconds 172 msec
