                         Program Version 6.0.0  -   RELEASE  -
|  1> ! r2scan-3c def2/J RI DEFGRID2 scfconv6 printgap
|  2> %output
|  3>     printlevel normal
|  4> end
|  5> * xyz 0 1
|  6> C 2.1193711272 -1.0292847686 -0.3976168442
|  7> C 1.7568997085 0.3712421633 0.0820692843
|  8> C 0.3731024969 0.456684454 0.7280268708
|  9> C -0.7942966008 0.2046396914 -0.2471347194
| 10> H -0.4357298716 0.3365070792 -1.280538739
| 11> C -1.3797790833 -1.1964996934 -0.0987016254
| 12> O -1.8675718955 1.111018043 -0.0223067851
| 13> H 1.4598064697 -1.3479893234 -1.2004886591
| 14> H 2.0429990296 -1.742771959 0.4196920101
| 15> H 3.1404706259 -1.044183512 -0.7713767849
| 16> H 2.4961021254 0.6936546332 0.818662317
| 17> H 1.80734533 1.064924505 -0.7605286945
| 18> H 0.3124198917 -0.2527552491 1.5547349763
| 19> H 0.2524590558 1.4559809101 1.1532025283
| 20> H -1.8049976429 -1.3028015911 0.8961719351
| 21> H -2.1734140731 -1.3415835175 -0.8271648947
| 22> H -0.6131194255 -1.9491945612 -0.2460743408
| 23> H -1.5695387268 2.0133271441 -0.1963685343
| 24> *
| 25>
| 26>                          ****END OF INPUT****

CARTESIAN COORDINATES (ANGSTROEM)
---------------------------------
  C      2.119371   -1.029285   -0.397617
  C      1.756900    0.371242    0.082069
  C      0.373102    0.456684    0.728027
  C     -0.794297    0.204640   -0.247135
  H     -0.435730    0.336507   -1.280539
  C     -1.379779   -1.196500   -0.098702
  O     -1.867572    1.111018   -0.022307
  H      1.459806   -1.347989   -1.200489
  H      2.042999   -1.742772    0.419692
  H      3.140471   -1.044184   -0.771377
  H      2.496102    0.693655    0.818662
  H      1.807345    1.064925   -0.760529
  H      0.312420   -0.252755    1.554735
  H      0.252459    1.455981    1.153203
  H     -1.804998   -1.302802    0.896172
  H     -2.173414   -1.341584   -0.827165
  H     -0.613119   -1.949195   -0.246074
  H     -1.569539    2.013327   -0.196369

 Total Charge           Charge          ....    0
 Multiplicity           Mult            ....    1
 Number of Electrons    NEL             ....   50
 Basis Dimension        Dim             ....  179

ORBITAL ENERGIES
----------------

  NO   OCC          E(Eh)            E(eV)
   0   2.0000     -18.942043      -515.4392
   1   2.0000     -10.079738      -274.2836
   2   2.0000     -10.029358      -272.9127
   3   2.0000     -10.023014      -272.7401
   4   2.0000     -10.019407      -272.6419
   5   2.0000     -10.014266      -272.5020
   6   2.0000      -0.979560       -26.6552
   7   2.0000      -0.765932       -20.8421
   8   2.0000      -0.710078       -19.3222
   9   2.0000      -0.652163       -17.7463
  10   2.0000      -0.572562       -15.5802
  11   2.0000      -0.539930       -14.6922
  12   2.0000      -0.484275       -13.1778
  13   2.0000      -0.425779       -11.5860
  14   2.0000      -0.416324       -11.3287
  15   2.0000      -0.402202       -10.9445
  16   2.0000      -0.373531       -10.1643
  17   2.0000      -0.356958        -9.7133
  18   2.0000      -0.346870        -9.4388
  19   2.0000      -0.335145        -9.1198
  20   2.0000      -0.322405        -8.7731
  21   2.0000      -0.305192        -8.3047
  22   2.0000      -0.297099        -8.0845
  23   2.0000      -0.278245        -7.5714
  24   2.0000      -0.230608        -6.2752
  25   0.0000       0.063620         1.7312
  26   0.0000       0.090149         2.4531
  27   0.0000       0.107181         2.9165
  28   0.0000       0.115691         3.1481
  29   0.0000       0.130627         3.5545

MULLIKEN ATOMIC CHARGES
-----------------------
   0 C :   -0.494724
   1 C :   -0.262979
   2 C :   -0.239892
   3 C :    0.027402
   4 H :    0.131744
   5 C :   -0.506264
   6 O :   -0.425705
   7 H :    0.151479
   8 H :    0.150453
   9 H :    0.147013
  10 H :    0.140198
  11 H :    0.138321
  12 H :    0.146922
  13 H :    0.149777
  14 H :    0.160679
  15 H :    0.154058
  16 H :    0.148415
  17 H :    0.283104
Sum of atomic charges:   -0.0000000

LOEWDIN ATOMIC CHARGES
----------------------
   0 C :   -0.428274
   1 C :   -0.314284
   2 C :   -0.289675
   3 C :    0.050190
   4 H :    0.158710
   5 C :   -0.384192
   6 O :   -0.617961
   7 H :    0.149285
   8 H :    0.150649
   9 H :    0.151052
  10 H :    0.152073
  11 H :    0.150027
  12 H :    0.161036
  13 H :    0.165182
  14 H :    0.162349
  15 H :    0.160767
  16 H :    0.157367
  17 H :    0.265698

  Mayer bond orders larger than 0.100000
B(  0-C ,  1-C ) :   0.8827 B(  0-C ,  7-H ) :   0.9784 B(  0-C ,  8-H ) :   0.9808
B(  0-C ,  9-H ) :   0.9681 B(  1-C ,  2-C ) :   0.8803 B(  1-C , 10-H ) :   0.9689
B(  1-C , 11-H ) :   0.9893 B(  2-C ,  3-C ) :   0.8373 B(  2-C , 12-H ) :   0.9708
B(  2-C , 13-H ) :   0.9757 B(  3-C ,  4-H ) :   0.9668 B(  3-C ,  5-C ) :   0.9310
B(  3-C ,  6-O ) :   0.8941 B(  5-C , 14-H ) :   0.9862 B(  5-C , 15-H ) :   0.9697
B(  5-C , 16-H ) :   0.9639 B(  6-O , 17-H ) :   0.9012

Dispersion correction           -0.004350771
FINAL SINGLE POINT ENERGY      -272.898585685902

DIPOLE MOMENT
-------------

Method             : SCF
Type of density    : Electron Density
Multiplicity       :   1
Irrep              :   0
Energy             :  -272.9038520732798929 Eh
Relativity type    :
Basis              : AO
                                X                 Y                 Z
Electronic contribution:     -3.978362914       3.346883814       0.276226755
Nuclear contribution   :      4.583173605      -3.189109634      -0.413195166
                        -----------------------------------------
Total Dipole Moment    :      0.604810691       0.157774180      -0.136968410
                        -----------------------------------------
Magnitude (a.u.)       :      0.639882028
Magnitude (Debye)      :      1.626450858

Rotational constants in cm-1:             0.191924             0.070025             0.057254
Rotational constants in MHz :          5753.732576          2099.285246          1716.438146

                             ****ORCA TERMINATED NORMALLY****
TOTAL RUN TIME: 0 days 0 hours 0 minutes 20 seconds 514 msec
