                         Program Version 6.0.0  -   RELEASE  -
|  1> ! r2scan-3c def2/J RI DEFGRID2 scfconv6 printgap
|  2> %output
|  3>     printlevel normal
|  4> end
|  5> %cpcm
|  6>     smd true
|  7>     smdsolvent "water"
|  8> end
|  9> * xyz 0 1
| 10> C 2.1193711272 -1.0292847686 -0.3976168442
| 11> C 1.7568997085 0.3712421633 0.0820692843
| 12> C 0.3731024969 0.456684454 0.7280268708
| 13> C -0.7942966008 0.2046396914 -0.2471347194
| 14> H -0.4357298716 0.3365070792 -1.280538739
| 15> C -1.3797790833 -1.1964996934 -0.0987016254
| 16> O -1.8675718955 1.111018043 -0.0223067851
| 17> H 1.4598064697 -1.3479893234 -1.2004886591
| 18> H 2.0429990296 -1.742771959 0.4196920101
| 19> H 3.1404706259 -1.044183512 -0.7713767849
| 20> H 2.4961021254 0.6936546332 0.818662317
| 21> H 1.80734533 1.064924505 -0.7605286945
| 22> H 0.3124198917 -0.2527552491 1.5547349763
| 23> H 0.2524590558 1.4559809101 1.1532025283
| 24> H -1.8049976429 -1.3028015911 0.8961719351
| 25> H -2.1734140731 -1.3415835175 -0.8271648947
| 26> H -0.6131194255 -1.9491945612 -0.2460743408
| 27> H -1.5695387268 2.0133271441 -0.1963685343
| 28> *
| 29>
| 30>                          ****END OF INPUT****

CARTESIAN COORDINATES (ANGSTROEM)
---------------------------------
  C      2.119371   -1.029285   -0.397617
  C      1.756900    0.371242    0.082069
  C      0.373102    0.456684    0.728027
  C     -0.794297    0.204640   -0.247135
  H     -0.435730    0.336507   -1.280539
  C     -1.379779   -1.196500   -0.098702
  O     -1.867572    1.111018   -0.022307
  H      1.459806   -1.347989   -1.200489
  H      2.042999   -1.742772    0.419692
  H      3.140471   -1.044184   -0.771377
  H      2.496102    0.693655    0.818662
  H      1.807345    1.064925   -0.760529
  H      0.312420   -0.252755    1.554735
  H      0.252459    1.455981    1.153203
  H     -1.804998   -1.302802    0.896172
  H     -2.173414   -1.341584   -0.827165
  H     -0.613119   -1.949195   -0.246074
  H     -1.569539    2.013327   -0.196369

 Total Charge           Charge          ....    0
 Multiplicity           Mult            ....    1
 Number of Electrons    NEL             ....   50
 Basis Dimension        Dim             ....  179

ORBITAL ENERGIES
----------------

  NO   OCC          E(Eh)            E(eV)
   0   2.0000     -18.946622      -515.5638
   1   2.0000     -10.074782      -274.1488
   2   2.0000     -10.017879      -272.6003
   3   2.0000     -10.013739      -272.4877
   4   2.0000     -10.009678      -272.3772
   5   2.0000     -10.007404      -272.3153
   6   2.0000      -0.982836       -26.7443
   7   2.0000      -0.756790       -20.5933
   8   2.0000      -0.703942       -19.1552
   9   2.0000      -0.643596       -17.5131
  10   2.0000      -0.565790       -15.3959
  11   2.0000      -0.532636       -14.4937
  12   2.0000      -0.480785       -13.0828
  13   2.0000      -0.416611       -11.3366
  14   2.0000      -0.409923       -11.1546
  15   2.0000      -0.393993       -10.7211
  16   2.0000      -0.368451       -10.0261
  17   2.0000      -0.351285        -9.5589
  18   2.0000      -0.341896        -9.3035
  19   2.0000      -0.330731        -8.9997
  20   2.0000      -0.316170        -8.6034
  21   2.0000      -0.294651        -8.0179
  22   2.0000      -0.289178        -7.8689
  23   2.0000      -0.275116        -7.4863
  24   2.0000      -0.234702        -6.3866
  25   0.0000       0.080049         2.1782
  26   0.0000       0.099846         2.7169
  27   0.0000       0.117493         3.1971
  28   0.0000       0.126390         3.4392
  29   0.0000       0.137696         3.7469

MULLIKEN ATOMIC CHARGES
-----------------------
   0 C :   -0.526199
   1 C :   -0.279382
   2 C :   -0.256045
   3 C :    0.050558
   4 H :    0.145654
   5 C :   -0.544831
   6 O :   -0.516785
   7 H :    0.162683
   8 H :    0.158956
   9 H :    0.155445
  10 H :    0.147968
  11 H :    0.150505
  12 H :    0.155648
  13 H :    0.160154
  14 H :    0.167622
  15 H :    0.160289
  16 H :    0.168302
  17 H :    0.339460
Sum of atomic charges:   -0.0000000

LOEWDIN ATOMIC CHARGES
----------------------
   0 C :   -0.435393
   1 C :   -0.313817
   2 C :   -0.290730
   3 C :    0.051685
   4 H :    0.167293
   5 C :   -0.393627
   6 O :   -0.655999
   7 H :    0.152681
   8 H :    0.152857
   9 H :    0.152495
  10 H :    0.154194
  11 H :    0.153979
  12 H :    0.162599
  13 H :    0.169548
  14 H :    0.162198
  15 H :    0.159987
  16 H :    0.165425
  17 H :    0.284626

  Mayer bond orders larger than 0.100000
B(  0-C ,  1-C ) :   0.8778 B(  0-C ,  7-H ) :   0.9757 B(  0-C ,  8-H ) :   0.9775
B(  0-C ,  9-H ) :   0.9667 B(  1-C ,  2-C ) :   0.8825 B(  1-C , 10-H ) :   0.9688
B(  1-C , 11-H ) :   0.9890 B(  2-C ,  3-C ) :   0.8447 B(  2-C , 12-H ) :   0.9704
B(  2-C , 13-H ) :   0.9708 B(  3-C ,  4-H ) :   0.9594 B(  3-C ,  5-C ) :   0.9242
B(  3-C ,  6-O ) :   0.8756 B(  5-C , 14-H ) :   0.9815 B(  5-C , 15-H ) :   0.9696
B(  5-C , 16-H ) :   0.9590 B(  6-O , 17-H ) :   0.8745

Dispersion correction           -0.004350771
FINAL SINGLE POINT ENERGY      -272.905232162334

DIPOLE MOMENT
-------------

Method             : SCF
Type of density    : Electron Density
Multiplicity       :   1
Irrep              :   0
Energy             :  -272.9104985497118605 Eh
Relativity type    :
Basis              : AO
                                X                 Y                 Z
Electronic contribution:     -3.717171481       3.423554254       0.186146581
Nuclear contribution   :      4.583173605      -3.189109634      -0.413195166
                        -----------------------------------------
Total Dipole Moment    :      0.866002124       0.234444620      -0.227048584
                        -----------------------------------------
Magnitude (a.u.)       :      0.925459356
Magnitude (Debye)      :      2.352330739

Rotational constants in cm-1:             0.191924             0.070025             0.057254
Rotational constants in MHz :          5753.732576          2099.285246          1716.438146

                             ****ORCA TERMINATED NORMALLY****
TOTAL RUN TIME: 0 days 0 hours 0 minutes 24 seconds 521 msec
