                         Program Version 6.0.0  -   RELEASE  -
|  1> ! pbe def2-sv(p) def2/J RI DEFGRID1 loosescf d4 GCP(DFT/SV(P)) printgap
|  2> %output
|  3>     printlevel normal
|  4> end
|  5> * xyz 0 1
|  6> C 0.9044844311 -2.6157845764 0.8764501853
|  7> O 1.2584194308 -1.6924729772 -0.1487375725
|  8> C 0.7786642398 -0.423612783 -0.0520529343
|  9> C 1.693577591 0.633387649 -0.0175936254
| 10> C 1.2742870226 1.9505134774 0.0571966879
| 11> C -0.0761031281 2.2413687401 0.1154300495
| 12> C -0.9973812384 1.2080909246 0.0702103574
| 13> C -0.5905836907 -0.1207950777 -0.0304818944
| 14> C -1.613907297 -1.2034253665 -0.175067879
| 15> O -2.5328734492 -1.3852066255 0.5936586154
| 16> O -1.4135056642 -1.9256321395 -1.2579191717
| 17> Cl -2.6869565614 1.5799220325 0.0939855725
| 18> Cl 3.3783104991 0.2601791476 -0.0774520223
| 19> H 1.1571147284 -3.5976980077 0.4850134709
| 20> H -0.1569258628 -2.572874447 1.1251636429
| 21> H 1.4899157278 -2.4109594866 1.7769936838
| 22> H 2.0057511243 2.7409467257 0.08287208
| 23> H -0.4178975023 3.2597500813 0.185957809
| 24> H -2.0900502769 -2.6204787608 -1.3909526236
| 25> *
| 26>
| 27>                          ****END OF INPUT****

CARTESIAN COORDINATES (ANGSTROEM)
---------------------------------
  C      0.904484   -2.615785    0.876450
  O      1.258419   -1.692473   -0.148738
  C      0.778664   -0.423613   -0.052053
  C      1.693578    0.633388   -0.017594
  C      1.274287    1.950513    0.057197
  C     -0.076103    2.241369    0.115430
  C     -0.997381    1.208091    0.070210
  C     -0.590584   -0.120795   -0.030482
  C     -1.613907   -1.203425   -0.175068
  O     -2.532873   -1.385207    0.593659
  O     -1.413506   -1.925632   -1.257919
  Cl    -2.686957    1.579922    0.093986
  Cl     3.378310    0.260179   -0.077452
  H      1.157115   -3.597698    0.485013
  H     -0.156926   -2.572874    1.125164
  H      1.489916   -2.410959    1.776994
  H      2.005751    2.740947    0.082872
  H     -0.417898    3.259750    0.185958
  H     -2.090050   -2.620479   -1.390953

 Total Charge           Charge          ....    0
 Multiplicity           Mult            ....    1
 Number of Electrons    NEL             ....  112
 Basis Dimension        Dim             ....  202

ORBITAL ENERGIES
----------------

  NO   OCC          E(Eh)            E(eV)
   0   2.0000    -100.644986     -2738.6893
   1   2.0000    -100.644134     -2738.6661
   2   2.0000     -18.813235      -511.9341
   3   2.0000     -18.795260      -511.4450
   4   2.0000     -18.750917      -510.2384
   5   2.0000     -10.031638      -272.9748
   6   2.0000      -9.979380      -271.5527
   7   2.0000      -9.967879      -271.2398
   8   2.0000      -9.959040      -270.9993
   9   2.0000      -9.948309      -270.7072
  10   2.0000      -9.931542      -270.2510
  11   2.0000      -9.920397      -269.9477
  12   2.0000      -9.915642      -269.8183
  13   2.0000      -9.180887      -249.8246
  14   2.0000      -9.179942      -249.7989
  15   2.0000      -7.012369      -190.8163
  16   2.0000      -7.011442      -190.7910
  17   2.0000      -7.000951      -190.5056
  18   2.0000      -7.000003      -190.4798
  19   2.0000      -6.999950      -190.4783
  20   2.0000      -6.999131      -190.4560
  21   2.0000      -1.024594       -27.8806
  22   2.0000      -0.979545       -26.6548
  23   2.0000      -0.925967       -25.1969
  24   2.0000      -0.832071       -22.6418
  25   2.0000      -0.805638       -21.9225
  26   2.0000      -0.754931       -20.5427
  27   2.0000      -0.712968       -19.4009
  28   2.0000      -0.674533       -18.3550
  29   2.0000      -0.636185       -17.3115
  30   2.0000      -0.617420       -16.8008
  31   2.0000      -0.563111       -15.3230
  32   2.0000      -0.544155       -14.8072
  33   2.0000      -0.497537       -13.5387
  34   2.0000      -0.474768       -12.9191
  35   2.0000      -0.466866       -12.7041
  36   2.0000      -0.436780       -11.8854
  37   2.0000      -0.433611       -11.7991
  38   2.0000      -0.420204       -11.4343
  39   2.0000      -0.411502       -11.1976
  40   2.0000      -0.408393       -11.1129
  41   2.0000      -0.397093       -10.8054
  42   2.0000      -0.374707       -10.1963
  43   2.0000      -0.365085        -9.9345
  44   2.0000      -0.360339        -9.8053
  45   2.0000      -0.341480        -9.2921
  46   2.0000      -0.334303        -9.0968
  47   2.0000      -0.315812        -8.5937
  48   2.0000      -0.294823        -8.0225
  49   2.0000      -0.277544        -7.5524
  50   2.0000      -0.272998        -7.4287
  51   2.0000      -0.269376        -7.3301
  52   2.0000      -0.260833        -7.0976
  53   2.0000      -0.242538        -6.5998
  54   2.0000      -0.225283        -6.1303
  55   2.0000      -0.210964        -5.7406
  56   0.0000      -0.077014        -2.0957
  57   0.0000      -0.052264        -1.4222
  58   0.0000      -0.021470        -0.5842
  59   0.0000      -0.004714        -0.1283
  60   0.0000       0.018082         0.4920

MULLIKEN ATOMIC CHARGES
-----------------------
   0 C :   -0.111923
   1 O :   -0.265104
   2 C :    0.137467
   3 C :    0.061913
   4 C :   -0.101320
   5 C :   -0.103601
   6 C :    0.082787
   7 C :   -0.019802
   8 C :    0.048830
   9 O :   -0.164584
  10 O :   -0.264171
  11 Cl:   -0.052129
  12 Cl:   -0.054131
  13 H :    0.126148
  14 H :    0.134399
  15 H :    0.110503
  16 H :    0.057935
  17 H :    0.054813
  18 H :    0.321972
Sum of atomic charges:   -0.0000000

LOEWDIN ATOMIC CHARGES
----------------------
   0 C :   -0.195165
   1 O :   -0.099044
   2 C :    0.025320
   3 C :   -0.156737
   4 C :   -0.123591
   5 C :   -0.143810
   6 C :   -0.116031
   7 C :   -0.103001
   8 C :    0.014168
   9 O :   -0.148799
  10 O :   -0.182166
  11 Cl:    0.155665
  12 Cl:    0.146096
  13 H :    0.123943
  14 H :    0.113058
  15 H :    0.113121
  16 H :    0.137530
  17 H :    0.136059
  18 H :    0.303384

  Mayer bond orders larger than 0.100000
B(  0-C ,  1-O ) :   0.9487 B(  0-C , 13-H ) :   0.9622 B(  0-C , 14-H ) :   0.9225
B(  0-C , 15-H ) :   0.9469 B(  1-O ,  2-C ) :   1.2131 B(  2-C ,  3-C ) :   1.3588
B(  2-C ,  7-C ) :   1.3381 B(  3-C ,  4-C ) :   1.3950 B(  3-C , 12-Cl) :   1.0197
B(  4-C ,  5-C ) :   1.3171 B(  4-C , 16-H ) :   0.9681 B(  5-C ,  6-C ) :   1.3652
B(  5-C , 17-H ) :   0.9698 B(  6-C ,  7-C ) :   1.4242 B(  6-C , 11-Cl) :   1.0400
B(  7-C ,  8-C ) :   0.8649 B(  8-C ,  9-O ) :   2.0980 B(  8-C , 10-O ) :   1.3157
B( 10-O , 18-H ) :   0.8173

Dispersion correction           -0.027310089
FINAL SINGLE POINT ENERGY     -1452.783403653982

DIPOLE MOMENT
-------------

Method             : SCF
Type of density    : Electron Density
Multiplicity       :   1
Irrep              :   0
Energy             : -1452.8377194216157022 Eh
Relativity type    :
Basis              : AO
                                X                 Y                 Z
Electronic contribution:     -0.720018650       7.030769335      -2.204861345
Nuclear contribution   :      0.897297678      -7.423563035       2.090792088
                        -----------------------------------------
Total Dipole Moment    :      0.177279028      -0.392793700      -0.114069257
                        -----------------------------------------
Magnitude (a.u.)       :      0.445787551
Magnitude (Debye)      :      1.133101905

Rotational constants in cm-1:             0.030443             0.016824             0.011551
Rotational constants in MHz :           912.661735           504.359508           346.294232

                             ****ORCA TERMINATED NORMALLY****
TOTAL RUN TIME: 0 days 0 hours 0 minutes 16 seconds 503 msec
