                         Program Version 6.0.0  -   RELEASE  -
|  1> ! pbe def2-sv(p) def2/J RI DEFGRID1 loosescf d4 GCP(DFT/SV(P)) printgap
|  2> %output
|  3>     printlevel normal
|  4> end
|  5> * xyz 0 1
|  6> C 1.8506445929 0.6585368266 -0.8482709309
|  7> C 1.4048454047 0.0580048321 0.4832878462
|  8> C 1.4913332901 -1.4664336371 0.4510779754
|  9> C -0.0048779369 0.5277926867 0.861657688
| 10> C -1.1129489014 0.1393317976 -0.0801819233
| 11> O -1.0199999824 -0.5020698702 -1.1035815781
| 12> O -2.2823917599 0.6006563577 0.3520169645
| 13> H 1.2047938502 0.3130187414 -1.6513591358
| 14> H 2.8702940059 0.3573525432 -1.0738984482
| 15> H 1.8120354598 1.7448665651 -0.8125372508
| 16> H 2.0789128048 0.4230715501 1.2667316753
| 17> H 2.508727104 -1.7807338963 0.2332835791
| 18> H 1.1977968395 -1.8887736537 1.4093820698
| 19> H 0.8365828453 -1.8637823144 -0.3202032246
| 20> H -0.0308129139 1.6173692463 0.9374980905
| 21> H -0.2813290946 0.1360902667 1.8433694857
| 22> H -3.0210805843 0.3628878764 -0.2406488861
| 23> *
| 24>
| 25>                          ****END OF INPUT****

CARTESIAN COORDINATES (ANGSTROEM)
---------------------------------
  C      1.850645    0.658537   -0.848271
  C      1.404845    0.058005    0.483288
  C      1.491333   -1.466434    0.451078
  C     -0.004878    0.527793    0.861658
  C     -1.112949    0.139332   -0.080182
  O     -1.020000   -0.502070   -1.103582
  O     -2.282392    0.600656    0.352017
  H      1.204794    0.313019   -1.651359
  H      2.870294    0.357353   -1.073898
  H      1.812035    1.744867   -0.812537
  H      2.078913    0.423072    1.266732
  H      2.508727   -1.780734    0.233284
  H      1.197797   -1.888774    1.409382
  H      0.836583   -1.863782   -0.320203
  H     -0.030813    1.617369    0.937498
  H     -0.281329    0.136090    1.843369
  H     -3.021081    0.362888   -0.240649

 Total Charge           Charge          ....    0
 Multiplicity           Mult            ....    1
 Number of Electrons    NEL             ....   56
 Basis Dimension        Dim             ....  118

ORBITAL ENERGIES
----------------

  NO   OCC          E(Eh)            E(eV)
   0   2.0000     -18.800154      -511.5782
   1   2.0000     -18.740710      -509.9606
   2   2.0000     -10.017172      -272.5811
   3   2.0000      -9.902896      -269.4715
   4   2.0000      -9.898591      -269.3544
   5   2.0000      -9.867789      -268.5162
   6   2.0000      -9.867771      -268.5157
   7   2.0000      -1.010007       -27.4837
   8   2.0000      -0.913669       -24.8622
   9   2.0000      -0.735368       -20.0104
  10   2.0000      -0.658807       -17.9270
  11   2.0000      -0.606683       -16.5087
  12   2.0000      -0.568838       -15.4789
  13   2.0000      -0.499535       -13.5930
  14   2.0000      -0.440375       -11.9832
  15   2.0000      -0.429288       -11.6815
  16   2.0000      -0.412983       -11.2378
  17   2.0000      -0.396593       -10.7919
  18   2.0000      -0.378211       -10.2916
  19   2.0000      -0.372696       -10.1416
  20   2.0000      -0.331847        -9.0300
  21   2.0000      -0.331785        -9.0283
  22   2.0000      -0.321666        -8.7530
  23   2.0000      -0.292955        -7.9717
  24   2.0000      -0.288784        -7.8582
  25   2.0000      -0.288360        -7.8467
  26   2.0000      -0.274673        -7.4742
  27   2.0000      -0.221335        -6.0228
  28   0.0000      -0.025185        -0.6853
  29   0.0000       0.026362         0.7174
  30   0.0000       0.032907         0.8955
  31   0.0000       0.087537         2.3820
  32   0.0000       0.088214         2.4004

MULLIKEN ATOMIC CHARGES
-----------------------
   0 C :   -0.263307
   1 C :   -0.148350
   2 C :   -0.263662
   3 C :   -0.166856
   4 C :    0.082656
   5 O :   -0.187231
   6 O :   -0.292596
   7 H :    0.123993
   8 H :    0.096509
   9 H :    0.090300
  10 H :    0.070355
  11 H :    0.096581
  12 H :    0.090469
  13 H :    0.124084
  14 H :    0.116950
  15 H :    0.116856
  16 H :    0.313250
Sum of atomic charges:   -0.0000000

LOEWDIN ATOMIC CHARGES
----------------------
   0 C :   -0.337234
   1 C :   -0.151056
   2 C :   -0.337321
   3 C :   -0.243730
   4 C :    0.033800
   5 O :   -0.165121
   6 O :   -0.210940
   7 H :    0.125921
   8 H :    0.117570
   9 H :    0.113291
  10 H :    0.117086
  11 H :    0.117578
  12 H :    0.113343
  13 H :    0.125935
  14 H :    0.142092
  15 H :    0.142073
  16 H :    0.296713

  Mayer bond orders larger than 0.100000
B(  0-C ,  1-C ) :   1.1034 B(  0-C ,  7-H ) :   0.9410 B(  0-C ,  8-H ) :   0.9502
B(  0-C ,  9-H ) :   0.9513 B(  1-C ,  2-C ) :   1.1032 B(  1-C ,  3-C ) :   1.0725
B(  1-C , 10-H ) :   0.9008 B(  2-C , 11-H ) :   0.9503 B(  2-C , 12-H ) :   0.9514
B(  2-C , 13-H ) :   0.9409 B(  3-C ,  4-C ) :   1.0005 B(  3-C , 14-H ) :   0.8978
B(  3-C , 15-H ) :   0.8978 B(  4-C ,  5-O ) :   2.0628 B(  4-C ,  6-O ) :   1.2679
B(  6-O , 16-H ) :   0.8214

Dispersion correction           -0.013358187
FINAL SINGLE POINT ENERGY      -346.245789754748

DIPOLE MOMENT
-------------

Method             : SCF
Type of density    : Electron Density
Multiplicity       :   1
Irrep              :   0
Energy             :  -346.3113328735493610 Eh
Relativity type    :
Basis              : AO
                                X                 Y                 Z
Electronic contribution:     -8.839984779       0.860482874      -1.037174734
Nuclear contribution   :      8.559585707      -0.541392914       1.482060948
                        -----------------------------------------
Total Dipole Moment    :     -0.280399072       0.319089960       0.444886214
                        -----------------------------------------
Magnitude (a.u.)       :      0.615114449
Magnitude (Debye)      :      1.563496676

Rotational constants in cm-1:             0.149021             0.055800             0.055410
Rotational constants in MHz :          4467.546921          1672.855789          1661.151592

                             ****ORCA TERMINATED NORMALLY****
TOTAL RUN TIME: 0 days 0 hours 0 minutes 9 seconds 674 msec
