                         Program Version 6.0.0  -   RELEASE  -
|  1> ! r2scan-3c def2/J RI DEFGRID2 scfconv6 printgap
|  2> %output
|  3>     printlevel normal
|  4> end
|  5> %cpcm
|  6>     smd true
|  7>     smdsolvent "water"
|  8> end
|  9> * xyz 0 1
| 10> C -2.0624505027 0.5685380165 -0.6878962597
| 11> C -1.3809060815 0.3467451526 0.6574768648
| 12> C 0.0388297198 -0.2215374516 0.5324111886
| 13> C 0.9651259003 0.6849874497 -0.2898553946
| 14> C 2.4404150213 0.3385571034 -0.1127800671
| 15> O -0.0754031253 -1.5189379208 -0.0303228373
| 16> H -1.5819105953 1.369682491 -1.2425811894
| 17> H -2.0167543724 -0.3445730726 -1.2757672573
| 18> H -3.105658726 0.8330907878 -0.5363382342
| 19> H -1.3334541873 1.2828359794 1.2155727169
| 20> H -1.9665110575 -0.3685177837 1.2382987563
| 21> H 0.4527971748 -0.3117277568 1.5522700212
| 22> H 0.6929912508 0.5986128356 -1.3425909987
| 23> H 0.7986110053 1.7160840529 0.0245979455
| 24> H 2.6588756133 -0.6623873559 -0.4780225144
| 25> H 3.0567039968 1.0391452778 -0.6702523147
| 26> H 2.7217854454 0.3934457867 0.9368949441
| 27> H 0.8073889437 -1.8987799118 -0.1247524785
| 28> *
| 29>
| 30>                          ****END OF INPUT****

CARTESIAN COORDINATES (ANGSTROEM)
---------------------------------
  C     -2.062451    0.568538   -0.687896
  C     -1.380906    0.346745    0.657477
  C      0.038830   -0.221537    0.532411
  C      0.965126    0.684987   -0.289855
  C      2.440415    0.338557   -0.112780
  O     -0.075403   -1.518938   -0.030323
  H     -1.581911    1.369682   -1.242581
  H     -2.016754   -0.344573   -1.275767
  H     -3.105659    0.833091   -0.536338
  H     -1.333454    1.282836    1.215573
  H     -1.966511   -0.368518    1.238299
  H      0.452797   -0.311728    1.552270
  H      0.692991    0.598613   -1.342591
  H      0.798611    1.716084    0.024598
  H      2.658876   -0.662387   -0.478023
  H      3.056704    1.039145   -0.670252
  H      2.721785    0.393446    0.936895
  H      0.807389   -1.898780   -0.124752

 Total Charge           Charge          ....    0
 Multiplicity           Mult            ....    1
 Number of Electrons    NEL             ....   50
 Basis Dimension        Dim             ....  179

ORBITAL ENERGIES
----------------

  NO   OCC          E(Eh)            E(eV)
   0   2.0000     -18.947974      -515.6006
   1   2.0000     -10.072006      -274.0732
   2   2.0000     -10.017476      -272.5894
   3   2.0000     -10.016478      -272.5622
   4   2.0000     -10.010411      -272.3971
   5   2.0000     -10.007687      -272.3230
   6   2.0000      -0.985216       -26.8091
   7   2.0000      -0.753008       -20.4904
   8   2.0000      -0.712921       -19.3996
   9   2.0000      -0.634954       -17.2780
  10   2.0000      -0.575713       -15.6659
  11   2.0000      -0.527204       -14.3460
  12   2.0000      -0.476780       -12.9739
  13   2.0000      -0.419602       -11.4179
  14   2.0000      -0.412662       -11.2291
  15   2.0000      -0.389170       -10.5898
  16   2.0000      -0.382772       -10.4158
  17   2.0000      -0.346616        -9.4319
  18   2.0000      -0.338458        -9.2099
  19   2.0000      -0.320627        -8.7247
  20   2.0000      -0.316849        -8.6219
  21   2.0000      -0.304423        -8.2838
  22   2.0000      -0.293191        -7.9781
  23   2.0000      -0.272463        -7.4141
  24   2.0000      -0.234945        -6.3932
  25   0.0000       0.074993         2.0407
  26   0.0000       0.112790         3.0692
  27   0.0000       0.122885         3.3439
  28   0.0000       0.125905         3.4260
  29   0.0000       0.140990         3.8365

MULLIKEN ATOMIC CHARGES
-----------------------
   0 C :   -0.543710
   1 C :   -0.272096
   2 C :    0.075113
   3 C :   -0.290610
   4 C :   -0.522220
   5 O :   -0.523923
   6 H :    0.162855
   7 H :    0.164626
   8 H :    0.159648
   9 H :    0.156068
  10 H :    0.154487
  11 H :    0.146774
  12 H :    0.162663
  13 H :    0.156907
  14 H :    0.154127
  15 H :    0.160752
  16 H :    0.158695
  17 H :    0.339845
Sum of atomic charges:   -0.0000000

LOEWDIN ATOMIC CHARGES
----------------------
   0 C :   -0.428713
   1 C :   -0.285675
   2 C :    0.052339
   3 C :   -0.296754
   4 C :   -0.429034
   5 O :   -0.655318
   6 H :    0.154724
   7 H :    0.158294
   8 H :    0.153680
   9 H :    0.163971
  10 H :    0.162862
  11 H :    0.170157
  12 H :    0.165133
  13 H :    0.165725
  14 H :    0.152517
  15 H :    0.155221
  16 H :    0.155312
  17 H :    0.285558

  Mayer bond orders larger than 0.100000
B(  0-C ,  1-C ) :   0.8743 B(  0-C ,  6-H ) :   0.9729 B(  0-C ,  7-H ) :   0.9817
B(  0-C ,  8-H ) :   0.9688 B(  1-C ,  2-C ) :   0.9330 B(  1-C ,  9-H ) :   0.9742
B(  1-C , 10-H ) :   0.9834 B(  2-C ,  3-C ) :   0.9040 B(  2-C ,  5-O ) :   0.8286
B(  2-C , 11-H ) :   0.9659 B(  3-C ,  4-C ) :   0.8955 B(  3-C , 12-H ) :   0.9641
B(  3-C , 13-H ) :   0.9667 B(  4-C , 14-H ) :   0.9736 B(  4-C , 15-H ) :   0.9715
B(  4-C , 16-H ) :   0.9817 B(  5-O , 17-H ) :   0.8763

Dispersion correction           -0.004306591
FINAL SINGLE POINT ENERGY      -272.907737392158

DIPOLE MOMENT
-------------

Method             : SCF
Type of density    : Electron Density
Multiplicity       :   1
Irrep              :   0
Energy             :  -272.9130050458488199 Eh
Relativity type    :
Basis              : AO
                                X                 Y                 Z
Electronic contribution:     -0.373785266      -2.955737532       0.863712353
Nuclear contribution   :      1.110477754       3.398857841      -0.659670007
                        -----------------------------------------
Total Dipole Moment    :      0.736692488       0.443120309       0.204042346
                        -----------------------------------------
Magnitude (a.u.)       :      0.883574959
Magnitude (Debye)      :      2.245869064

Rotational constants in cm-1:             0.185560             0.072868             0.062588
Rotational constants in MHz :          5562.949161          2184.526946          1876.353113

                             ****ORCA TERMINATED NORMALLY****
TOTAL RUN TIME: 0 days 0 hours 0 minutes 27 seconds 624 msec
