                         Program Version 6.0.0  -   RELEASE  -
|  1> ! r2scan-3c def2/J RI DEFGRID2 scfconv6 printgap
|  2> %output
|  3>     printlevel normal
|  4> end
|  5> * xyz 0 1
|  6> C -2.9081045806 0.8443057692 -0.430417006
|  7> C -2.3827757293 -0.1974740078 0.5514675942
|  8> C -1.16221404 -0.9685699617 0.0332123259
|  9> C 0.1856850213 -0.3434202534 0.3885684914
| 10> C 1.3638738014 -1.2250074825 -0.038093459
| 11> C 2.5832750968 -0.2981581324 0.0068889642
| 12> C 2.0286538858 1.1312676758 -0.1489406802
| 13> C 0.5111172957 0.9796290473 -0.306474912
| 14> H -2.1570089663 1.5977407528 -0.6462814947
| 15> H -3.1957473393 0.3694764435 -1.3658827576
| 16> H -3.7830631917 1.3416417506 -0.0176574791
| 17> H -2.1302181738 0.2861896015 1.4971851184
| 18> H -3.1874156324 -0.9079524227 0.7542441453
| 19> H -1.1754957917 -1.9741312163 0.4614680345
| 20> H -1.2367089158 -1.0757355606 -1.051359427
| 21> H 0.2310935607 -0.1939201013 1.4729148773
| 22> H 1.4838445709 -2.0967750383 0.603678536
| 23> H 1.1939886802 -1.5753639897 -1.0577736821
| 24> H 3.1002641726 -0.4003714987 0.9610904777
| 25> H 3.2942879784 -0.5426993128 -0.7810350006
| 26> H 2.2547961797 1.7205950306 0.740081173
| 27> H 2.4661396927 1.644378183 -1.004254097
| 28> H -0.0217408201 1.8243359086 0.1264522221
| 29> H 0.2471058027 0.9052820608 -1.3627328802
| 30> *
| 31>
| 32>                          ****END OF INPUT****

CARTESIAN COORDINATES (ANGSTROEM)
---------------------------------
  C     -2.908105    0.844306   -0.430417
  C     -2.382776   -0.197474    0.551468
  C     -1.162214   -0.968570    0.033212
  C      0.185685   -0.343420    0.388568
  C      1.363874   -1.225007   -0.038093
  C      2.583275   -0.298158    0.006889
  C      2.028654    1.131268   -0.148941
  C      0.511117    0.979629   -0.306475
  H     -2.157009    1.597741   -0.646281
  H     -3.195747    0.369476   -1.365883
  H     -3.783063    1.341642   -0.017657
  H     -2.130218    0.286190    1.497185
  H     -3.187416   -0.907952    0.754244
  H     -1.175496   -1.974131    0.461468
  H     -1.236709   -1.075736   -1.051359
  H      0.231094   -0.193920    1.472915
  H      1.483845   -2.096775    0.603679
  H      1.193989   -1.575364   -1.057774
  H      3.100264   -0.400371    0.961090
  H      3.294288   -0.542699   -0.781035
  H      2.254796    1.720595    0.740081
  H      2.466140    1.644378   -1.004254
  H     -0.021741    1.824336    0.126452
  H      0.247106    0.905282   -1.362733

 Total Charge           Charge          ....    0
 Multiplicity           Mult            ....    1
 Number of Electrons    NEL             ....   64
 Basis Dimension        Dim             ....  232

ORBITAL ENERGIES
----------------

  NO   OCC          E(Eh)            E(eV)
   0   2.0000     -10.024556      -272.7820
   1   2.0000     -10.020604      -272.6745
   2   2.0000     -10.018106      -272.6065
   3   2.0000     -10.017664      -272.5945
   4   2.0000     -10.017247      -272.5832
   5   2.0000     -10.016936      -272.5747
   6   2.0000     -10.016167      -272.5538
   7   2.0000     -10.011571      -272.4287
   8   2.0000      -0.804941       -21.9036
   9   2.0000      -0.747532       -20.3414
  10   2.0000      -0.686340       -18.6763
  11   2.0000      -0.670868       -18.2552
  12   2.0000      -0.622740       -16.9456
  13   2.0000      -0.548525       -14.9261
  14   2.0000      -0.525591       -14.3021
  15   2.0000      -0.520794       -14.1715
  16   2.0000      -0.449955       -12.2439
  17   2.0000      -0.435861       -11.8604
  18   2.0000      -0.410555       -11.1718
  19   2.0000      -0.392867       -10.6905
  20   2.0000      -0.389471       -10.5980
  21   2.0000      -0.379038       -10.3141
  22   2.0000      -0.348513        -9.4835
  23   2.0000      -0.332527        -9.0485
  24   2.0000      -0.315388        -8.5821
  25   2.0000      -0.303252        -8.2519
  26   2.0000      -0.300628        -8.1805
  27   2.0000      -0.299500        -8.1498
  28   2.0000      -0.284720        -7.7476
  29   2.0000      -0.279442        -7.6040
  30   2.0000      -0.272320        -7.4102
  31   2.0000      -0.269617        -7.3366
  32   0.0000       0.083092         2.2610
  33   0.0000       0.092197         2.5088
  34   0.0000       0.102195         2.7809
  35   0.0000       0.111532         3.0349
  36   0.0000       0.122328         3.3287

MULLIKEN ATOMIC CHARGES
-----------------------
   0 C :   -0.498758
   1 C :   -0.226506
   2 C :   -0.248728
   3 C :   -0.069011
   4 C :   -0.356354
   5 C :   -0.289581
   6 C :   -0.338514
   7 C :   -0.378740
   8 H :    0.153020
   9 H :    0.145904
  10 H :    0.144197
  11 H :    0.132941
  12 H :    0.139177
  13 H :    0.145051
  14 H :    0.142768
  15 H :    0.164201
  16 H :    0.153654
  17 H :    0.158025
  18 H :    0.149850
  19 H :    0.149928
  20 H :    0.150861
  21 H :    0.150855
  22 H :    0.159829
  23 H :    0.165932
Sum of atomic charges:    0.0000000

LOEWDIN ATOMIC CHARGES
----------------------
   0 C :   -0.426468
   1 C :   -0.314908
   2 C :   -0.299361
   3 C :   -0.224261
   4 C :   -0.298945
   5 C :   -0.306647
   6 C :   -0.306549
   7 C :   -0.302890
   8 H :    0.151283
   9 H :    0.148639
  10 H :    0.149026
  11 H :    0.152651
  12 H :    0.151356
  13 H :    0.158531
  14 H :    0.157319
  15 H :    0.160161
  16 H :    0.157636
  17 H :    0.157773
  18 H :    0.155000
  19 H :    0.155067
  20 H :    0.155165
  21 H :    0.155418
  22 H :    0.157343
  23 H :    0.157661

  Mayer bond orders larger than 0.100000
B(  0-C ,  1-C ) :   0.9159 B(  0-C ,  8-H ) :   0.9740 B(  0-C ,  9-H ) :   0.9872
B(  0-C , 10-H ) :   0.9746 B(  1-C ,  2-C ) :   0.8606 B(  1-C , 11-H ) :   0.9767
B(  1-C , 12-H ) :   0.9689 B(  2-C ,  3-C ) :   0.9127 B(  2-C , 13-H ) :   0.9676
B(  2-C , 14-H ) :   0.9940 B(  3-C ,  4-C ) :   0.8859 B(  3-C ,  7-C ) :   0.8609
B(  3-C , 15-H ) :   0.9684 B(  4-C ,  5-C ) :   0.9039 B(  4-C , 16-H ) :   0.9513
B(  4-C , 17-H ) :   1.0207 B(  5-C ,  6-C ) :   0.9202 B(  5-C , 18-H ) :   0.9797
B(  5-C , 19-H ) :   0.9795 B(  6-C ,  7-C ) :   0.9154 B(  6-C , 20-H ) :   0.9851
B(  6-C , 21-H ) :   0.9741 B(  7-C , 22-H ) :   0.9532 B(  7-C , 23-H ) :   1.0061

Dispersion correction           -0.007026354
FINAL SINGLE POINT ENERGY      -314.379781666049

DIPOLE MOMENT
-------------

Method             : SCF
Type of density    : Electron Density
Multiplicity       :   1
Irrep              :   0
Energy             :  -314.3829904057947147 Eh
Relativity type    :
Basis              : AO
                                X                 Y                 Z
Electronic contribution:      2.451887980      -0.887094143       0.669222177
Nuclear contribution   :     -2.454120237       0.865634209      -0.628439990
                        -----------------------------------------
Total Dipole Moment    :     -0.002232257      -0.021459933       0.040782188
                        -----------------------------------------
Magnitude (a.u.)       :      0.046137821
Magnitude (Debye)      :      0.117273022

Rotational constants in cm-1:             0.141177             0.037836             0.032216
Rotational constants in MHz :          4232.374201          1134.300080           965.801597

                             ****ORCA TERMINATED NORMALLY****
TOTAL RUN TIME: 0 days 0 hours 0 minutes 25 seconds 335 msec
