                         Program Version 6.0.0  -   RELEASE  -
|  1> ! r2scan-3c def2/J RI DEFGRID2 scfconv6 printgap
|  2> %output
|  3>     printlevel normal
|  4> end
|  5> %cpcm
|  6>     smd true
|  7>     smdsolvent "water"
|  8> end
|  9> * xyz 0 1
| 10> C -2.9081045806 0.8443057692 -0.430417006
| 11> C -2.3827757293 -0.1974740078 0.5514675942
| 12> C -1.16221404 -0.9685699617 0.0332123259
| 13> C 0.1856850213 -0.3434202534 0.3885684914
| 14> C 1.3638738014 -1.2250074825 -0.038093459
| 15> C 2.5832750968 -0.2981581324 0.0068889642
| 16> C 2.0286538858 1.1312676758 -0.1489406802
| 17> C 0.5111172957 0.9796290473 -0.306474912
| 18> H -2.1570089663 1.5977407528 -0.6462814947
| 19> H -3.1957473393 0.3694764435 -1.3658827576
| 20> H -3.7830631917 1.3416417506 -0.0176574791
| 21> H -2.1302181738 0.2861896015 1.4971851184
| 22> H -3.1874156324 -0.9079524227 0.7542441453
| 23> H -1.1754957917 -1.9741312163 0.4614680345
| 24> H -1.2367089158 -1.0757355606 -1.051359427
| 25> H 0.2310935607 -0.1939201013 1.4729148773
| 26> H 1.4838445709 -2.0967750383 0.603678536
| 27> H 1.1939886802 -1.5753639897 -1.0577736821
| 28> H 3.1002641726 -0.4003714987 0.9610904777
| 29> H 3.2942879784 -0.5426993128 -0.7810350006
| 30> H 2.2547961797 1.7205950306 0.740081173
| 31> H 2.4661396927 1.644378183 -1.004254097
| 32> H -0.0217408201 1.8243359086 0.1264522221
| 33> H 0.2471058027 0.9052820608 -1.3627328802
| 34> *
| 35>
| 36>                          ****END OF INPUT****

CARTESIAN COORDINATES (ANGSTROEM)
---------------------------------
  C     -2.908105    0.844306   -0.430417
  C     -2.382776   -0.197474    0.551468
  C     -1.162214   -0.968570    0.033212
  C      0.185685   -0.343420    0.388568
  C      1.363874   -1.225007   -0.038093
  C      2.583275   -0.298158    0.006889
  C      2.028654    1.131268   -0.148941
  C      0.511117    0.979629   -0.306475
  H     -2.157009    1.597741   -0.646281
  H     -3.195747    0.369476   -1.365883
  H     -3.783063    1.341642   -0.017657
  H     -2.130218    0.286190    1.497185
  H     -3.187416   -0.907952    0.754244
  H     -1.175496   -1.974131    0.461468
  H     -1.236709   -1.075736   -1.051359
  H      0.231094   -0.193920    1.472915
  H      1.483845   -2.096775    0.603679
  H      1.193989   -1.575364   -1.057774
  H      3.100264   -0.400371    0.961090
  H      3.294288   -0.542699   -0.781035
  H      2.254796    1.720595    0.740081
  H      2.466140    1.644378   -1.004254
  H     -0.021741    1.824336    0.126452
  H      0.247106    0.905282   -1.362733

 Total Charge           Charge          ....    0
 Multiplicity           Mult            ....    1
 Number of Electrons    NEL             ....   64
 Basis Dimension        Dim             ....  232

ORBITAL ENERGIES
----------------

  NO   OCC          E(Eh)            E(eV)
   0   2.0000     -10.017016      -272.5769
   1   2.0000     -10.013985      -272.4944
   2   2.0000     -10.010957      -272.4120
   3   2.0000     -10.010866      -272.4095
   4   2.0000     -10.010706      -272.4052
   5   2.0000     -10.009179      -272.3636
   6   2.0000     -10.009131      -272.3623
   7   2.0000     -10.005362      -272.2597
   8   2.0000      -0.797910       -21.7122
   9   2.0000      -0.741109       -20.1666
  10   2.0000      -0.679922       -18.5016
  11   2.0000      -0.664112       -18.0714
  12   2.0000      -0.616448       -16.7744
  13   2.0000      -0.542268       -14.7559
  14   2.0000      -0.519159       -14.1270
  15   2.0000      -0.513484       -13.9726
  16   2.0000      -0.442900       -12.0519
  17   2.0000      -0.429113       -11.6768
  18   2.0000      -0.403994       -10.9932
  19   2.0000      -0.386491       -10.5170
  20   2.0000      -0.382735       -10.4147
  21   2.0000      -0.371788       -10.1169
  22   2.0000      -0.341901        -9.3036
  23   2.0000      -0.326076        -8.8730
  24   2.0000      -0.308930        -8.4064
  25   2.0000      -0.296845        -8.0776
  26   2.0000      -0.293973        -7.9994
  27   2.0000      -0.292576        -7.9614
  28   2.0000      -0.276794        -7.5319
  29   2.0000      -0.272325        -7.4103
  30   2.0000      -0.265436        -7.2229
  31   2.0000      -0.262931        -7.1547
  32   0.0000       0.090772         2.4700
  33   0.0000       0.099841         2.7168
  34   0.0000       0.109217         2.9719
  35   0.0000       0.117782         3.2050
  36   0.0000       0.127262         3.4630

MULLIKEN ATOMIC CHARGES
-----------------------
   0 C :   -0.535045
   1 C :   -0.242185
   2 C :   -0.271063
   3 C :   -0.060711
   4 C :   -0.377361
   5 C :   -0.307148
   6 C :   -0.355587
   7 C :   -0.394522
   8 H :    0.161189
   9 H :    0.156898
  10 H :    0.153431
  11 H :    0.142635
  12 H :    0.147148
  13 H :    0.152099
  14 H :    0.153279
  15 H :    0.172918
  16 H :    0.161737
  17 H :    0.166093
  18 H :    0.158198
  19 H :    0.157650
  20 H :    0.159259
  21 H :    0.158385
  22 H :    0.169875
  23 H :    0.172830
Sum of atomic charges:    0.0000000

LOEWDIN ATOMIC CHARGES
----------------------
   0 C :   -0.434721
   1 C :   -0.317844
   2 C :   -0.302911
   3 C :   -0.223469
   4 C :   -0.303240
   5 C :   -0.311416
   6 C :   -0.311418
   7 C :   -0.305416
   8 H :    0.153014
   9 H :    0.151152
  10 H :    0.150955
  11 H :    0.154845
  12 H :    0.153049
  13 H :    0.159753
  14 H :    0.159608
  15 H :    0.162639
  16 H :    0.159222
  17 H :    0.159506
  18 H :    0.156796
  19 H :    0.156616
  20 H :    0.156971
  21 H :    0.156923
  22 H :    0.159964
  23 H :    0.159421

  Mayer bond orders larger than 0.100000
B(  0-C ,  1-C ) :   0.9064 B(  0-C ,  8-H ) :   0.9732 B(  0-C ,  9-H ) :   0.9839
B(  0-C , 10-H ) :   0.9724 B(  1-C ,  2-C ) :   0.8559 B(  1-C , 11-H ) :   0.9784
B(  1-C , 12-H ) :   0.9692 B(  2-C ,  3-C ) :   0.9081 B(  2-C , 13-H ) :   0.9678
B(  2-C , 14-H ) :   0.9934 B(  3-C ,  4-C ) :   0.8824 B(  3-C ,  7-C ) :   0.8585
B(  3-C , 15-H ) :   0.9672 B(  4-C ,  5-C ) :   0.9006 B(  4-C , 16-H ) :   0.9506
B(  4-C , 17-H ) :   1.0187 B(  5-C ,  6-C ) :   0.9135 B(  5-C , 18-H ) :   0.9786
B(  5-C , 19-H ) :   0.9779 B(  6-C ,  7-C ) :   0.9100 B(  6-C , 20-H ) :   0.9847
B(  6-C , 21-H ) :   0.9723 B(  7-C , 22-H ) :   0.9529 B(  7-C , 23-H ) :   1.0037

Dispersion correction           -0.007026354
FINAL SINGLE POINT ENERGY      -314.377045221314

DIPOLE MOMENT
-------------

Method             : SCF
Type of density    : Electron Density
Multiplicity       :   1
Irrep              :   0
Energy             :  -314.3802539610595659 Eh
Relativity type    :
Basis              : AO
                                X                 Y                 Z
Electronic contribution:      2.435495296      -0.886795582       0.682186162
Nuclear contribution   :     -2.454120237       0.865634209      -0.628439990
                        -----------------------------------------
Total Dipole Moment    :     -0.018624941      -0.021161372       0.053746172
                        -----------------------------------------
Magnitude (a.u.)       :      0.060690552
Magnitude (Debye)      :      0.154263123

Rotational constants in cm-1:             0.141177             0.037836             0.032216
Rotational constants in MHz :          4232.374201          1134.300080           965.801597

                             ****ORCA TERMINATED NORMALLY****
TOTAL RUN TIME: 0 days 0 hours 0 minutes 30 seconds 117 msec
