                         Program Version 6.0.0  -   RELEASE  -
|  1> ! pbe def2-sv(p) def2/J RI DEFGRID1 loosescf d4 GCP(DFT/SV(P)) printgap
|  2> %output
|  3>     printlevel normal
|  4> end
|  5> * xyz 0 1
|  6> C -2.5834448567 -1.7458363182 1.701386382
|  7> C -3.4042466097 -0.7832998332 0.8518571347
|  8> C -2.7741562819 -0.3863090007 -0.4920211218
|  9> H -3.3930503708 0.4201553874 -0.9043633995
| 10> C -2.745380163 -1.5131846289 -1.5159094497
| 11> N -1.4571600997 0.2529790444 -0.2866376237
| 12> C -0.2801873826 -0.4901556231 -0.2181654916
| 13> O -0.2560952739 -1.702941191 -0.2995606181
| 14> C 0.9258863873 0.3015647318 -0.0413460484
| 15> C 0.9161704472 1.6482777358 0.1007447317
| 16> N -0.3050364434 2.257321277 0.0633153167
| 17> C -1.502884036 1.6195226322 -0.1147251223
| 18> O -2.5409637523 2.2597005156 -0.1233209188
| 19> C 2.0925026702 2.5303559311 0.2971191094
| 20> Br 2.5269040513 -0.7234046914 0.0029445683
| 21> H -2.3326752987 -2.6454850558 1.1468854281
| 22> H -1.654537025 -1.2853775464 2.0333233119
| 23> H -3.1520648884 -2.0297215156 2.583102377
| 24> H -4.3716513415 -1.2340771206 0.6287963265
| 25> H -3.5858830535 0.1323038344 1.4206224142
| 26> H -2.237456354 -2.3943370794 -1.1398787027
| 27> H -3.7703584654 -1.772505734 -1.7646741554
| 28> H -2.2401132529 -1.1861000476 -2.4218669933
| 29> H -0.361516785 3.2643402088 0.1796425463
| 30> H 1.9986490299 3.0666623007 1.2391727236
| 31> H 2.1415317677 3.2627607346 -0.5059870603
| 32> H 3.0125779992 1.9547817739 0.3081191258
| 33> *
| 34>
| 35>                          ****END OF INPUT****

CARTESIAN COORDINATES (ANGSTROEM)
---------------------------------
  C     -2.583445   -1.745836    1.701386
  C     -3.404247   -0.783300    0.851857
  C     -2.774156   -0.386309   -0.492021
  H     -3.393050    0.420155   -0.904363
  C     -2.745380   -1.513185   -1.515909
  N     -1.457160    0.252979   -0.286638
  C     -0.280187   -0.490156   -0.218165
  O     -0.256095   -1.702941   -0.299561
  C      0.925886    0.301565   -0.041346
  C      0.916170    1.648278    0.100745
  N     -0.305036    2.257321    0.063315
  C     -1.502884    1.619523   -0.114725
  O     -2.540964    2.259701   -0.123321
  C      2.092503    2.530356    0.297119
  Br     2.526904   -0.723405    0.002945
  H     -2.332675   -2.645485    1.146885
  H     -1.654537   -1.285378    2.033323
  H     -3.152065   -2.029722    2.583102
  H     -4.371651   -1.234077    0.628796
  H     -3.585883    0.132304    1.420622
  H     -2.237456   -2.394337   -1.139879
  H     -3.770358   -1.772506   -1.764674
  H     -2.240113   -1.186100   -2.421867
  H     -0.361517    3.264340    0.179643
  H      1.998649    3.066662    1.239173
  H      2.141532    3.262761   -0.505987
  H      3.012578    1.954782    0.308119

 Total Charge           Charge          ....    0
 Multiplicity           Mult            ....    1
 Number of Electrons    NEL             ....  132
 Basis Dimension        Dim             ....  240

ORBITAL ENERGIES
----------------

  NO   OCC          E(Eh)            E(eV)
   0   2.0000    -480.940481    -13087.0558
   1   2.0000     -61.782224     -1681.1798
   2   2.0000     -55.712920     -1516.0256
   3   2.0000     -55.709792     -1515.9405
   4   2.0000     -55.709607     -1515.9355
   5   2.0000     -18.734971      -509.8045
   6   2.0000     -18.731115      -509.6996
   7   2.0000     -14.066255      -382.7623
   8   2.0000     -14.055137      -382.4597
   9   2.0000     -10.033448      -273.0240
  10   2.0000     -10.003840      -272.2183
  11   2.0000      -9.981237      -271.6033
  12   2.0000      -9.951107      -270.7834
  13   2.0000      -9.933136      -270.2944
  14   2.0000      -9.921594      -269.9803
  15   2.0000      -9.886151      -269.0159
  16   2.0000      -9.872643      -268.6483
  17   2.0000      -9.868531      -268.5364
  18   2.0000      -8.407431      -228.7778
  19   2.0000      -6.289847      -171.1554
  20   2.0000      -6.274982      -170.7510
  21   2.0000      -6.274424      -170.7358
  22   2.0000      -2.490863       -67.7798
  23   2.0000      -2.487289       -67.6826
  24   2.0000      -2.486879       -67.6714
  25   2.0000      -2.475689       -67.3669
  26   2.0000      -2.475668       -67.3663
  27   2.0000      -0.987635       -26.8749
  28   2.0000      -0.948141       -25.8002
  29   2.0000      -0.897721       -24.4282
  30   2.0000      -0.860324       -23.4106
  31   2.0000      -0.766510       -20.8578
  32   2.0000      -0.728258       -19.8169
  33   2.0000      -0.707810       -19.2605
  34   2.0000      -0.666915       -18.1477
  35   2.0000      -0.649324       -17.6690
  36   2.0000      -0.607898       -16.5417
  37   2.0000      -0.602914       -16.4061
  38   2.0000      -0.568835       -15.4788
  39   2.0000      -0.532375       -14.4866
  40   2.0000      -0.528314       -14.3762
  41   2.0000      -0.490276       -13.3411
  42   2.0000      -0.455400       -12.3921
  43   2.0000      -0.430080       -11.7031
  44   2.0000      -0.419790       -11.4231
  45   2.0000      -0.413817       -11.2605
  46   2.0000      -0.408324       -11.1111
  47   2.0000      -0.387614       -10.5475
  48   2.0000      -0.386861       -10.5270
  49   2.0000      -0.383267       -10.4292
  50   2.0000      -0.372927       -10.1479
  51   2.0000      -0.362773        -9.8715
  52   2.0000      -0.359729        -9.7887
  53   2.0000      -0.345811        -9.4100
  54   2.0000      -0.339959        -9.2507
  55   2.0000      -0.334084        -9.0909
  56   2.0000      -0.321737        -8.7549
  57   2.0000      -0.304433        -8.2840
  58   2.0000      -0.294617        -8.0169
  59   2.0000      -0.284400        -7.7389
  60   2.0000      -0.273627        -7.4458
  61   2.0000      -0.251910        -6.8548
  62   2.0000      -0.240484        -6.5439
  63   2.0000      -0.233034        -6.3412
  64   2.0000      -0.213315        -5.8046
  65   2.0000      -0.206527        -5.6199
  66   0.0000      -0.073324        -1.9952
  67   0.0000      -0.031705        -0.8627
  68   0.0000      -0.024004        -0.6532
  69   0.0000       0.016042         0.4365
  70   0.0000       0.043641         1.1875

MULLIKEN ATOMIC CHARGES
-----------------------
   0 C :   -0.273134
   1 C :   -0.157555
   2 C :   -0.066761
   3 H :    0.105635
   4 C :   -0.236623
   5 N :   -0.244816
   6 C :    0.185763
   7 O :   -0.176517
   8 C :   -0.200728
   9 C :    0.020761
  10 N :   -0.201314
  11 C :    0.169112
  12 O :   -0.210476
  13 C :   -0.212564
  14 Br:    0.007632
  15 H :    0.115611
  16 H :    0.108179
  17 H :    0.099596
  18 H :    0.088651
  19 H :    0.095283
  20 H :    0.141427
  21 H :    0.099685
  22 H :    0.101046
  23 H :    0.246392
  24 H :    0.130371
  25 H :    0.130437
  26 H :    0.134906
Sum of atomic charges:   -0.0000000

LOEWDIN ATOMIC CHARGES
----------------------
   0 C :   -0.344434
   1 C :   -0.226970
   2 C :   -0.075539
   3 H :    0.134995
   4 C :   -0.341341
   5 N :   -0.003018
   6 C :    0.018954
   7 O :   -0.158781
   8 C :   -0.213805
   9 C :   -0.007881
  10 N :   -0.088664
  11 C :    0.039762
  12 O :   -0.198398
  13 C :   -0.333757
  14 Br:    0.137510
  15 H :    0.124071
  16 H :    0.117338
  17 H :    0.118909
  18 H :    0.122036
  19 H :    0.120452
  20 H :    0.130738
  21 H :    0.122810
  22 H :    0.122987
  23 H :    0.254676
  24 H :    0.143453
  25 H :    0.143421
  26 H :    0.140477

  Mayer bond orders larger than 0.100000
B(  0-C ,  1-C ) :   1.1742 B(  0-C , 15-H ) :   0.9471 B(  0-C , 16-H ) :   0.9414
B(  0-C , 17-H ) :   0.9460 B(  1-C ,  2-C ) :   1.0949 B(  1-C , 18-H ) :   0.9216
B(  1-C , 19-H ) :   0.9124 B(  2-C ,  3-H ) :   0.8768 B(  2-C ,  4-C ) :   1.1218
B(  2-C ,  5-N ) :   0.9097 B(  4-C , 20-H ) :   0.9240 B(  4-C , 21-H ) :   0.9364
B(  4-C , 22-H ) :   0.9436 B(  5-N ,  6-C ) :   1.0395 B(  5-N , 11-C ) :   1.0758
B(  6-C ,  7-O ) :   2.0730 B(  6-C ,  8-C ) :   1.0269 B(  8-C ,  9-C ) :   1.6415
B(  8-C , 14-Br) :   1.0566 B(  9-C , 10-N ) :   1.1745 B(  9-C , 13-C ) :   1.1591
B( 10-N , 11-C ) :   1.1033 B( 10-N , 23-H ) :   0.8390 B( 11-C , 12-O ) :   2.0277
B( 13-C , 24-H ) :   0.9193 B( 13-C , 25-H ) :   0.9197 B( 13-C , 26-H ) :   0.9086

Dispersion correction           -0.034466252
FINAL SINGLE POINT ENERGY     -3182.938472310832

DIPOLE MOMENT
-------------

Method             : SCF
Type of density    : Electron Density
Multiplicity       :   1
Irrep              :   0
Energy             : -3183.0304343575749044 Eh
Relativity type    :
Basis              : AO
                                X                 Y                 Z
Electronic contribution:     42.775263669      -4.988824831      -2.424816398
Nuclear contribution   :    -42.226636381       6.319845514       2.594780595
                        -----------------------------------------
Total Dipole Moment    :      0.548627287       1.331020683       0.169964196
                        -----------------------------------------
Magnitude (a.u.)       :      1.449653678
Magnitude (Debye)      :      3.684726820

Rotational constants in cm-1:             0.026902             0.012394             0.009505
Rotational constants in MHz :           806.509626           371.558287           284.941916

                             ****ORCA TERMINATED NORMALLY****
TOTAL RUN TIME: 0 days 0 hours 0 minutes 21 seconds 727 msec
