                         Program Version 6.0.0  -   RELEASE  -
|  1> ! pbe def2-sv(p) def2/J RI DEFGRID1 loosescf d4 GCP(DFT/SV(P)) printgap
|  2> %output
|  3>     printlevel normal
|  4> end
|  5> * xyz 0 1
|  6> C 2.2982436663 -0.2777411263 -0.7324724297
|  7> C 1.5336256138 -0.5862660489 0.5502526448
|  8> C 0.3379870363 0.3357909249 0.7830038083
|  9> C -0.772875777 0.2559991805 -0.269466302
| 10> H -0.3518680708 0.4798265774 -1.2622010321
| 11> C -1.4510116414 -1.1116967494 -0.3057435059
| 12> O -1.7003228823 1.280488595 0.0688094702
| 13> H 3.2006465044 -0.8820413079 -0.7848304582
| 14> H 2.5844434745 0.7710827975 -0.7602307386
| 15> H 1.6952289068 -0.4934738294 -1.6104664259
| 16> H 1.2041708422 -1.6260810399 0.5383901265
| 17> H 2.2102965138 -0.4688401288 1.399284105
| 18> H -0.1109730527 0.1125312719 1.7532799668
| 19> H 0.6786043339 1.3733158223 0.8135780557
| 20> H -2.2650887507 -1.1123062191 -1.0276001562
| 21> H -0.7384047925 -1.8772489123 -0.5952625299
| 22> H -1.8532583562 -1.3515465283 0.6757452153
| 23> H -2.4527126342 1.2402142335 -0.5367316078
| 24> *
| 25>
| 26>                          ****END OF INPUT****

CARTESIAN COORDINATES (ANGSTROEM)
---------------------------------
  C      2.298244   -0.277741   -0.732472
  C      1.533626   -0.586266    0.550253
  C      0.337987    0.335791    0.783004
  C     -0.772876    0.255999   -0.269466
  H     -0.351868    0.479827   -1.262201
  C     -1.451012   -1.111697   -0.305744
  O     -1.700323    1.280489    0.068809
  H      3.200647   -0.882041   -0.784830
  H      2.584443    0.771083   -0.760231
  H      1.695229   -0.493474   -1.610466
  H      1.204171   -1.626081    0.538390
  H      2.210297   -0.468840    1.399284
  H     -0.110973    0.112531    1.753280
  H      0.678604    1.373316    0.813578
  H     -2.265089   -1.112306   -1.027600
  H     -0.738405   -1.877249   -0.595263
  H     -1.853258   -1.351547    0.675745
  H     -2.452713    1.240214   -0.536732

 Total Charge           Charge          ....    0
 Multiplicity           Mult            ....    1
 Number of Electrons    NEL             ....   50
 Basis Dimension        Dim             ....  108

ORBITAL ENERGIES
----------------

  NO   OCC          E(Eh)            E(eV)
   0   2.0000     -18.734676      -509.7964
   1   2.0000      -9.933760      -270.3114
   2   2.0000      -9.883823      -268.9525
   3   2.0000      -9.876082      -268.7418
   4   2.0000      -9.875677      -268.7308
   5   2.0000      -9.872920      -268.6558
   6   2.0000      -0.911688       -24.8083
   7   2.0000      -0.717755       -19.5311
   8   2.0000      -0.663588       -18.0571
   9   2.0000      -0.610897       -16.6234
  10   2.0000      -0.553048       -15.0492
  11   2.0000      -0.491195       -13.3661
  12   2.0000      -0.454965       -12.3802
  13   2.0000      -0.421081       -11.4582
  14   2.0000      -0.395822       -10.7709
  15   2.0000      -0.374479       -10.1901
  16   2.0000      -0.369120       -10.0443
  17   2.0000      -0.348575        -9.4852
  18   2.0000      -0.329996        -8.9797
  19   2.0000      -0.315844        -8.5945
  20   2.0000      -0.297274        -8.0892
  21   2.0000      -0.291415        -7.9298
  22   2.0000      -0.285157        -7.7595
  23   2.0000      -0.259892        -7.0720
  24   2.0000      -0.208783        -5.6813
  25   0.0000       0.027128         0.7382
  26   0.0000       0.044409         1.2084
  27   0.0000       0.067345         1.8325
  28   0.0000       0.074826         2.0361
  29   0.0000       0.090820         2.4713

MULLIKEN ATOMIC CHARGES
-----------------------
   0 C :   -0.291043
   1 C :   -0.187355
   2 C :   -0.133038
   3 C :    0.002644
   4 H :    0.063021
   5 C :   -0.273101
   6 O :   -0.427942
   7 H :    0.102242
   8 H :    0.100379
   9 H :    0.107954
  10 H :    0.089828
  11 H :    0.087482
  12 H :    0.082610
  13 H :    0.088540
  14 H :    0.090601
  15 H :    0.104359
  16 H :    0.102611
  17 H :    0.290205
Sum of atomic charges:    0.0000000

LOEWDIN ATOMIC CHARGES
----------------------
   0 C :   -0.344010
   1 C :   -0.235154
   2 C :   -0.228091
   3 C :   -0.058145
   4 H :    0.094521
   5 C :   -0.353575
   6 O :   -0.337014
   7 H :    0.119411
   8 H :    0.118613
   9 H :    0.114330
  10 H :    0.113130
  11 H :    0.119313
  12 H :    0.118407
  13 H :    0.120069
  14 H :    0.113949
  15 H :    0.122640
  16 H :    0.122468
  17 H :    0.279137

  Mayer bond orders larger than 0.100000
B(  0-C ,  1-C ) :   1.1484 B(  0-C ,  7-H ) :   0.9507 B(  0-C ,  8-H ) :   0.9549
B(  0-C ,  9-H ) :   0.9494 B(  1-C ,  2-C ) :   1.1138 B(  1-C , 10-H ) :   0.9217
B(  1-C , 11-H ) :   0.9231 B(  2-C ,  3-C ) :   1.0817 B(  2-C , 12-H ) :   0.9119
B(  2-C , 13-H ) :   0.9149 B(  3-C ,  4-H ) :   0.9076 B(  3-C ,  5-C ) :   1.1034
B(  3-C ,  6-O ) :   1.0572 B(  5-C , 14-H ) :   0.9452 B(  5-C , 15-H ) :   0.9307
B(  5-C , 16-H ) :   0.9426 B(  6-O , 17-H ) :   0.8539

Dispersion correction           -0.012793464
FINAL SINGLE POINT ENERGY      -272.304439978128

DIPOLE MOMENT
-------------

Method             : SCF
Type of density    : Electron Density
Multiplicity       :   1
Irrep              :   0
Energy             :  -272.3739984430235950 Eh
Relativity type    :
Basis              : AO
                                X                 Y                 Z
Electronic contribution:     -3.640717537       3.213102938       0.884734531
Nuclear contribution   :      3.540806059      -3.578448507      -1.309636092
                        -----------------------------------------
Total Dipole Moment    :     -0.099911478      -0.365345569      -0.424901561
                        -----------------------------------------
Magnitude (a.u.)       :      0.569210879
Magnitude (Debye)      :      1.446819074

Rotational constants in cm-1:             0.190892             0.066602             0.060409
Rotational constants in MHz :          5722.797473          1996.667685          1811.012451

                             ****ORCA TERMINATED NORMALLY****
TOTAL RUN TIME: 0 days 0 hours 0 minutes 7 seconds 771 msec
