                         Program Version 6.0.0  -   RELEASE  -
|  1> ! pbe def2-sv(p) def2/J RI DEFGRID1 loosescf d4 GCP(DFT/SV(P)) printgap
|  2> %output
|  3>     printlevel normal
|  4> end
|  5> * xyz 0 1
|  6> C 2.4294601149 -0.1306914615 -0.9086283671
|  7> C 1.253637116 -0.2694368049 0.0546387149
|  8> H 1.0800968944 -1.340079775 0.2461114757
|  9> C -0.0111556434 0.3672036065 -0.537395751
| 10> C -1.3093778587 0.0535565173 0.217801824
| 11> C -2.4158207631 0.9990604371 -0.249164794
| 12> C -1.7456887247 -1.3956891111 0.0109690728
| 13> O 1.6424590988 0.3562258983 1.2691549808
| 14> H 3.3281352096 -0.5277192331 -0.4444522189
| 15> H 2.2300041656 -0.6730809873 -1.8272858576
| 16> H 2.5948579599 0.9191480832 -1.1356601403
| 17> H 0.1456334097 1.4485519991 -0.5496441419
| 18> H -0.1149899567 0.0315288322 -1.5702589725
| 19> H -1.1524308844 0.2204662111 1.2899253507
| 20> H -3.344385327 0.7879446565 0.2757631851
| 21> H -2.5887559691 0.8773487311 -1.3160701807
| 22> H -2.1430460226 2.0348556167 -0.0612249149
| 23> H -0.9890716157 -2.0920394124 0.3629859752
| 24> H -2.666295238 -1.5926050085 0.5553255996
| 25> H -1.9234251009 -1.5873750888 -1.0448416925
| 26> H 0.9090632941 0.3190273238 1.8967379592
| 27> *
| 28>
| 29>                          ****END OF INPUT****

CARTESIAN COORDINATES (ANGSTROEM)
---------------------------------
  C      2.429460   -0.130691   -0.908628
  C      1.253637   -0.269437    0.054639
  H      1.080097   -1.340080    0.246111
  C     -0.011156    0.367204   -0.537396
  C     -1.309378    0.053557    0.217802
  C     -2.415821    0.999060   -0.249165
  C     -1.745689   -1.395689    0.010969
  O      1.642459    0.356226    1.269155
  H      3.328135   -0.527719   -0.444452
  H      2.230004   -0.673081   -1.827286
  H      2.594858    0.919148   -1.135660
  H      0.145633    1.448552   -0.549644
  H     -0.114990    0.031529   -1.570259
  H     -1.152431    0.220466    1.289925
  H     -3.344385    0.787945    0.275763
  H     -2.588756    0.877349   -1.316070
  H     -2.143046    2.034856   -0.061225
  H     -0.989072   -2.092039    0.362986
  H     -2.666295   -1.592605    0.555326
  H     -1.923425   -1.587375   -1.044842
  H      0.909063    0.319027    1.896738

 Total Charge           Charge          ....    0
 Multiplicity           Mult            ....    1
 Number of Electrons    NEL             ....   58
 Basis Dimension        Dim             ....  126

ORBITAL ENERGIES
----------------

  NO   OCC          E(Eh)            E(eV)
   0   2.0000     -18.735461      -509.8178
   1   2.0000      -9.933297      -270.2988
   2   2.0000      -9.901550      -269.4349
   3   2.0000      -9.879932      -268.8466
   4   2.0000      -9.876960      -268.7657
   5   2.0000      -9.875689      -268.7312
   6   2.0000      -9.868345      -268.5313
   7   2.0000      -0.912931       -24.8421
   8   2.0000      -0.734691       -19.9920
   9   2.0000      -0.678541       -18.4640
  10   2.0000      -0.614534       -16.7223
  11   2.0000      -0.607894       -16.5416
  12   2.0000      -0.527090       -14.3429
  13   2.0000      -0.502292       -13.6681
  14   2.0000      -0.459494       -12.5035
  15   2.0000      -0.429508       -11.6875
  16   2.0000      -0.401648       -10.9294
  17   2.0000      -0.378379       -10.2962
  18   2.0000      -0.364875        -9.9288
  19   2.0000      -0.352930        -9.6037
  20   2.0000      -0.343154        -9.3377
  21   2.0000      -0.336290        -9.1509
  22   2.0000      -0.326197        -8.8763
  23   2.0000      -0.314686        -8.5630
  24   2.0000      -0.294139        -8.0039
  25   2.0000      -0.289688        -7.8828
  26   2.0000      -0.285602        -7.7716
  27   2.0000      -0.261933        -7.1276
  28   2.0000      -0.208820        -5.6823
  29   0.0000       0.018842         0.5127
  30   0.0000       0.047116         1.2821
  31   0.0000       0.057811         1.5731
  32   0.0000       0.067896         1.8475
  33   0.0000       0.079371         2.1598

MULLIKEN ATOMIC CHARGES
-----------------------
   0 C :   -0.229669
   1 C :    0.012282
   2 H :    0.060127
   3 C :   -0.137239
   4 C :   -0.182576
   5 C :   -0.232243
   6 C :   -0.252015
   7 O :   -0.430067
   8 H :    0.106893
   9 H :    0.095178
  10 H :    0.098428
  11 H :    0.080268
  12 H :    0.071085
  13 H :    0.049623
  14 H :    0.097891
  15 H :    0.094662
  16 H :    0.100856
  17 H :    0.106645
  18 H :    0.099847
  19 H :    0.095326
  20 H :    0.294699
Sum of atomic charges:   -0.0000000

LOEWDIN ATOMIC CHARGES
----------------------
   0 C :   -0.337966
   1 C :   -0.055575
   2 H :    0.094732
   3 C :   -0.232353
   4 C :   -0.160837
   5 C :   -0.327153
   6 C :   -0.331249
   7 O :   -0.335402
   8 H :    0.123784
   9 H :    0.120490
  10 H :    0.121900
  11 H :    0.118329
  12 H :    0.118129
  13 H :    0.101837
  14 H :    0.116673
  15 H :    0.117833
  16 H :    0.117886
  17 H :    0.115524
  18 H :    0.118673
  19 H :    0.118119
  20 H :    0.276628

  Mayer bond orders larger than 0.100000
B(  0-C ,  1-C ) :   1.1197 B(  0-C ,  8-H ) :   0.9448 B(  0-C ,  9-H ) :   0.9461
B(  0-C , 10-H ) :   0.9441 B(  1-C ,  2-H ) :   0.9016 B(  1-C ,  3-C ) :   1.0669
B(  1-C ,  7-O ) :   1.0560 B(  3-C ,  4-C ) :   1.0768 B(  3-C , 11-H ) :   0.9052
B(  3-C , 12-H ) :   0.9034 B(  4-C ,  5-C ) :   1.1134 B(  4-C ,  6-C ) :   1.1071
B(  4-C , 13-H ) :   0.8908 B(  5-C , 14-H ) :   0.9511 B(  5-C , 15-H ) :   0.9498
B(  5-C , 16-H ) :   0.9490 B(  6-C , 17-H ) :   0.9439 B(  6-C , 18-H ) :   0.9487
B(  6-C , 19-H ) :   0.9491 B(  7-O , 20-H ) :   0.8481

Dispersion correction           -0.016066015
FINAL SINGLE POINT ENERGY      -311.518694179503

DIPOLE MOMENT
-------------

Method             : SCF
Type of density    : Electron Density
Multiplicity       :   1
Irrep              :   0
Energy             :  -311.5984376503632802 Eh
Relativity type    :
Basis              : AO
                                X                 Y                 Z
Electronic contribution:      3.748122499       0.889165844       3.049457260
Nuclear contribution   :     -4.323646025      -1.096143653      -3.098296240
                        -----------------------------------------
Total Dipole Moment    :     -0.575523526      -0.206977809      -0.048838980
                        -----------------------------------------
Magnitude (a.u.)       :      0.613557160
Magnitude (Debye)      :      1.559538361

Rotational constants in cm-1:             0.143289             0.044706             0.044004
Rotational constants in MHz :          4295.703173          1340.264440          1319.212679

                             ****ORCA TERMINATED NORMALLY****
TOTAL RUN TIME: 0 days 0 hours 0 minutes 9 seconds 180 msec
