                         Program Version 6.0.0  -   RELEASE  -
|  1> ! pbe def2-sv(p) def2/J RI DEFGRID1 loosescf d4 GCP(DFT/SV(P)) printgap
|  2> %output
|  3>     printlevel normal
|  4> end
|  5> * xyz 0 1
|  6> C -2.4782645615 0.9990535472 -0.3123706987
|  7> C -1.7212923547 -0.0615990942 0.4802343879
|  8> C -0.6002252654 -0.738880924 -0.3198743618
|  9> C 0.8105810536 -0.1866457981 -0.0466115708
| 10> C 0.9291997867 1.3030355624 -0.384926207
| 11> C 1.8275091583 -0.9803969042 -0.8792168565
| 12> O 1.0558826048 -0.3947966089 1.3428555549
| 13> H -1.81886373 1.7946540735 -0.6455879102
| 14> H -3.2603427082 1.4379169748 0.3032387097
| 15> H -2.9444810874 0.5517121641 -1.187744318
| 16> H -1.2956369474 0.3733941521 1.3856348431
| 17> H -2.4357570433 -0.8236822531 0.7977316525
| 18> H -0.5716674802 -1.7984727497 -0.0592229785
| 19> H -0.8069188002 -0.6605297845 -1.3874180229
| 20> H 0.6167379637 1.4801239927 -1.4096464973
| 21> H 1.9615032669 1.63099225 -0.2768205726
| 22> H 0.3104210239 1.8919716836 0.2862054767
| 23> H 1.6049976634 -0.8816737799 -1.9374748972
| 24> H 1.7892270653 -2.0327789184 -0.6079464237
| 25> H 2.8359304473 -0.612720144 -0.7009138949
| 26> H 1.9412076068 -0.0708878525 1.5550466229
| 27> *
| 28>
| 29>                          ****END OF INPUT****

CARTESIAN COORDINATES (ANGSTROEM)
---------------------------------
  C     -2.478265    0.999054   -0.312371
  C     -1.721292   -0.061599    0.480234
  C     -0.600225   -0.738881   -0.319874
  C      0.810581   -0.186646   -0.046612
  C      0.929200    1.303036   -0.384926
  C      1.827509   -0.980397   -0.879217
  O      1.055883   -0.394797    1.342856
  H     -1.818864    1.794654   -0.645588
  H     -3.260343    1.437917    0.303239
  H     -2.944481    0.551712   -1.187744
  H     -1.295637    0.373394    1.385635
  H     -2.435757   -0.823682    0.797732
  H     -0.571667   -1.798473   -0.059223
  H     -0.806919   -0.660530   -1.387418
  H      0.616738    1.480124   -1.409646
  H      1.961503    1.630992   -0.276821
  H      0.310421    1.891972    0.286205
  H      1.604998   -0.881674   -1.937475
  H      1.789227   -2.032779   -0.607946
  H      2.835930   -0.612720   -0.700914
  H      1.941208   -0.070888    1.555047

 Total Charge           Charge          ....    0
 Multiplicity           Mult            ....    1
 Number of Electrons    NEL             ....   58
 Basis Dimension        Dim             ....  126

ORBITAL ENERGIES
----------------

  NO   OCC          E(Eh)            E(eV)
   0   2.0000     -18.737328      -509.8686
   1   2.0000      -9.945238      -270.6237
   2   2.0000      -9.876226      -268.7458
   3   2.0000      -9.873951      -268.6839
   4   2.0000      -9.873590      -268.6740
   5   2.0000      -9.872179      -268.6357
   6   2.0000      -9.867354      -268.5044
   7   2.0000      -0.916209       -24.9313
   8   2.0000      -0.719480       -19.5781
   9   2.0000      -0.676631       -18.4121
  10   2.0000      -0.618567       -16.8321
  11   2.0000      -0.606150       -16.4942
  12   2.0000      -0.529037       -14.3958
  13   2.0000      -0.501747       -13.6532
  14   2.0000      -0.432755       -11.7759
  15   2.0000      -0.417307       -11.3555
  16   2.0000      -0.398503       -10.8438
  17   2.0000      -0.375055       -10.2058
  18   2.0000      -0.366205        -9.9649
  19   2.0000      -0.360988        -9.8230
  20   2.0000      -0.345137        -9.3917
  21   2.0000      -0.338765        -9.2183
  22   2.0000      -0.322656        -8.7799
  23   2.0000      -0.309119        -8.4115
  24   2.0000      -0.289293        -7.8721
  25   2.0000      -0.283832        -7.7235
  26   2.0000      -0.276222        -7.5164
  27   2.0000      -0.259167        -7.0523
  28   2.0000      -0.210777        -5.7355
  29   0.0000       0.020423         0.5558
  30   0.0000       0.055784         1.5180
  31   0.0000       0.069275         1.8851
  32   0.0000       0.073507         2.0002
  33   0.0000       0.080198         2.1823

MULLIKEN ATOMIC CHARGES
-----------------------
   0 C :   -0.292415
   1 C :   -0.164282
   2 C :   -0.103320
   3 C :   -0.077736
   4 C :   -0.230266
   5 C :   -0.208113
   6 O :   -0.420108
   7 H :    0.099661
   8 H :    0.100166
   9 H :    0.096466
  10 H :    0.102388
  11 H :    0.079159
  12 H :    0.078648
  13 H :    0.074845
  14 H :    0.097586
  15 H :    0.082972
  16 H :    0.116167
  17 H :    0.091882
  18 H :    0.102414
  19 H :    0.082252
  20 H :    0.291634
Sum of atomic charges:    0.0000000

LOEWDIN ATOMIC CHARGES
----------------------
   0 C :   -0.343773
   1 C :   -0.237264
   2 C :   -0.216121
   3 C :   -0.015946
   4 C :   -0.340114
   5 C :   -0.337245
   6 O :   -0.319341
   7 H :    0.113588
   8 H :    0.117947
   9 H :    0.114439
  10 H :    0.119792
  11 H :    0.117138
  12 H :    0.120834
  13 H :    0.115779
  14 H :    0.122390
  15 H :    0.112522
  16 H :    0.122797
  17 H :    0.121040
  18 H :    0.120905
  19 H :    0.110754
  20 H :    0.279880

  Mayer bond orders larger than 0.100000
B(  0-C ,  1-C ) :   1.1564 B(  0-C ,  7-H ) :   0.9475 B(  0-C ,  8-H ) :   0.9522
B(  0-C ,  9-H ) :   0.9524 B(  1-C ,  2-C ) :   1.1044 B(  1-C , 10-H ) :   0.9191
B(  1-C , 11-H ) :   0.9265 B(  2-C ,  3-C ) :   1.0581 B(  2-C , 12-H ) :   0.9084
B(  2-C , 13-H ) :   0.9217 B(  3-C ,  4-C ) :   1.0856 B(  3-C ,  5-C ) :   1.0831
B(  3-C ,  6-O ) :   1.0123 B(  4-C , 14-H ) :   0.9356 B(  4-C , 15-H ) :   0.9374
B(  4-C , 16-H ) :   0.9334 B(  5-C , 17-H ) :   0.9381 B(  5-C , 18-H ) :   0.9419
B(  5-C , 19-H ) :   0.9403 B(  6-O , 20-H ) :   0.8545

Dispersion correction           -0.016951060
FINAL SINGLE POINT ENERGY      -311.518654348485

DIPOLE MOMENT
-------------

Method             : SCF
Type of density    : Electron Density
Multiplicity       :   1
Irrep              :   0
Energy             :  -311.5979149491337239 Eh
Relativity type    :
Basis              : AO
                                X                 Y                 Z
Electronic contribution:      2.343910028      -1.921770668       3.357752267
Nuclear contribution   :     -1.929745931       2.133172384      -3.624759633
                        -----------------------------------------
Total Dipole Moment    :      0.414164097       0.211401716      -0.267007366
                        -----------------------------------------
Magnitude (a.u.)       :      0.536204735
Magnitude (Debye)      :      1.362924124

Rotational constants in cm-1:             0.134155             0.053808             0.051963
Rotational constants in MHz :          4021.863107          1613.121960          1557.802791

                             ****ORCA TERMINATED NORMALLY****
TOTAL RUN TIME: 0 days 0 hours 0 minutes 9 seconds 540 msec
