                         Program Version 6.0.0  -   RELEASE  -
|  1> ! pbe def2-sv(p) def2/J RI DEFGRID1 loosescf d4 GCP(DFT/SV(P)) printgap
|  2> %output
|  3>     printlevel normal
|  4> end
|  5> * xyz 0 1
|  6> C 1.8918365167 0.7207142191 -1.0556586072
|  7> C 1.4315834477 -0.2241795095 0.0528626001
|  8> H 2.2022923323 -1.008243925 0.1487443797
|  9> C 0.0902469554 -0.9240499413 -0.2711998881
| 10> C -1.1788326807 -0.2418937914 0.2591129986
| 11> C -1.377020412 1.1636434733 -0.3009001806
| 12> C -2.3887471497 -1.1145293011 -0.0750858547
| 13> O 1.3927644583 0.5170479713 1.261997075
| 14> H 2.8244970614 1.1927140605 -0.7566322319
| 15> H 2.0550698735 0.1607166652 -1.9714709247
| 16> H 1.156912668 1.4971059928 -1.2352669282
| 17> H 0.0149304824 -1.0233124606 -1.3549253927
| 18> H 0.1177257178 -1.9332157212 0.1478116453
| 19> H -1.1045172631 -0.1613807674 1.348705478
| 20> H -1.3624685686 1.1491485806 -1.3885924395
| 21> H -0.5974736904 1.8285163238 0.0603765175
| 22> H -2.3364619719 1.5609275317 0.0240023669
| 23> H -3.2964641603 -0.6757260074 0.3320287842
| 24> H -2.5040616794 -1.2027458804 -1.1531898423
| 25> H -2.2744979988 -2.1130272832 0.3408503505
| 26> H 1.2396937678 -0.0871293155 1.9994083608
| 27> *
| 28>
| 29>                          ****END OF INPUT****

CARTESIAN COORDINATES (ANGSTROEM)
---------------------------------
  C      1.891837    0.720714   -1.055659
  C      1.431583   -0.224180    0.052863
  H      2.202292   -1.008244    0.148744
  C      0.090247   -0.924050   -0.271200
  C     -1.178833   -0.241894    0.259113
  C     -1.377020    1.163643   -0.300900
  C     -2.388747   -1.114529   -0.075086
  O      1.392764    0.517048    1.261997
  H      2.824497    1.192714   -0.756632
  H      2.055070    0.160717   -1.971471
  H      1.156913    1.497106   -1.235267
  H      0.014930   -1.023312   -1.354925
  H      0.117726   -1.933216    0.147812
  H     -1.104517   -0.161381    1.348705
  H     -1.362469    1.149149   -1.388592
  H     -0.597474    1.828516    0.060377
  H     -2.336462    1.560928    0.024002
  H     -3.296464   -0.675726    0.332029
  H     -2.504062   -1.202746   -1.153190
  H     -2.274498   -2.113027    0.340850
  H      1.239694   -0.087129    1.999408

 Total Charge           Charge          ....    0
 Multiplicity           Mult            ....    1
 Number of Electrons    NEL             ....   58
 Basis Dimension        Dim             ....  126

ORBITAL ENERGIES
----------------

  NO   OCC          E(Eh)            E(eV)
   0   2.0000     -18.740587      -509.9573
   1   2.0000      -9.936162      -270.3767
   2   2.0000      -9.891995      -269.1749
   3   2.0000      -9.879232      -268.8276
   4   2.0000      -9.869788      -268.5706
   5   2.0000      -9.868717      -268.5414
   6   2.0000      -9.864361      -268.4229
   7   2.0000      -0.917730       -24.9727
   8   2.0000      -0.727198       -19.7881
   9   2.0000      -0.675657       -18.3856
  10   2.0000      -0.610790       -16.6204
  11   2.0000      -0.603028       -16.4092
  12   2.0000      -0.527347       -14.3498
  13   2.0000      -0.496226       -13.5030
  14   2.0000      -0.455988       -12.4081
  15   2.0000      -0.413337       -11.2475
  16   2.0000      -0.408212       -11.1080
  17   2.0000      -0.376915       -10.2564
  18   2.0000      -0.366014        -9.9597
  19   2.0000      -0.347099        -9.4450
  20   2.0000      -0.338719        -9.2170
  21   2.0000      -0.331798        -9.0287
  22   2.0000      -0.322803        -8.7839
  23   2.0000      -0.313951        -8.5430
  24   2.0000      -0.288547        -7.8518
  25   2.0000      -0.280181        -7.6241
  26   2.0000      -0.277071        -7.5395
  27   2.0000      -0.260968        -7.1013
  28   2.0000      -0.211467        -5.7543
  29   0.0000       0.017199         0.4680
  30   0.0000       0.052725         1.4347
  31   0.0000       0.060682         1.6512
  32   0.0000       0.074461         2.0262
  33   0.0000       0.083279         2.2661

MULLIKEN ATOMIC CHARGES
-----------------------
   0 C :   -0.258834
   1 C :    0.041654
   2 H :    0.057164
   3 C :   -0.155846
   4 C :   -0.172355
   5 C :   -0.254895
   6 C :   -0.234001
   7 O :   -0.420325
   8 H :    0.105581
   9 H :    0.098380
  10 H :    0.107934
  11 H :    0.075468
  12 H :    0.069810
  13 H :    0.052743
  14 H :    0.090003
  15 H :    0.127296
  16 H :    0.091158
  17 H :    0.097628
  18 H :    0.091242
  19 H :    0.092679
  20 H :    0.297517
Sum of atomic charges:   -0.0000000

LOEWDIN ATOMIC CHARGES
----------------------
   0 C :   -0.342840
   1 C :   -0.054547
   2 H :    0.095975
   3 C :   -0.236530
   4 C :   -0.155610
   5 C :   -0.335000
   6 C :   -0.328727
   7 O :   -0.328860
   8 H :    0.123401
   9 H :    0.121522
  10 H :    0.123380
  11 H :    0.118986
  12 H :    0.111264
  13 H :    0.107075
  14 H :    0.113509
  15 H :    0.122215
  16 H :    0.115949
  17 H :    0.116254
  18 H :    0.115511
  19 H :    0.114097
  20 H :    0.282977

  Mayer bond orders larger than 0.100000
B(  0-C ,  1-C ) :   1.1302 B(  0-C ,  8-H ) :   0.9429 B(  0-C ,  9-H ) :   0.9451
B(  0-C , 10-H ) :   0.9398 B(  1-C ,  2-H ) :   0.9155 B(  1-C ,  3-C ) :   1.0370
B(  1-C ,  7-O ) :   1.0612 B(  3-C ,  4-C ) :   1.0935 B(  3-C , 11-H ) :   0.9104
B(  3-C , 12-H ) :   0.9152 B(  4-C ,  5-C ) :   1.1149 B(  4-C ,  6-C ) :   1.1132
B(  4-C , 13-H ) :   0.8896 B(  5-C , 14-H ) :   0.9458 B(  5-C , 15-H ) :   0.9322
B(  5-C , 16-H ) :   0.9458 B(  6-C , 17-H ) :   0.9508 B(  6-C , 18-H ) :   0.9493
B(  6-C , 19-H ) :   0.9497 B(  7-O , 20-H ) :   0.8483

Dispersion correction           -0.016817928
FINAL SINGLE POINT ENERGY      -311.514641992283

DIPOLE MOMENT
-------------

Method             : SCF
Type of density    : Electron Density
Multiplicity       :   1
Irrep              :   0
Energy             :  -311.5943159670412115 Eh
Relativity type    :
Basis              : AO
                                X                 Y                 Z
Electronic contribution:      3.578174854       0.222095830       3.322170539
Nuclear contribution   :     -3.605166755      -0.757541775      -3.225581141
                        -----------------------------------------
Total Dipole Moment    :     -0.026991901      -0.535445945       0.096589398
                        -----------------------------------------
Magnitude (a.u.)       :      0.544757225
Magnitude (Debye)      :      1.384662826

Rotational constants in cm-1:             0.135474             0.051685             0.050028
Rotational constants in MHz :          4061.400073          1549.470833          1499.796251

                             ****ORCA TERMINATED NORMALLY****
TOTAL RUN TIME: 0 days 0 hours 0 minutes 9 seconds 483 msec
