                         Program Version 6.0.0  -   RELEASE  -
|  1> ! wb97x-v def2-tzvp def2/J RIJCOSX DEFGRID2 scfconv7 GCP(DFT/TZ) printgap
|  2> %output
|  3>     printlevel normal
|  4> end
|  5> * xyz 0 1
|  6> C 2.605641326402345 -0.8375387348979002 -0.14213754778691828
|  7> C 1.9983667068914135 0.5637834676460347 -0.15193343477157073
|  8> C 0.56786985487013 0.6225801355372993 0.3973641372153362
|  9> C -0.41188332306719216 -0.18714184362343575 -0.4412330975977385
| 10> S -2.157628616018719 -0.07269943483464629 0.15649066208413356
| 11> H 2.56414212046531 -1.2740295906649295 0.8624963972969177
| 12> H 3.6550049119021235 -0.8113739069155484 -0.45275537715735176
| 13> H 2.0795315599195527 -1.5143007004975817 -0.8230442194152167
| 14> H 2.009411777226091 0.9650564187750275 -1.1735860987548814
| 15> H 2.623113909298367 1.2329219151541992 0.45172844918200306
| 16> H 0.23591605159041817 1.667681864377177 0.42282037539013806
| 17> H 0.552874064714234 0.2550109689761731 1.430809885028919
| 18> H -0.37977813358562573 0.12148512241619705 -1.4909977098258085
| 19> H -0.18424154071556748 -1.2566409754854313 -0.4019973626708655
| 20> H -2.2802312342147175 1.260496615043579 0.01348231477749053
| 21> *
| 22>
| 23>                          ****END OF INPUT****

CARTESIAN COORDINATES (ANGSTROEM)
---------------------------------
  C      2.605641   -0.837539   -0.142138
  C      1.998367    0.563783   -0.151933
  C      0.567870    0.622580    0.397364
  C     -0.411883   -0.187142   -0.441233
  S     -2.157629   -0.072699    0.156491
  H      2.564142   -1.274030    0.862496
  H      3.655005   -0.811374   -0.452755
  H      2.079532   -1.514301   -0.823044
  H      2.009412    0.965056   -1.173586
  H      2.623114    1.232922    0.451728
  H      0.235916    1.667682    0.422820
  H      0.552874    0.255011    1.430810
  H     -0.379778    0.121485   -1.490998
  H     -0.184242   -1.256641   -0.401997
  H     -2.280231    1.260497    0.013482

 Total Charge           Charge          ....    0
 Multiplicity           Mult            ....    1
 Number of Electrons    NEL             ....   50
 Basis Dimension        Dim             ....  221

ORBITAL ENERGIES
----------------

  NO   OCC          E(Eh)            E(eV)
   0   2.0000     -94.118079     -2561.0831
   1   2.0000     -12.080050      -328.7149
   2   2.0000     -12.050054      -327.8986
   3   2.0000     -12.048202      -327.8482
   4   2.0000     -12.039349      -327.6073
   5   2.0000      -9.629312      -262.0269
   6   2.0000      -7.606986      -206.9966
   7   2.0000      -7.605793      -206.9642
   8   2.0000      -7.605336      -206.9517
   9   2.0000      -1.319772       -35.9128
  10   2.0000      -1.261745       -34.3338
  11   2.0000      -1.190363       -32.3914
  12   2.0000      -1.113431       -30.2980
  13   2.0000      -1.046887       -28.4872
  14   2.0000      -0.905437       -24.6382
  15   2.0000      -0.884755       -24.0754
  16   2.0000      -0.870038       -23.6749
  17   2.0000      -0.850971       -23.1561
  18   2.0000      -0.818965       -22.2852
  19   2.0000      -0.813115       -22.1260
  20   2.0000      -0.786307       -21.3965
  21   2.0000      -0.772226       -21.0133
  22   2.0000      -0.759249       -20.6602
  23   2.0000      -0.744073       -20.2473
  24   2.0000      -0.642781       -17.4910
  25   0.0000      -0.199917        -5.4400
  26   0.0000      -0.105395        -2.8679
  27   0.0000      -0.026969        -0.7339
  28   0.0000      -0.020841        -0.5671
  29   0.0000      -0.008464        -0.2303

MULLIKEN ATOMIC CHARGES
-----------------------
   0 C :   -0.363435
   1 C :   -0.156489
   2 C :   -0.171389
   3 C :   -0.198387
   4 S :   -0.216642
   5 H :    0.108979
   6 H :    0.118022
   7 H :    0.111432
   8 H :    0.092513
   9 H :    0.099506
  10 H :    0.092714
  11 H :    0.107072
  12 H :    0.122380
  13 H :    0.125028
  14 H :    0.128697
Sum of atomic charges:   -0.0000000

LOEWDIN ATOMIC CHARGES
----------------------
   0 C :   -0.308574
   1 C :   -0.292042
   2 C :   -0.303302
   3 C :   -0.469850
   4 S :    0.216790
   5 H :    0.117982
   6 H :    0.117482
   7 H :    0.114406
   8 H :    0.130795
   9 H :    0.132969
  10 H :    0.131215
  11 H :    0.134952
  12 H :    0.120816
  13 H :    0.125844
  14 H :    0.030515

  Mayer bond orders larger than 0.100000
B(  0-C ,  1-C ) :   0.9731 B(  0-C ,  5-H ) :   0.9768 B(  0-C ,  6-H ) :   0.9816
B(  0-C ,  7-H ) :   0.9836 B(  1-C ,  2-C ) :   0.9704 B(  1-C ,  8-H ) :   0.9777
B(  1-C ,  9-H ) :   0.9762 B(  2-C ,  3-C ) :   0.9604 B(  2-C , 10-H ) :   0.9725
B(  2-C , 11-H ) :   0.9777 B(  3-C ,  4-S ) :   1.0474 B(  3-C , 12-H ) :   0.9661
B(  3-C , 13-H ) :   0.9667 B(  4-S , 14-H ) :   0.9724

FINAL SINGLE POINT ENERGY      -556.594990447359

DIPOLE MOMENT
-------------

Method             : SCF
Type of density    : Electron Density
Multiplicity       :   1
Irrep              :   0
Energy             :  -556.6055036243585619 Eh
Relativity type    :
Basis              : AO
                                X                 Y                 Z
Electronic contribution:     -9.722781981      -0.285852877       0.881271250
Nuclear contribution   :     10.373531749       0.581210192      -1.071782996
                        -----------------------------------------
Total Dipole Moment    :      0.650749768       0.295357315      -0.190511745
                        -----------------------------------------
Magnitude (a.u.)       :      0.739598492
Magnitude (Debye)      :      1.879909968

Rotational constants in cm-1:             0.391303             0.049827             0.047017
Rotational constants in MHz :         11730.973813          1493.776687          1409.537693

                             ****ORCA TERMINATED NORMALLY****
TOTAL RUN TIME: 0 days 0 hours 1 minutes 9 seconds 365 msec
