                         Program Version 6.0.0  -   RELEASE  -
|  1> ! wb97x-v def2-tzvp def2/J RIJCOSX DEFGRID2 scfconv7 GCP(DFT/TZ) printgap
|  2> %output
|  3>     printlevel normal
|  4> end
|  5> %cpcm
|  6>     smd true
|  7>     smdsolvent "water"
|  8> end
|  9> * xyz 0 1
| 10> C 2.605641326402345 -0.8375387348979002 -0.14213754778691828
| 11> C 1.9983667068914135 0.5637834676460347 -0.15193343477157073
| 12> C 0.56786985487013 0.6225801355372993 0.3973641372153362
| 13> C -0.41188332306719216 -0.18714184362343575 -0.4412330975977385
| 14> S -2.157628616018719 -0.07269943483464629 0.15649066208413356
| 15> H 2.56414212046531 -1.2740295906649295 0.8624963972969177
| 16> H 3.6550049119021235 -0.8113739069155484 -0.45275537715735176
| 17> H 2.0795315599195527 -1.5143007004975817 -0.8230442194152167
| 18> H 2.009411777226091 0.9650564187750275 -1.1735860987548814
| 19> H 2.623113909298367 1.2329219151541992 0.45172844918200306
| 20> H 0.23591605159041817 1.667681864377177 0.42282037539013806
| 21> H 0.552874064714234 0.2550109689761731 1.430809885028919
| 22> H -0.37977813358562573 0.12148512241619705 -1.4909977098258085
| 23> H -0.18424154071556748 -1.2566409754854313 -0.4019973626708655
| 24> H -2.2802312342147175 1.260496615043579 0.01348231477749053
| 25> *
| 26>
| 27>                          ****END OF INPUT****

CARTESIAN COORDINATES (ANGSTROEM)
---------------------------------
  C      2.605641   -0.837539   -0.142138
  C      1.998367    0.563783   -0.151933
  C      0.567870    0.622580    0.397364
  C     -0.411883   -0.187142   -0.441233
  S     -2.157629   -0.072699    0.156491
  H      2.564142   -1.274030    0.862496
  H      3.655005   -0.811374   -0.452755
  H      2.079532   -1.514301   -0.823044
  H      2.009412    0.965056   -1.173586
  H      2.623114    1.232922    0.451728
  H      0.235916    1.667682    0.422820
  H      0.552874    0.255011    1.430810
  H     -0.379778    0.121485   -1.490998
  H     -0.184242   -1.256641   -0.401997
  H     -2.280231    1.260497    0.013482

 Total Charge           Charge          ....    0
 Multiplicity           Mult            ....    1
 Number of Electrons    NEL             ....   50
 Basis Dimension        Dim             ....  221

ORBITAL ENERGIES
----------------

  NO   OCC          E(Eh)            E(eV)
   0   2.0000     -94.115959     -2561.0255
   1   2.0000     -12.068723      -328.4066
   2   2.0000     -12.036831      -327.5388
   3   2.0000     -12.033869      -327.4582
   4   2.0000     -12.024622      -327.2066
   5   2.0000      -9.627340      -261.9732
   6   2.0000      -7.605035      -206.9435
   7   2.0000      -7.603854      -206.9114
   8   2.0000      -7.603614      -206.9048
   9   2.0000      -1.307780       -35.5865
  10   2.0000      -1.251961       -34.0676
  11   2.0000      -1.180753       -32.1299
  12   2.0000      -1.102186       -29.9920
  13   2.0000      -1.033917       -28.1343
  14   2.0000      -0.892621       -24.2895
  15   2.0000      -0.871789       -23.7226
  16   2.0000      -0.857140       -23.3240
  17   2.0000      -0.838877       -22.8270
  18   2.0000      -0.808099       -21.9895
  19   2.0000      -0.800497       -21.7826
  20   2.0000      -0.775074       -21.0908
  21   2.0000      -0.759005       -20.6536
  22   2.0000      -0.745164       -20.2769
  23   2.0000      -0.737884       -20.0788
  24   2.0000      -0.641716       -17.4620
  25   0.0000      -0.194655        -5.2968
  26   0.0000      -0.097124        -2.6429
  27   0.0000      -0.013175        -0.3585
  28   0.0000      -0.008262        -0.2248
  29   0.0000       0.005621         0.1529

MULLIKEN ATOMIC CHARGES
-----------------------
   0 C :   -0.407390
   1 C :   -0.176747
   2 C :   -0.186909
   3 C :   -0.203743
   4 S :   -0.296689
   5 H :    0.119310
   6 H :    0.130313
   7 H :    0.128211
   8 H :    0.105664
   9 H :    0.109936
  10 H :    0.112466
  11 H :    0.107973
  12 H :    0.142026
  13 H :    0.151216
  14 H :    0.164362
Sum of atomic charges:   -0.0000000

LOEWDIN ATOMIC CHARGES
----------------------
   0 C :   -0.314729
   1 C :   -0.292176
   2 C :   -0.303799
   3 C :   -0.464106
   4 S :    0.179007
   5 H :    0.119294
   6 H :    0.118354
   7 H :    0.117780
   8 H :    0.133914
   9 H :    0.134781
  10 H :    0.135190
  11 H :    0.134341
  12 H :    0.126953
  13 H :    0.132137
  14 H :    0.043058

  Mayer bond orders larger than 0.100000
B(  0-C ,  1-C ) :   0.9720 B(  0-C ,  5-H ) :   0.9752 B(  0-C ,  6-H ) :   0.9791
B(  0-C ,  7-H ) :   0.9796 B(  1-C ,  2-C ) :   0.9763 B(  1-C ,  8-H ) :   0.9776
B(  1-C ,  9-H ) :   0.9749 B(  2-C ,  3-C ) :   0.9650 B(  2-C , 10-H ) :   0.9697
B(  2-C , 11-H ) :   0.9743 B(  3-C ,  4-S ) :   1.0227 B(  3-C , 12-H ) :   0.9645
B(  3-C , 13-H ) :   0.9592 B(  4-S , 14-H ) :   0.9670

FINAL SINGLE POINT ENERGY      -556.596944889962

DIPOLE MOMENT
-------------

Method             : SCF
Type of density    : Electron Density
Multiplicity       :   1
Irrep              :   0
Energy             :  -556.6074580669619536 Eh
Relativity type    :
Basis              : AO
                                X                 Y                 Z
Electronic contribution:     -9.545470700      -0.191694471       0.777365831
Nuclear contribution   :     10.373531749       0.581210192      -1.071782996
                        -----------------------------------------
Total Dipole Moment    :      0.828061048       0.389515721      -0.294417165
                        -----------------------------------------
Magnitude (a.u.)       :      0.961295513
Magnitude (Debye)      :      2.443419013

Rotational constants in cm-1:             0.391303             0.049827             0.047017
Rotational constants in MHz :         11730.973813          1493.776687          1409.537693

                             ****ORCA TERMINATED NORMALLY****
TOTAL RUN TIME: 0 days 0 hours 1 minutes 12 seconds 523 msec
