                         Program Version 6.0.0  -   RELEASE  -
|  1> ! pbe def2-sv(p) def2/J RI DEFGRID1 loosescf d4 GCP(DFT/SV(P)) printgap
|  2> %output
|  3>     printlevel normal
|  4> end
|  5> * xyz 0 1
|  6> C 1.790450733 -0.8269172204 1.2042507713
|  7> C 1.473955352 -0.2467429702 -0.1669828491
|  8> C 0.2866193052 0.7229609344 -0.2120826019
|  9> H 0.453479327 1.5024405227 0.5513645559
| 10> C -1.1211072831 0.1265558037 0.0174629747
| 11> C -1.3310028434 -1.1880037433 -0.7300681797
| 12> C -1.4715333975 -0.0185196226 1.4971006284
| 13> O 0.3604634909 1.3243574003 -1.5004804737
| 14> H 2.7653089673 -1.307514757 1.1784885373
| 15> H 1.0582694709 -1.5727115607 1.4986747379
| 16> H 1.8134293267 -0.0429858623 1.9573688287
| 17> H 2.3337708278 0.3281433197 -0.519987257
| 18> H 1.307840383 -1.0449392549 -0.8896788881
| 19> H -1.8212691866 0.8599495868 -0.4057672997
| 20> H -1.0168858709 -1.0838402433 -1.7662442634
| 21> H -0.7637773487 -1.9921858052 -0.2694960575
| 22> H -2.3836778483 -1.4604733522 -0.7132893326
| 23> H -1.3048908178 0.9174957489 2.0253301406
| 24> H -0.8776433795 -0.7917949521 1.972265712
| 25> H -2.520694636 -0.2866048607 1.5977945259
| 26> H -0.3248180702 2.0012297882 -1.5805387139
| 27> *
| 28>
| 29>                          ****END OF INPUT****

CARTESIAN COORDINATES (ANGSTROEM)
---------------------------------
  C      1.790451   -0.826917    1.204251
  C      1.473955   -0.246743   -0.166983
  C      0.286619    0.722961   -0.212083
  H      0.453479    1.502441    0.551365
  C     -1.121107    0.126556    0.017463
  C     -1.331003   -1.188004   -0.730068
  C     -1.471533   -0.018520    1.497101
  O      0.360463    1.324357   -1.500480
  H      2.765309   -1.307515    1.178489
  H      1.058269   -1.572712    1.498675
  H      1.813429   -0.042986    1.957369
  H      2.333771    0.328143   -0.519987
  H      1.307840   -1.044939   -0.889679
  H     -1.821269    0.859950   -0.405767
  H     -1.016886   -1.083840   -1.766244
  H     -0.763777   -1.992186   -0.269496
  H     -2.383678   -1.460473   -0.713289
  H     -1.304891    0.917496    2.025330
  H     -0.877643   -0.791795    1.972266
  H     -2.520695   -0.286605    1.597795
  H     -0.324818    2.001230   -1.580539

 Total Charge           Charge          ....    0
 Multiplicity           Mult            ....    1
 Number of Electrons    NEL             ....   58
 Basis Dimension        Dim             ....  126

ORBITAL ENERGIES
----------------

  NO   OCC          E(Eh)            E(eV)
   0   2.0000     -18.735596      -509.8215
   1   2.0000      -9.931421      -270.2477
   2   2.0000      -9.894301      -269.2376
   3   2.0000      -9.877413      -268.7781
   4   2.0000      -9.874132      -268.6888
   5   2.0000      -9.874048      -268.6865
   6   2.0000      -9.870496      -268.5898
   7   2.0000      -0.912576       -24.8325
   8   2.0000      -0.725372       -19.7384
   9   2.0000      -0.682975       -18.5847
  10   2.0000      -0.611604       -16.6426
  11   2.0000      -0.600083       -16.3291
  12   2.0000      -0.538655       -14.6575
  13   2.0000      -0.487884       -13.2760
  14   2.0000      -0.450733       -12.2651
  15   2.0000      -0.431340       -11.7374
  16   2.0000      -0.400425       -10.8961
  17   2.0000      -0.374921       -10.2021
  18   2.0000      -0.369289       -10.0489
  19   2.0000      -0.353195        -9.6109
  20   2.0000      -0.340889        -9.2761
  21   2.0000      -0.325954        -8.8696
  22   2.0000      -0.320851        -8.7308
  23   2.0000      -0.313317        -8.5258
  24   2.0000      -0.297202        -8.0873
  25   2.0000      -0.288595        -7.8531
  26   2.0000      -0.274775        -7.4770
  27   2.0000      -0.257689        -7.0121
  28   2.0000      -0.208740        -5.6801
  29   0.0000       0.025243         0.6869
  30   0.0000       0.038294         1.0420
  31   0.0000       0.068855         1.8736
  32   0.0000       0.071532         1.9465
  33   0.0000       0.078885         2.1466

MULLIKEN ATOMIC CHARGES
-----------------------
   0 C :   -0.283792
   1 C :   -0.157857
   2 C :    0.045150
   3 H :    0.047717
   4 C :   -0.166590
   5 C :   -0.254764
   6 C :   -0.250788
   7 O :   -0.424667
   8 H :    0.103512
   9 H :    0.115245
  10 H :    0.097411
  11 H :    0.091926
  12 H :    0.090280
  13 H :    0.050955
  14 H :    0.110327
  15 H :    0.102322
  16 H :    0.096635
  17 H :    0.094961
  18 H :    0.102342
  19 H :    0.098307
  20 H :    0.291368
Sum of atomic charges:    0.0000000

LOEWDIN ATOMIC CHARGES
----------------------
   0 C :   -0.341417
   1 C :   -0.235272
   2 C :   -0.042876
   3 H :    0.091287
   4 C :   -0.168556
   5 C :   -0.332250
   6 C :   -0.332434
   7 O :   -0.332510
   8 H :    0.122431
   9 H :    0.114840
  10 H :    0.117307
  11 H :    0.123383
  12 H :    0.120077
  13 H :    0.108364
  14 H :    0.121166
  15 H :    0.117035
  16 H :    0.118267
  17 H :    0.115696
  18 H :    0.118200
  19 H :    0.119233
  20 H :    0.278026

  Mayer bond orders larger than 0.100000
B(  0-C ,  1-C ) :   1.1558 B(  0-C ,  8-H ) :   0.9471 B(  0-C ,  9-H ) :   0.9382
B(  0-C , 10-H ) :   0.9502 B(  1-C ,  2-C ) :   1.0934 B(  1-C , 11-H ) :   0.9152
B(  1-C , 12-H ) :   0.9054 B(  2-C ,  3-H ) :   0.9084 B(  2-C ,  4-C ) :   1.0048
B(  2-C ,  7-O ) :   1.0424 B(  4-C ,  5-C ) :   1.1087 B(  4-C ,  6-C ) :   1.1030
B(  4-C , 13-H ) :   0.8956 B(  5-C , 14-H ) :   0.9413 B(  5-C , 15-H ) :   0.9412
B(  5-C , 16-H ) :   0.9473 B(  6-C , 17-H ) :   0.9463 B(  6-C , 18-H ) :   0.9409
B(  6-C , 19-H ) :   0.9463 B(  7-O , 20-H ) :   0.8502

Dispersion correction           -0.017153018
FINAL SINGLE POINT ENERGY      -311.515269249783

DIPOLE MOMENT
-------------

Method             : SCF
Type of density    : Electron Density
Multiplicity       :   1
Irrep              :   0
Energy             :  -311.5945051252535904 Eh
Relativity type    :
Basis              : AO
                                X                 Y                 Z
Electronic contribution:      0.806497380       3.874285934      -4.004746430
Nuclear contribution   :     -1.196962245      -3.708412011       4.327325502
                        -----------------------------------------
Total Dipole Moment    :     -0.390464865       0.165873923       0.322579072
                        -----------------------------------------
Magnitude (a.u.)       :      0.532948615
Magnitude (Debye)      :      1.354647724

Rotational constants in cm-1:             0.086373             0.074500             0.054732
Rotational constants in MHz :          2589.391609          2233.466766          1640.811616

                             ****ORCA TERMINATED NORMALLY****
TOTAL RUN TIME: 0 days 0 hours 0 minutes 9 seconds 294 msec
