                         Program Version 6.0.0  -   RELEASE  -
|  1> ! pbe def2-sv(p) def2/J RI DEFGRID1 loosescf d4 GCP(DFT/SV(P)) printgap
|  2> %output
|  3>     printlevel normal
|  4> end
|  5> * xyz 0 1
|  6> C -2.2238594588 -0.8018689527 0.1267806042
|  7> C -1.472333333 0.5213291387 0.2199058928
|  8> C -0.2556391794 0.6076391119 -0.7209059963
|  9> C 1.0268659991 0.1500258626 -0.0803350336
| 10> C 1.9627197289 1.0159401652 0.2780301791
| 11> C 1.1913805689 -1.3222329754 0.1460345133
| 12> H -1.5913149256 -1.6396144492 0.4038861821
| 13> H -2.5799091935 -0.9626845095 -0.8886546348
| 14> H -3.0844695448 -0.7908004404 0.7922174713
| 15> H -2.1655904299 1.3256153217 -0.0350124989
| 16> H -1.1422515663 0.688729064 1.2474079178
| 17> H -0.4539660429 0.0097482627 -1.6132606821
| 18> H -0.1290854267 1.6450981303 -1.0352649017
| 19> H 2.8830752714 0.7016077695 0.7415167514
| 20> H 1.8484221945 2.0760928357 0.1250545041
| 21> H 0.5674682758 -1.6459149337 0.9780814763
| 22> H 0.8929363125 -1.8815315452 -0.7382153695
| 23> H 2.2241241198 -1.5621301671 0.3855868502
| 24> *
| 25>
| 26>                          ****END OF INPUT****

CARTESIAN COORDINATES (ANGSTROEM)
---------------------------------
  C     -2.223859   -0.801869    0.126781
  C     -1.472333    0.521329    0.219906
  C     -0.255639    0.607639   -0.720906
  C      1.026866    0.150026   -0.080335
  C      1.962720    1.015940    0.278030
  C      1.191381   -1.322233    0.146035
  H     -1.591315   -1.639614    0.403886
  H     -2.579909   -0.962685   -0.888655
  H     -3.084470   -0.790800    0.792217
  H     -2.165590    1.325615   -0.035012
  H     -1.142252    0.688729    1.247408
  H     -0.453966    0.009748   -1.613261
  H     -0.129085    1.645098   -1.035265
  H      2.883075    0.701608    0.741517
  H      1.848422    2.076093    0.125055
  H      0.567468   -1.645915    0.978081
  H      0.892936   -1.881532   -0.738215
  H      2.224124   -1.562130    0.385587

 Total Charge           Charge          ....    0
 Multiplicity           Mult            ....    1
 Number of Electrons    NEL             ....   48
 Basis Dimension        Dim             ....  108

ORBITAL ENERGIES
----------------

  NO   OCC          E(Eh)            E(eV)
   0   2.0000      -9.895417      -269.2680
   1   2.0000      -9.885501      -268.9982
   2   2.0000      -9.883217      -268.9360
   3   2.0000      -9.878013      -268.7944
   4   2.0000      -9.874068      -268.6870
   5   2.0000      -9.864208      -268.4188
   6   2.0000      -0.736786       -20.0490
   7   2.0000      -0.684562       -18.6279
   8   2.0000      -0.618078       -16.8188
   9   2.0000      -0.599443       -16.3117
  10   2.0000      -0.526985       -14.3400
  11   2.0000      -0.462918       -12.5966
  12   2.0000      -0.417951       -11.3730
  13   2.0000      -0.410479       -11.1697
  14   2.0000      -0.386453       -10.5159
  15   2.0000      -0.371600       -10.1118
  16   2.0000      -0.359187        -9.7740
  17   2.0000      -0.344552        -9.3757
  18   2.0000      -0.330556        -8.9949
  19   2.0000      -0.307491        -8.3673
  20   2.0000      -0.297883        -8.1058
  21   2.0000      -0.289865        -7.8876
  22   2.0000      -0.275520        -7.4973
  23   2.0000      -0.211988        -5.7685
  24   0.0000      -0.009005        -0.2450
  25   0.0000       0.038300         1.0422
  26   0.0000       0.068245         1.8570
  27   0.0000       0.073287         1.9942
  28   0.0000       0.079978         2.1763

MULLIKEN ATOMIC CHARGES
-----------------------
   0 C :   -0.292349
   1 C :   -0.182188
   2 C :   -0.102794
   3 C :   -0.107814
   4 C :   -0.226873
   5 C :   -0.220260
   6 H :    0.103657
   7 H :    0.099539
   8 H :    0.103394
   9 H :    0.087177
  10 H :    0.095558
  11 H :    0.082690
  12 H :    0.075822
  13 H :    0.079202
  14 H :    0.081047
  15 H :    0.124386
  16 H :    0.101487
  17 H :    0.098318
Sum of atomic charges:   -0.0000000

LOEWDIN ATOMIC CHARGES
----------------------
   0 C :   -0.343946
   1 C :   -0.229473
   2 C :   -0.211271
   3 C :   -0.058299
   4 C :   -0.269771
   5 C :   -0.325095
   6 H :    0.115414
   7 H :    0.116783
   8 H :    0.119677
   9 H :    0.118007
  10 H :    0.118544
  11 H :    0.118693
  12 H :    0.121048
  13 H :    0.114748
  14 H :    0.115394
  15 H :    0.130397
  16 H :    0.124320
  17 H :    0.124827

  Mayer bond orders larger than 0.100000
B(  0-C ,  1-C ) :   1.1603 B(  0-C ,  6-H ) :   0.9466 B(  0-C ,  7-H ) :   0.9531
B(  0-C ,  8-H ) :   0.9501 B(  1-C ,  2-C ) :   1.0805 B(  1-C ,  9-H ) :   0.9268
B(  1-C , 10-H ) :   0.9297 B(  2-C ,  3-C ) :   1.0925 B(  2-C , 11-H ) :   0.9083
B(  2-C , 12-H ) :   0.9067 B(  3-C ,  4-C ) :   2.0350 B(  3-C ,  5-C ) :   1.1168
B(  4-C , 13-H ) :   0.9102 B(  4-C , 14-H ) :   0.9105 B(  5-C , 15-H ) :   0.9207
B(  5-C , 16-H ) :   0.9329 B(  5-C , 17-H ) :   0.9368

Dispersion correction           -0.013689819
FINAL SINGLE POINT ENERGY      -235.241464139087

DIPOLE MOMENT
-------------

Method             : SCF
Type of density    : Electron Density
Multiplicity       :   1
Irrep              :   0
Energy             :  -235.2990706048013578 Eh
Relativity type    :
Basis              : AO
                                X                 Y                 Z
Electronic contribution:      2.373140281       1.790667185      -0.350276092
Nuclear contribution   :     -2.561711366      -1.909897926       0.340875035
                        -----------------------------------------
Total Dipole Moment    :     -0.188571085      -0.119230741      -0.009401057
                        -----------------------------------------
Magnitude (a.u.)       :      0.223301150
Magnitude (Debye)      :      0.567586416

Rotational constants in cm-1:             0.195745             0.074909             0.060639
Rotational constants in MHz :          5868.287382          2245.714807          1817.923067

                             ****ORCA TERMINATED NORMALLY****
TOTAL RUN TIME: 0 days 0 hours 0 minutes 7 seconds 694 msec
