                         Program Version 6.0.0  -   RELEASE  -
|  1> ! pbe def2-sv(p) def2/J RI DEFGRID1 loosescf d4 GCP(DFT/SV(P)) printgap
|  2> %output
|  3>     printlevel normal
|  4> end
|  5> * xyz 0 1
|  6> C -1.4391663506 0.0963126897 0.6100806954
|  7> C 0.0662865395 0.378930191 0.4861047539
|  8> C 0.7942545041 -0.8593315272 -0.0552805915
|  9> O 2.1937141944 -0.7618088623 0.0033663276
| 10> O 0.3485653058 1.4552587642 -0.3772634724
| 11> O -1.9385081236 -0.3647277352 -0.6243712935
| 12> H -1.9498559745 1.0209629924 0.9118804171
| 13> H -1.5842600372 -0.6581345168 1.3943264348
| 14> H 0.4456291874 0.606574611 1.4976856228
| 15> H 0.541776841 -0.969764355 -1.1108852801
| 16> H 0.4445755052 -1.7444062199 0.4920170303
| 17> H 2.4674891466 -0.60675935 0.9187769569
| 18> H -0.164461833 2.232183372 -0.11371264
| 19> H -2.8898078198 -0.5217376242 -0.5477556288
| 20> *
| 21>
| 22>                          ****END OF INPUT****

CARTESIAN COORDINATES (ANGSTROEM)
---------------------------------
  C     -1.439166    0.096313    0.610081
  C      0.066287    0.378930    0.486105
  C      0.794255   -0.859332   -0.055281
  O      2.193714   -0.761809    0.003366
  O      0.348565    1.455259   -0.377263
  O     -1.938508   -0.364728   -0.624371
  H     -1.949856    1.020963    0.911880
  H     -1.584260   -0.658135    1.394326
  H      0.445629    0.606575    1.497686
  H      0.541777   -0.969764   -1.110885
  H      0.444576   -1.744406    0.492017
  H      2.467489   -0.606759    0.918777
  H     -0.164462    2.232183   -0.113713
  H     -2.889808   -0.521738   -0.547756

 Total Charge           Charge          ....    0
 Multiplicity           Mult            ....    1
 Number of Electrons    NEL             ....   50
 Basis Dimension        Dim             ....  100

ORBITAL ENERGIES
----------------

  NO   OCC          E(Eh)            E(eV)
   0   2.0000     -18.751760      -510.2613
   1   2.0000     -18.740683      -509.9599
   2   2.0000     -18.732943      -509.7493
   3   2.0000      -9.939316      -270.4625
   4   2.0000      -9.939073      -270.4559
   5   2.0000      -9.919657      -269.9276
   6   2.0000      -0.934802       -25.4373
   7   2.0000      -0.917949       -24.9787
   8   2.0000      -0.904107       -24.6020
   9   2.0000      -0.681642       -18.5484
  10   2.0000      -0.601992       -16.3810
  11   2.0000      -0.535300       -14.5663
  12   2.0000      -0.486259       -13.2318
  13   2.0000      -0.465245       -12.6599
  14   2.0000      -0.425386       -11.5753
  15   2.0000      -0.408558       -11.1174
  16   2.0000      -0.390108       -10.6154
  17   2.0000      -0.362770        -9.8715
  18   2.0000      -0.341129        -9.2826
  19   2.0000      -0.305801        -8.3213
  20   2.0000      -0.288881        -7.8609
  21   2.0000      -0.253853        -6.9077
  22   2.0000      -0.223204        -6.0737
  23   2.0000      -0.214855        -5.8465
  24   2.0000      -0.203288        -5.5317
  25   0.0000       0.010441         0.2841
  26   0.0000       0.035689         0.9711
  27   0.0000       0.046610         1.2683
  28   0.0000       0.077164         2.0997
  29   0.0000       0.082714         2.2508

MULLIKEN ATOMIC CHARGES
-----------------------
   0 C :   -0.008751
   1 C :   -0.003215
   2 C :    0.051650
   3 O :   -0.426479
   4 O :   -0.410643
   5 O :   -0.427165
   6 H :    0.062474
   7 H :    0.067455
   8 H :    0.042079
   9 H :    0.104809
  10 H :    0.062494
  11 H :    0.288753
  12 H :    0.293949
  13 H :    0.302590
Sum of atomic charges:    0.0000000

LOEWDIN ATOMIC CHARGES
----------------------
   0 C :   -0.137145
   1 C :   -0.089678
   2 C :   -0.126775
   3 O :   -0.332183
   4 O :   -0.319476
   5 O :   -0.339087
   6 H :    0.089631
   7 H :    0.096183
   8 H :    0.089857
   9 H :    0.126524
  10 H :    0.093988
  11 H :    0.278110
  12 H :    0.281812
  13 H :    0.288240

  Mayer bond orders larger than 0.100000
B(  0-C ,  1-C ) :   1.0399 B(  0-C ,  5-O ) :   1.0907 B(  0-C ,  6-H ) :   0.9148
B(  0-C ,  7-H ) :   0.9048 B(  1-C ,  2-C ) :   1.0348 B(  1-C ,  4-O ) :   1.0727
B(  1-C ,  8-H ) :   0.8905 B(  2-C ,  3-O ) :   1.0823 B(  2-C ,  9-H ) :   0.9045
B(  2-C , 10-H ) :   0.9244 B(  3-O , 11-H ) :   0.8557 B(  4-O , 12-H ) :   0.8516
B(  5-O , 13-H ) :   0.8507

Dispersion correction           -0.009137013
FINAL SINGLE POINT ENERGY      -343.999854833108

DIPOLE MOMENT
-------------

Method             : SCF
Type of density    : Electron Density
Multiplicity       :   1
Irrep              :   0
Energy             :  -344.0720418346579663 Eh
Relativity type    :
Basis              : AO
                                X                 Y                 Z
Electronic contribution:      1.353578731       0.836586546      -1.934801086
Nuclear contribution   :     -2.513701639      -0.596563248       3.214679473
                        -----------------------------------------
Total Dipole Moment    :     -1.160122907       0.240023298       1.279878387
                        -----------------------------------------
Magnitude (a.u.)       :      1.744014056
Magnitude (Debye)      :      4.432931440

Rotational constants in cm-1:             0.191649             0.076747             0.064582
Rotational constants in MHz :          5745.482731          2300.803092          1936.119652

                             ****ORCA TERMINATED NORMALLY****
TOTAL RUN TIME: 0 days 0 hours 0 minutes 6 seconds 621 msec
