                         Program Version 6.0.0  -   RELEASE  -
|  1> ! r2scan-3c def2/J RI DEFGRID2 scfconv6 printgap
|  2> %output
|  3>     printlevel normal
|  4> end
|  5> * xyz 0 1
|  6> C 2.0576477177 1.2679714388 0.6744784305
|  7> C 1.6365711349 -0.1752611458 0.4208288715
|  8> C 0.3822648922 -0.2986057607 -0.4574120541
|  9> H 0.5386285033 0.332036951 -1.339862608
| 10> C 0.2652916229 -1.7390390241 -0.9581202373
| 11> C -0.87468675 0.2328052289 0.2858063687
| 12> C -1.4283293248 1.4695361594 -0.4243485949
| 13> C -2.0016520286 -0.7849710812 0.4641873036
| 14> H 2.2556485256 1.7747522385 -0.2677043172
| 15> H 1.2837595848 1.8189247665 1.2029496338
| 16> H 2.9639253348 1.2956510433 1.2751074036
| 17> H 1.4589593713 -0.6795136202 1.3737641389
| 18> H 2.461908106 -0.6925047277 -0.0741840739
| 19> H 0.1901787896 -2.4388969911 -0.13006394
| 20> H -0.5992099761 -1.8639960948 -1.6030966207
| 21> H 1.1522952138 -1.9946693838 -1.5344340434
| 22> H -0.5656816677 0.5358050232 1.2919758436
| 23> H -1.7683910328 1.2097045949 -1.4248580977
| 24> H -0.666596568 2.2409681173 -0.508581669
| 25> H -2.2716914467 1.8808018646 0.1265807686
| 26> H -2.7991838292 -0.3360739145 1.0531168214
| 27> H -1.6565667879 -1.6715180451 0.9881210315
| 28> H -2.4201840773 -1.0829933792 -0.493420684
| 29> *
| 30>
| 31>                          ****END OF INPUT****

CARTESIAN COORDINATES (ANGSTROEM)
---------------------------------
  C      2.057648    1.267971    0.674478
  C      1.636571   -0.175261    0.420829
  C      0.382265   -0.298606   -0.457412
  H      0.538629    0.332037   -1.339863
  C      0.265292   -1.739039   -0.958120
  C     -0.874687    0.232805    0.285806
  C     -1.428329    1.469536   -0.424349
  C     -2.001652   -0.784971    0.464187
  H      2.255649    1.774752   -0.267704
  H      1.283760    1.818925    1.202950
  H      2.963925    1.295651    1.275107
  H      1.458959   -0.679514    1.373764
  H      2.461908   -0.692505   -0.074184
  H      0.190179   -2.438897   -0.130064
  H     -0.599210   -1.863996   -1.603097
  H      1.152295   -1.994669   -1.534434
  H     -0.565682    0.535805    1.291976
  H     -1.768391    1.209705   -1.424858
  H     -0.666597    2.240968   -0.508582
  H     -2.271691    1.880802    0.126581
  H     -2.799184   -0.336074    1.053117
  H     -1.656567   -1.671518    0.988121
  H     -2.420184   -1.082993   -0.493421

 Total Charge           Charge          ....    0
 Multiplicity           Mult            ....    1
 Number of Electrons    NEL             ....   58
 Basis Dimension        Dim             ....  213

ORBITAL ENERGIES
----------------

  NO   OCC          E(Eh)            E(eV)
   0   2.0000     -10.028807      -272.8977
   1   2.0000     -10.026591      -272.8374
   2   2.0000     -10.020289      -272.6659
   3   2.0000     -10.013695      -272.4865
   4   2.0000     -10.012007      -272.4406
   5   2.0000     -10.011798      -272.4349
   6   2.0000     -10.011327      -272.4221
   7   2.0000      -0.787209       -21.4210
   8   2.0000      -0.727867       -19.8063
   9   2.0000      -0.685956       -18.6658
  10   2.0000      -0.646228       -17.5847
  11   2.0000      -0.599708       -16.3189
  12   2.0000      -0.559073       -15.2132
  13   2.0000      -0.508789       -13.8448
  14   2.0000      -0.431433       -11.7399
  15   2.0000      -0.428974       -11.6730
  16   2.0000      -0.399776       -10.8785
  17   2.0000      -0.391308       -10.6480
  18   2.0000      -0.380820       -10.3626
  19   2.0000      -0.365300        -9.9403
  20   2.0000      -0.355057        -9.6616
  21   2.0000      -0.342815        -9.3285
  22   2.0000      -0.331787        -9.0284
  23   2.0000      -0.321967        -8.7612
  24   2.0000      -0.307610        -8.3705
  25   2.0000      -0.302822        -8.2402
  26   2.0000      -0.278670        -7.5830
  27   2.0000      -0.273545        -7.4435
  28   2.0000      -0.268428        -7.3043
  29   0.0000       0.082180         2.2362
  30   0.0000       0.101487         2.7616
  31   0.0000       0.111672         3.0387
  32   0.0000       0.114143         3.1060
  33   0.0000       0.126321         3.4374

MULLIKEN ATOMIC CHARGES
-----------------------
   0 C :   -0.505270
   1 C :   -0.266101
   2 C :   -0.044098
   3 H :    0.162787
   4 C :   -0.509152
   5 C :   -0.051739
   6 C :   -0.504024
   7 C :   -0.510027
   8 H :    0.150679
   9 H :    0.149687
  10 H :    0.147271
  11 H :    0.148843
  12 H :    0.136072
  13 H :    0.154660
  14 H :    0.144926
  15 H :    0.146265
  16 H :    0.156458
  17 H :    0.151506
  18 H :    0.152286
  19 H :    0.141791
  20 H :    0.146523
  21 H :    0.144204
  22 H :    0.156451
Sum of atomic charges:   -0.0000000

LOEWDIN ATOMIC CHARGES
----------------------
   0 C :   -0.425834
   1 C :   -0.307033
   2 C :   -0.232618
   3 H :    0.159461
   4 C :   -0.412182
   5 C :   -0.240310
   6 C :   -0.416358
   7 C :   -0.413460
   8 H :    0.150100
   9 H :    0.149532
  10 H :    0.150313
  11 H :    0.154034
  12 H :    0.152987
  13 H :    0.153667
  14 H :    0.152480
  15 H :    0.152892
  16 H :    0.157189
  17 H :    0.152384
  18 H :    0.152840
  19 H :    0.150744
  20 H :    0.153293
  21 H :    0.153118
  22 H :    0.152763

  Mayer bond orders larger than 0.100000
B(  0-C ,  1-C ) :   0.8862 B(  0-C ,  8-H ) :   0.9895 B(  0-C ,  9-H ) :   0.9736
B(  0-C , 10-H ) :   0.9733 B(  1-C ,  2-C ) :   0.8722 B(  1-C , 11-H ) :   0.9769
B(  1-C , 12-H ) :   0.9797 B(  2-C ,  3-H ) :   0.9938 B(  2-C ,  4-C ) :   0.8946
B(  2-C ,  5-C ) :   0.8351 B(  4-C , 13-H ) :   0.9933 B(  4-C , 14-H ) :   0.9729
B(  4-C , 15-H ) :   0.9731 B(  5-C ,  6-C ) :   0.8886 B(  5-C ,  7-C ) :   0.8993
B(  5-C , 16-H ) :   0.9749 B(  6-C , 17-H ) :   0.9862 B(  6-C , 18-H ) :   0.9723
B(  6-C , 19-H ) :   0.9771 B(  7-C , 20-H ) :   0.9711 B(  7-C , 21-H ) :   0.9712
B(  7-C , 22-H ) :   0.9971

Dispersion correction           -0.006541543
FINAL SINGLE POINT ENERGY      -276.280988596474

DIPOLE MOMENT
-------------

Method             : SCF
Type of density    : Electron Density
Multiplicity       :   1
Irrep              :   0
Energy             :  -276.2856462632838088 Eh
Relativity type    :
Basis              : AO
                                X                 Y                 Z
Electronic contribution:      0.444232278      -0.310229945       0.075768506
Nuclear contribution   :     -0.414856823       0.308165808      -0.060596234
                        -----------------------------------------
Total Dipole Moment    :      0.029375456      -0.002064138       0.015172271
                        -----------------------------------------
Magnitude (a.u.)       :      0.033126664
Magnitude (Debye)      :      0.084201288

Rotational constants in cm-1:             0.100243             0.064408             0.047477
Rotational constants in MHz :          3005.205915          1930.889353          1423.316000

                             ****ORCA TERMINATED NORMALLY****
TOTAL RUN TIME: 0 days 0 hours 0 minutes 20 seconds 892 msec
