                         Program Version 6.0.0  -   RELEASE  -
|  1> ! r2scan-3c def2/J RI DEFGRID2 scfconv6 printgap
|  2> %output
|  3>     printlevel normal
|  4> end
|  5> %cpcm
|  6>     smd true
|  7>     smdsolvent "water"
|  8> end
|  9> * xyz 0 1
| 10> C 2.0576477177 1.2679714388 0.6744784305
| 11> C 1.6365711349 -0.1752611458 0.4208288715
| 12> C 0.3822648922 -0.2986057607 -0.4574120541
| 13> H 0.5386285033 0.332036951 -1.339862608
| 14> C 0.2652916229 -1.7390390241 -0.9581202373
| 15> C -0.87468675 0.2328052289 0.2858063687
| 16> C -1.4283293248 1.4695361594 -0.4243485949
| 17> C -2.0016520286 -0.7849710812 0.4641873036
| 18> H 2.2556485256 1.7747522385 -0.2677043172
| 19> H 1.2837595848 1.8189247665 1.2029496338
| 20> H 2.9639253348 1.2956510433 1.2751074036
| 21> H 1.4589593713 -0.6795136202 1.3737641389
| 22> H 2.461908106 -0.6925047277 -0.0741840739
| 23> H 0.1901787896 -2.4388969911 -0.13006394
| 24> H -0.5992099761 -1.8639960948 -1.6030966207
| 25> H 1.1522952138 -1.9946693838 -1.5344340434
| 26> H -0.5656816677 0.5358050232 1.2919758436
| 27> H -1.7683910328 1.2097045949 -1.4248580977
| 28> H -0.666596568 2.2409681173 -0.508581669
| 29> H -2.2716914467 1.8808018646 0.1265807686
| 30> H -2.7991838292 -0.3360739145 1.0531168214
| 31> H -1.6565667879 -1.6715180451 0.9881210315
| 32> H -2.4201840773 -1.0829933792 -0.493420684
| 33> *
| 34>
| 35>                          ****END OF INPUT****

CARTESIAN COORDINATES (ANGSTROEM)
---------------------------------
  C      2.057648    1.267971    0.674478
  C      1.636571   -0.175261    0.420829
  C      0.382265   -0.298606   -0.457412
  H      0.538629    0.332037   -1.339863
  C      0.265292   -1.739039   -0.958120
  C     -0.874687    0.232805    0.285806
  C     -1.428329    1.469536   -0.424349
  C     -2.001652   -0.784971    0.464187
  H      2.255649    1.774752   -0.267704
  H      1.283760    1.818925    1.202950
  H      2.963925    1.295651    1.275107
  H      1.458959   -0.679514    1.373764
  H      2.461908   -0.692505   -0.074184
  H      0.190179   -2.438897   -0.130064
  H     -0.599210   -1.863996   -1.603097
  H      1.152295   -1.994669   -1.534434
  H     -0.565682    0.535805    1.291976
  H     -1.768391    1.209705   -1.424858
  H     -0.666597    2.240968   -0.508582
  H     -2.271691    1.880802    0.126581
  H     -2.799184   -0.336074    1.053117
  H     -1.656567   -1.671518    0.988121
  H     -2.420184   -1.082993   -0.493421

 Total Charge           Charge          ....    0
 Multiplicity           Mult            ....    1
 Number of Electrons    NEL             ....   58
 Basis Dimension        Dim             ....  213

ORBITAL ENERGIES
----------------

  NO   OCC          E(Eh)            E(eV)
   0   2.0000     -10.020883      -272.6821
   1   2.0000     -10.018744      -272.6239
   2   2.0000     -10.012434      -272.4522
   3   2.0000     -10.006033      -272.2780
   4   2.0000     -10.004543      -272.2374
   5   2.0000     -10.003732      -272.2154
   6   2.0000     -10.003451      -272.2077
   7   2.0000      -0.779368       -21.2077
   8   2.0000      -0.720368       -19.6022
   9   2.0000      -0.678653       -18.4671
  10   2.0000      -0.639079       -17.3902
  11   2.0000      -0.592549       -16.1241
  12   2.0000      -0.551764       -15.0143
  13   2.0000      -0.501029       -13.6337
  14   2.0000      -0.423556       -11.5255
  15   2.0000      -0.421345       -11.4654
  16   2.0000      -0.392419       -10.6783
  17   2.0000      -0.383676       -10.4404
  18   2.0000      -0.373395       -10.1606
  19   2.0000      -0.357940        -9.7400
  20   2.0000      -0.347595        -9.4585
  21   2.0000      -0.335103        -9.1186
  22   2.0000      -0.324297        -8.8246
  23   2.0000      -0.314256        -8.5513
  24   2.0000      -0.300282        -8.1711
  25   2.0000      -0.294816        -8.0223
  26   2.0000      -0.271123        -7.3776
  27   2.0000      -0.265471        -7.2238
  28   2.0000      -0.260742        -7.0952
  29   0.0000       0.090751         2.4695
  30   0.0000       0.108508         2.9527
  31   0.0000       0.119606         3.2546
  32   0.0000       0.122020         3.3203
  33   0.0000       0.132477         3.6049

MULLIKEN ATOMIC CHARGES
-----------------------
   0 C :   -0.542768
   1 C :   -0.280627
   2 C :   -0.029546
   3 H :    0.167201
   4 C :   -0.558200
   5 C :   -0.031033
   6 C :   -0.546951
   7 C :   -0.559348
   8 H :    0.160191
   9 H :    0.159949
  10 H :    0.156379
  11 H :    0.156927
  12 H :    0.144213
  13 H :    0.166832
  14 H :    0.157952
  15 H :    0.156948
  16 H :    0.164438
  17 H :    0.162073
  18 H :    0.159745
  19 H :    0.152275
  20 H :    0.156843
  21 H :    0.156904
  22 H :    0.169603
Sum of atomic charges:   -0.0000000

LOEWDIN ATOMIC CHARGES
----------------------
   0 C :   -0.433847
   1 C :   -0.309687
   2 C :   -0.230867
   3 H :    0.160737
   4 C :   -0.421332
   5 C :   -0.238032
   6 C :   -0.424767
   7 C :   -0.422574
   8 H :    0.152270
   9 H :    0.152162
  10 H :    0.151977
  11 H :    0.155946
  12 H :    0.154460
  13 H :    0.156174
  14 H :    0.155177
  15 H :    0.154697
  16 H :    0.159676
  17 H :    0.154684
  18 H :    0.154225
  19 H :    0.152652
  20 H :    0.155032
  21 H :    0.155694
  22 H :    0.155543

  Mayer bond orders larger than 0.100000
B(  0-C ,  1-C ) :   0.8805 B(  0-C ,  8-H ) :   0.9865 B(  0-C ,  9-H ) :   0.9716
B(  0-C , 10-H ) :   0.9715 B(  1-C ,  2-C ) :   0.8678 B(  1-C , 11-H ) :   0.9760
B(  1-C , 12-H ) :   0.9804 B(  2-C ,  3-H ) :   0.9945 B(  2-C ,  4-C ) :   0.8775
B(  2-C ,  5-C ) :   0.8361 B(  4-C , 13-H ) :   0.9917 B(  4-C , 14-H ) :   0.9722
B(  4-C , 15-H ) :   0.9712 B(  5-C ,  6-C ) :   0.8795 B(  5-C ,  7-C ) :   0.8817
B(  5-C , 16-H ) :   0.9762 B(  6-C , 17-H ) :   0.9836 B(  6-C , 18-H ) :   0.9708
B(  6-C , 19-H ) :   0.9763 B(  7-C , 20-H ) :   0.9694 B(  7-C , 21-H ) :   0.9707
B(  7-C , 22-H ) :   0.9952

Dispersion correction           -0.006541543
FINAL SINGLE POINT ENERGY      -276.277206994968

DIPOLE MOMENT
-------------

Method             : SCF
Type of density    : Electron Density
Multiplicity       :   1
Irrep              :   0
Energy             :  -276.2818646617774334 Eh
Relativity type    :
Basis              : AO
                                X                 Y                 Z
Electronic contribution:      0.447375194      -0.309749957       0.082240376
Nuclear contribution   :     -0.414856823       0.308165808      -0.060596234
                        -----------------------------------------
Total Dipole Moment    :      0.032518372      -0.001584149       0.021644142
                        -----------------------------------------
Magnitude (a.u.)       :      0.039095050
Magnitude (Debye)      :      0.099371720

Rotational constants in cm-1:             0.100243             0.064408             0.047477
Rotational constants in MHz :          3005.205915          1930.889353          1423.316000

                             ****ORCA TERMINATED NORMALLY****
TOTAL RUN TIME: 0 days 0 hours 0 minutes 23 seconds 951 msec
