                         Program Version 6.0.0  -   RELEASE  -
|  1> ! pbe def2-sv(p) def2/J RI DEFGRID1 loosescf d4 GCP(DFT/SV(P)) printgap
|  2> %output
|  3>     printlevel normal
|  4> end
|  5> * xyz 0 1
|  6> C -2.2561533943 1.6441388968 0.0250953285
|  7> C -2.1131387058 0.1591758572 0.346356721
|  8> C -3.4739433369 -0.5308975777 0.2699905256
|  9> C -1.1290407296 -0.5250616816 -0.6153213694
| 10> C 0.3149441995 -0.3074841578 -0.2833080191
| 11> C 1.2671510297 -1.3011460827 -0.5369182551
| 12> N 2.5514103126 -1.1407599383 -0.2687627374
| 13> C 2.9157899699 0.0188554685 0.266846172
| 14> C 1.9829285314 1.0098304928 0.5288876049
| 15> N 0.6971262901 0.8474422517 0.2541360247
| 16> H -2.6773125605 1.7761133861 -0.9694579886
| 17> H -1.2861422937 2.1290176706 0.0643330243
| 18> H -2.9163674926 2.1236582879 0.743690563
| 19> H -1.7237853647 0.0583980006 1.3649460807
| 20> H -3.3966498794 -1.5774723913 0.5557672298
| 21> H -4.1796718047 -0.0455127922 0.9393450314
| 22> H -3.868514821 -0.4766232132 -0.7422083735
| 23> H -1.3068593918 -0.150232699 -1.627368444
| 24> H -1.3129595451 -1.6012674729 -0.6287091918
| 25> H 0.9886479441 -2.2530147252 -0.9679575772
| 26> H 3.9665794963 0.1398038677 0.483998796
| 27> H 2.2588018459 1.9583273686 0.9674779388
| 28> *
| 29>
| 30>                          ****END OF INPUT****

CARTESIAN COORDINATES (ANGSTROEM)
---------------------------------
  C     -2.256153    1.644139    0.025095
  C     -2.113139    0.159176    0.346357
  C     -3.473943   -0.530898    0.269991
  C     -1.129041   -0.525062   -0.615321
  C      0.314944   -0.307484   -0.283308
  C      1.267151   -1.301146   -0.536918
  N      2.551410   -1.140760   -0.268763
  C      2.915790    0.018855    0.266846
  C      1.982929    1.009830    0.528888
  N      0.697126    0.847442    0.254136
  H     -2.677313    1.776113   -0.969458
  H     -1.286142    2.129018    0.064333
  H     -2.916367    2.123658    0.743691
  H     -1.723785    0.058398    1.364946
  H     -3.396650   -1.577472    0.555767
  H     -4.179672   -0.045513    0.939345
  H     -3.868515   -0.476623   -0.742208
  H     -1.306859   -0.150233   -1.627368
  H     -1.312960   -1.601267   -0.628709
  H      0.988648   -2.253015   -0.967958
  H      3.966579    0.139804    0.483999
  H      2.258802    1.958327    0.967478

 Total Charge           Charge          ....    0
 Multiplicity           Mult            ....    1
 Number of Electrons    NEL             ....   74
 Basis Dimension        Dim             ....  164

ORBITAL ENERGIES
----------------

  NO   OCC          E(Eh)            E(eV)
   0   2.0000     -14.001174      -380.9913
   1   2.0000     -14.000927      -380.9846
   2   2.0000      -9.945158      -270.6215
   3   2.0000      -9.934180      -270.3228
   4   2.0000      -9.931575      -270.2519
   5   2.0000      -9.931009      -270.2365
   6   2.0000      -9.897414      -269.3223
   7   2.0000      -9.895714      -269.2761
   8   2.0000      -9.874433      -268.6970
   9   2.0000      -9.862686      -268.3773
  10   2.0000      -0.899973       -24.4895
  11   2.0000      -0.825748       -22.4697
  12   2.0000      -0.741665       -20.1817
  13   2.0000      -0.702436       -19.1143
  14   2.0000      -0.636222       -17.3125
  15   2.0000      -0.608479       -16.5576
  16   2.0000      -0.594200       -16.1690
  17   2.0000      -0.565041       -15.3755
  18   2.0000      -0.503384       -13.6978
  19   2.0000      -0.474961       -12.9243
  20   2.0000      -0.467768       -12.7286
  21   2.0000      -0.432369       -11.7654
  22   2.0000      -0.413928       -11.2635
  23   2.0000      -0.399794       -10.8789
  24   2.0000      -0.385699       -10.4954
  25   2.0000      -0.381080       -10.3697
  26   2.0000      -0.363967        -9.9040
  27   2.0000      -0.346806        -9.4371
  28   2.0000      -0.338136        -9.2011
  29   2.0000      -0.324113        -8.8196
  30   2.0000      -0.304305        -8.2806
  31   2.0000      -0.292771        -7.9667
  32   2.0000      -0.287157        -7.8139
  33   2.0000      -0.285357        -7.7650
  34   2.0000      -0.251036        -6.8310
  35   2.0000      -0.244849        -6.6627
  36   2.0000      -0.198168        -5.3924
  37   0.0000      -0.079534        -2.1642
  38   0.0000      -0.056984        -1.5506
  39   0.0000       0.038677         1.0525
  40   0.0000       0.063552         1.7293
  41   0.0000       0.065864         1.7923

MULLIKEN ATOMIC CHARGES
-----------------------
   0 C :   -0.249866
   1 C :   -0.186175
   2 C :   -0.231723
   3 C :   -0.059138
   4 C :   -0.069913
   5 C :   -0.073539
   6 N :   -0.035870
   7 C :   -0.060754
   8 C :   -0.044470
   9 N :   -0.046279
  10 H :    0.083304
  11 H :    0.119142
  12 H :    0.092387
  13 H :    0.077518
  14 H :    0.097327
  15 H :    0.100115
  16 H :    0.091135
  17 H :    0.101330
  18 H :    0.082376
  19 H :    0.061483
  20 H :    0.077143
  21 H :    0.074468
Sum of atomic charges:    0.0000000

LOEWDIN ATOMIC CHARGES
----------------------
   0 C :   -0.338780
   1 C :   -0.149488
   2 C :   -0.328857
   3 C :   -0.212068
   4 C :   -0.019278
   5 C :   -0.095894
   6 N :   -0.048676
   7 C :   -0.103960
   8 C :   -0.094028
   9 N :   -0.045567
  10 H :    0.111483
  11 H :    0.122182
  12 H :    0.115250
  13 H :    0.117242
  14 H :    0.114975
  15 H :    0.118899
  16 H :    0.116231
  17 H :    0.137631
  18 H :    0.124761
  19 H :    0.118160
  20 H :    0.120052
  21 H :    0.119731

  Mayer bond orders larger than 0.100000
B(  0-C ,  1-C ) :   1.1022 B(  0-C , 10-H ) :   0.9467 B(  0-C , 11-H ) :   0.9301
B(  0-C , 12-H ) :   0.9484 B(  1-C ,  2-C ) :   1.1136 B(  1-C ,  3-C ) :   1.0641
B(  1-C , 13-H ) :   0.9117 B(  2-C , 14-H ) :   0.9489 B(  2-C , 15-H ) :   0.9514
B(  2-C , 16-H ) :   0.9469 B(  3-C ,  4-C ) :   1.0615 B(  3-C , 17-H ) :   0.8732
B(  3-C , 18-H ) :   0.9082 B(  4-C ,  5-C ) :   1.3354 B(  4-C ,  7-C ) :   0.1020
B(  4-C ,  9-N ) :   1.5323 B(  5-C ,  6-N ) :   1.5751 B(  5-C , 19-H ) :   0.9464
B(  6-N ,  7-C ) :   1.5313 B(  7-C ,  8-C ) :   1.3612 B(  7-C , 20-H ) :   0.9476
B(  8-C ,  9-N ) :   1.5245 B(  8-C , 21-H ) :   0.9454

Dispersion correction           -0.021998770
FINAL SINGLE POINT ENERGY      -420.624162609956

DIPOLE MOMENT
-------------

Method             : SCF
Type of density    : Electron Density
Multiplicity       :   1
Irrep              :   0
Energy             :  -420.6925707423251879 Eh
Relativity type    :
Basis              : AO
                                X                 Y                 Z
Electronic contribution:     14.326337364      -1.916295319      -0.162931851
Nuclear contribution   :    -14.480861948       1.950903199       0.172408682
                        -----------------------------------------
Total Dipole Moment    :     -0.154524583       0.034607880       0.009476831
                        -----------------------------------------
Magnitude (a.u.)       :      0.158635944
Magnitude (Debye)      :      0.403220524

Rotational constants in cm-1:             0.111659             0.025675             0.021882
Rotational constants in MHz :          3347.454858           769.709788           656.018673

                             ****ORCA TERMINATED NORMALLY****
TOTAL RUN TIME: 0 days 0 hours 0 minutes 11 seconds 421 msec
