                         Program Version 6.0.0  -   RELEASE  -
|  1> ! pbe def2-sv(p) def2/J RI DEFGRID1 loosescf d4 GCP(DFT/SV(P)) printgap
|  2> %output
|  3>     printlevel normal
|  4> end
|  5> * xyz 0 1
|  6> C -2.8939568497 0.9739563695 1.054123424
|  7> C -2.9349030433 -0.385492518 0.3678960674
|  8> C -2.0605678141 -0.4237049348 -0.89325413
|  9> C -0.6058448884 -0.2511738189 -0.5612077133
| 10> C 0.124448793 -1.3081032847 -0.0285744262
| 11> C 1.4523474748 -1.1579670264 0.3154803822
| 12> C 2.0850289882 0.0681146455 0.1319537903
| 13> C 1.3673750176 1.1306808949 -0.4012839319
| 14> C 0.0363137765 0.9655594833 -0.7413530181
| 15> O 3.3977732184 0.1739398578 0.4851080331
| 16> H -3.5229389482 0.9711219727 1.9409952383
| 17> H -1.8768735506 1.2176348575 1.3531691963
| 18> H -3.2509523844 1.7510388446 0.381832819
| 19> H -3.9644705765 -0.6206277458 0.0903340685
| 20> H -2.5906981237 -1.1528392764 1.0642946575
| 21> H -2.3809154611 0.3673117397 -1.5735213085
| 22> H -2.2068611302 -1.3841159359 -1.3922551918
| 23> H -0.3536357209 -2.2658304151 0.1165846176
| 24> H 2.0208832749 -1.9772913311 0.7272101613
| 25> H 1.8471563889 2.0874739087 -0.5511686201
| 26> H -0.5088897885 1.8012573783 -1.1551719077
| 27> H 3.7239010073 1.0690373937 0.3088537451
| 28> *
| 29>
| 30>                          ****END OF INPUT****

CARTESIAN COORDINATES (ANGSTROEM)
---------------------------------
  C     -2.893957    0.973956    1.054123
  C     -2.934903   -0.385493    0.367896
  C     -2.060568   -0.423705   -0.893254
  C     -0.605845   -0.251174   -0.561208
  C      0.124449   -1.308103   -0.028574
  C      1.452347   -1.157967    0.315480
  C      2.085029    0.068115    0.131954
  C      1.367375    1.130681   -0.401284
  C      0.036314    0.965559   -0.741353
  O      3.397773    0.173940    0.485108
  H     -3.522939    0.971122    1.940995
  H     -1.876874    1.217635    1.353169
  H     -3.250952    1.751039    0.381833
  H     -3.964471   -0.620628    0.090334
  H     -2.590698   -1.152839    1.064295
  H     -2.380915    0.367312   -1.573521
  H     -2.206861   -1.384116   -1.392255
  H     -0.353636   -2.265830    0.116585
  H      2.020883   -1.977291    0.727210
  H      1.847156    2.087474   -0.551169
  H     -0.508890    1.801257   -1.155172
  H      3.723901    1.069037    0.308854

 Total Charge           Charge          ....    0
 Multiplicity           Mult            ....    1
 Number of Electrons    NEL             ....   74
 Basis Dimension        Dim             ....  164

ORBITAL ENERGIES
----------------

  NO   OCC          E(Eh)            E(eV)
   0   2.0000     -18.777553      -510.9632
   1   2.0000      -9.948188      -270.7039
   2   2.0000      -9.890928      -269.1458
   3   2.0000      -9.889560      -269.1086
   4   2.0000      -9.889040      -269.0944
   5   2.0000      -9.888231      -269.0725
   6   2.0000      -9.884874      -268.9811
   7   2.0000      -9.883810      -268.9521
   8   2.0000      -9.883750      -268.9505
   9   2.0000      -9.869479      -268.5622
  10   2.0000      -0.958862       -26.0920
  11   2.0000      -0.773997       -21.0615
  12   2.0000      -0.715478       -19.4691
  13   2.0000      -0.670408       -18.2427
  14   2.0000      -0.661154       -17.9909
  15   2.0000      -0.604171       -16.4403
  16   2.0000      -0.561919       -15.2906
  17   2.0000      -0.535541       -14.5728
  18   2.0000      -0.510033       -13.8787
  19   2.0000      -0.493279       -13.4228
  20   2.0000      -0.430849       -11.7240
  21   2.0000      -0.425073       -11.5668
  22   2.0000      -0.395535       -10.7631
  23   2.0000      -0.394234       -10.7276
  24   2.0000      -0.377083       -10.2609
  25   2.0000      -0.372402       -10.1336
  26   2.0000      -0.359575        -9.7845
  27   2.0000      -0.352979        -9.6051
  28   2.0000      -0.325195        -8.8490
  29   2.0000      -0.321490        -8.7482
  30   2.0000      -0.307824        -8.3763
  31   2.0000      -0.294045        -8.0014
  32   2.0000      -0.286304        -7.7907
  33   2.0000      -0.282124        -7.6770
  34   2.0000      -0.278885        -7.5889
  35   2.0000      -0.226873        -6.1735
  36   2.0000      -0.187823        -5.1109
  37   0.0000      -0.032940        -0.8963
  38   0.0000      -0.015857        -0.4315
  39   0.0000       0.024581         0.6689
  40   0.0000       0.041845         1.1387
  41   0.0000       0.062292         1.6951

MULLIKEN ATOMIC CHARGES
-----------------------
   0 C :   -0.290795
   1 C :   -0.184440
   2 C :   -0.092837
   3 C :    0.073755
   4 C :   -0.120706
   5 C :   -0.118621
   6 C :    0.248886
   7 C :   -0.160709
   8 C :   -0.125849
   9 O :   -0.339468
  10 H :    0.102013
  11 H :    0.122180
  12 H :    0.092260
  13 H :    0.086175
  14 H :    0.089028
  15 H :    0.075914
  16 H :    0.083572
  17 H :    0.040790
  18 H :    0.043049
  19 H :    0.023824
  20 H :    0.036358
  21 H :    0.315623
Sum of atomic charges:    0.0000000

LOEWDIN ATOMIC CHARGES
----------------------
   0 C :   -0.344812
   1 C :   -0.227436
   2 C :   -0.209603
   3 C :   -0.060391
   4 C :   -0.112525
   5 C :   -0.145996
   6 C :    0.020089
   7 C :   -0.176735
   8 C :   -0.117551
   9 O :   -0.239937
  10 H :    0.119022
  11 H :    0.123144
  12 H :    0.114513
  13 H :    0.114017
  14 H :    0.115218
  15 H :    0.117615
  16 H :    0.122395
  17 H :    0.122129
  18 H :    0.129891
  19 H :    0.119078
  20 H :    0.120881
  21 H :    0.296992

  Mayer bond orders larger than 0.100000
B(  0-C ,  1-C ) :   1.1538 B(  0-C , 10-H ) :   0.9511 B(  0-C , 11-H ) :   0.9469
B(  0-C , 12-H ) :   0.9542 B(  1-C ,  2-C ) :   1.1132 B(  1-C , 13-H ) :   0.9242
B(  1-C , 14-H ) :   0.9266 B(  2-C ,  3-C ) :   1.0701 B(  2-C , 15-H ) :   0.9089
B(  2-C , 16-H ) :   0.9025 B(  3-C ,  4-C ) :   1.3608 B(  3-C ,  8-C ) :   1.3950
B(  4-C ,  5-C ) :   1.3718 B(  4-C , 17-H ) :   0.9615 B(  5-C ,  6-C ) :   1.3529
B(  5-C , 18-H ) :   0.9650 B(  6-C ,  7-C ) :   1.3134 B(  6-C ,  9-O ) :   1.1813
B(  7-C ,  8-C ) :   1.3479 B(  7-C , 19-H ) :   0.9584 B(  8-C , 20-H ) :   0.9573
B(  9-O , 21-H ) :   0.8432

Dispersion correction           -0.022420829
FINAL SINGLE POINT ENERGY      -424.449039179601

DIPOLE MOMENT
-------------

Method             : SCF
Type of density    : Electron Density
Multiplicity       :   1
Irrep              :   0
Energy             :  -424.5179620631801640 Eh
Relativity type    :
Basis              : AO
                                X                 Y                 Z
Electronic contribution:     12.224350901      -1.262788589      -1.344722329
Nuclear contribution   :    -12.206142168       1.751484412       1.237276637
                        -----------------------------------------
Total Dipole Moment    :      0.018208734       0.488695823      -0.107445692
                        -----------------------------------------
Magnitude (a.u.)       :      0.500699254
Magnitude (Debye)      :      1.272676362

Rotational constants in cm-1:             0.103521             0.024719             0.022987
Rotational constants in MHz :          3103.485299           741.049269           689.142178

                             ****ORCA TERMINATED NORMALLY****
TOTAL RUN TIME: 0 days 0 hours 0 minutes 11 seconds 237 msec
