                         Program Version 6.0.0  -   RELEASE  -
|  1> ! pbe def2-sv(p) def2/J RI DEFGRID1 loosescf d4 GCP(DFT/SV(P)) printgap
|  2> %output
|  3>     printlevel normal
|  4> end
|  5> * xyz 0 1
|  6> C 4.2293096647 1.6479115561 -0.1418339983
|  7> C 3.519176236 0.6090746442 0.7304964118
|  8> C 3.3074150576 -0.6692601788 -0.0406297948
|  9> O 4.2323101477 -1.433654145 -0.2914967877
| 10> N 2.054644411 -1.0102415427 -0.4438545594
| 11> C 0.8213013784 -0.3710813596 -0.3037351136
| 12> C 0.650023565 1.0038182944 -0.4557550777
| 13> C -0.6030984288 1.5713618832 -0.3203284912
| 14> C -1.7076374489 0.7801856465 -0.0485950862
| 15> C -1.549488148 -0.5960284104 0.0735351659
| 16> C -0.2976025648 -1.1676516892 -0.0545451388
| 17> Cl -2.9219213021 -1.6077269297 0.3881343415
| 18> Cl -3.276205044 1.499636534 0.1173679892
| 19> H 4.4254071675 2.5460413095 0.4363454376
| 20> H 3.6313018877 1.9123899064 -1.0104025571
| 21> H 5.1752788149 1.2437744001 -0.4946553579
| 22> H 2.5784267024 0.9925027313 1.118885254
| 23> H 4.1740529433 0.3592623343 1.5676881036
| 24> H 2.0061835532 -1.9548200849 -0.8127402219
| 25> H 1.4831907172 1.6350174455 -0.7098175513
| 26> H -0.733015909 2.6343239622 -0.4365102051
| 27> H -0.194831856 -2.2358113089 0.0455488076
| 28> *
| 29>
| 30>                          ****END OF INPUT****

CARTESIAN COORDINATES (ANGSTROEM)
---------------------------------
  C      4.229310    1.647912   -0.141834
  C      3.519176    0.609075    0.730496
  C      3.307415   -0.669260   -0.040630
  O      4.232310   -1.433654   -0.291497
  N      2.054644   -1.010242   -0.443855
  C      0.821301   -0.371081   -0.303735
  C      0.650024    1.003818   -0.455755
  C     -0.603098    1.571362   -0.320328
  C     -1.707637    0.780186   -0.048595
  C     -1.549488   -0.596028    0.073535
  C     -0.297603   -1.167652   -0.054545
  Cl    -2.921921   -1.607727    0.388134
  Cl    -3.276205    1.499637    0.117368
  H      4.425407    2.546041    0.436345
  H      3.631302    1.912390   -1.010403
  H      5.175279    1.243774   -0.494655
  H      2.578427    0.992503    1.118885
  H      4.174053    0.359262    1.567688
  H      2.006184   -1.954820   -0.812740
  H      1.483191    1.635017   -0.709818
  H     -0.733016    2.634324   -0.436510
  H     -0.194832   -2.235811    0.045549

 Total Charge           Charge          ....    0
 Multiplicity           Mult            ....    1
 Number of Electrons    NEL             ....  112
 Basis Dimension        Dim             ....  208

ORBITAL ENERGIES
----------------

  NO   OCC          E(Eh)            E(eV)
   0   2.0000    -100.653979     -2738.9340
   1   2.0000    -100.651465     -2738.8656
   2   2.0000     -18.725542      -509.5479
   3   2.0000     -14.043294      -382.1375
   4   2.0000      -9.996657      -272.0229
   5   2.0000      -9.973803      -271.4010
   6   2.0000      -9.967695      -271.2348
   7   2.0000      -9.965898      -271.1859
   8   2.0000      -9.924220      -270.0518
   9   2.0000      -9.923621      -270.0355
  10   2.0000      -9.919623      -269.9267
  11   2.0000      -9.905824      -269.5512
  12   2.0000      -9.894624      -269.2464
  13   2.0000      -9.189697      -250.0644
  14   2.0000      -9.187108      -249.9939
  15   2.0000      -7.021306      -191.0595
  16   2.0000      -7.018724      -190.9892
  17   2.0000      -7.009705      -190.7438
  18   2.0000      -7.008846      -190.7204
  19   2.0000      -7.007090      -190.6726
  20   2.0000      -7.006297      -190.6510
  21   2.0000      -0.947893       -25.7935
  22   2.0000      -0.869939       -23.6722
  23   2.0000      -0.842127       -22.9154
  24   2.0000      -0.790092       -21.4995
  25   2.0000      -0.768559       -20.9135
  26   2.0000      -0.715380       -19.4665
  27   2.0000      -0.691477       -18.8161
  28   2.0000      -0.671570       -18.2744
  29   2.0000      -0.605899       -16.4873
  30   2.0000      -0.582818       -15.8593
  31   2.0000      -0.573356       -15.6018
  32   2.0000      -0.523465       -14.2442
  33   2.0000      -0.507636       -13.8135
  34   2.0000      -0.460749       -12.5376
  35   2.0000      -0.456401       -12.4193
  36   2.0000      -0.438351       -11.9281
  37   2.0000      -0.425835       -11.5876
  38   2.0000      -0.414707       -11.2848
  39   2.0000      -0.404681       -11.0119
  40   2.0000      -0.395641       -10.7659
  41   2.0000      -0.385142       -10.4802
  42   2.0000      -0.372215       -10.1285
  43   2.0000      -0.362278        -9.8581
  44   2.0000      -0.349143        -9.5007
  45   2.0000      -0.337181        -9.1752
  46   2.0000      -0.330468        -8.9925
  47   2.0000      -0.325600        -8.8600
  48   2.0000      -0.314008        -8.5446
  49   2.0000      -0.306939        -8.3522
  50   2.0000      -0.291260        -7.9256
  51   2.0000      -0.268221        -7.2987
  52   2.0000      -0.262393        -7.1401
  53   2.0000      -0.240727        -6.5505
  54   2.0000      -0.212480        -5.7819
  55   2.0000      -0.207825        -5.6552
  56   0.0000      -0.067101        -1.8259
  57   0.0000      -0.063365        -1.7242
  58   0.0000      -0.026130        -0.7110
  59   0.0000      -0.014779        -0.4022
  60   0.0000       0.033600         0.9143

MULLIKEN ATOMIC CHARGES
-----------------------
   0 C :   -0.302409
   1 C :   -0.201990
   2 C :    0.052173
   3 O :   -0.215242
   4 N :   -0.188009
   5 C :    0.222841
   6 C :   -0.120275
   7 C :   -0.114383
   8 C :    0.091018
   9 C :    0.078716
  10 C :   -0.177813
  11 Cl:   -0.049658
  12 Cl:   -0.054673
  13 H :    0.116746
  14 H :    0.122828
  15 H :    0.125692
  16 H :    0.116203
  17 H :    0.114241
  18 H :    0.235540
  19 H :    0.052197
  20 H :    0.057355
  21 H :    0.038900
Sum of atomic charges:   -0.0000000

LOEWDIN ATOMIC CHARGES
----------------------
   0 C :   -0.330815
   1 C :   -0.258319
   2 C :    0.033075
   3 O :   -0.193818
   4 N :   -0.107945
   5 C :   -0.000817
   6 C :   -0.139978
   7 C :   -0.124065
   8 C :   -0.163366
   9 C :   -0.146035
  10 C :   -0.150854
  11 Cl:    0.146985
  12 Cl:    0.141890
  13 H :    0.125047
  14 H :    0.116497
  15 H :    0.131506
  16 H :    0.125697
  17 H :    0.143822
  18 H :    0.243457
  19 H :    0.134923
  20 H :    0.137528
  21 H :    0.135584

  Mayer bond orders larger than 0.100000
B(  0-C ,  1-C ) :   1.1402 B(  0-C , 13-H ) :   0.9518 B(  0-C , 14-H ) :   0.9421
B(  0-C , 15-H ) :   0.9445 B(  1-C ,  2-C ) :   1.0272 B(  1-C , 16-H ) :   0.8966
B(  1-C , 17-H ) :   0.8958 B(  2-C ,  3-O ) :   2.0767 B(  2-C ,  4-N ) :   1.1593
B(  4-N ,  5-C ) :   1.0310 B(  4-N , 18-H ) :   0.8369 B(  5-C ,  6-C ) :   1.3334
B(  5-C , 10-C ) :   1.2956 B(  6-C ,  7-C ) :   1.3389 B(  6-C , 19-H ) :   0.9532
B(  7-C ,  8-C ) :   1.3746 B(  7-C , 20-H ) :   0.9643 B(  8-C ,  9-C ) :   1.4064
B(  8-C , 12-Cl) :   1.0347 B(  9-C , 10-C ) :   1.3786 B(  9-C , 11-Cl) :   1.0358
B( 10-C , 21-H ) :   0.9683

Dispersion correction           -0.028639421
FINAL SINGLE POINT ENERGY     -1397.088460067381

DIPOLE MOMENT
-------------

Method             : SCF
Type of density    : Electron Density
Multiplicity       :   1
Irrep              :   0
Energy             : -1397.1478096770501907 Eh
Relativity type    :
Basis              : AO
                                X                 Y                 Z
Electronic contribution:    -29.708949195      -6.226479322       0.977000342
Nuclear contribution   :     29.545167104       6.810000691      -0.962622592
                        -----------------------------------------
Total Dipole Moment    :     -0.163782092       0.583521370       0.014377750
                        -----------------------------------------
Magnitude (a.u.)       :      0.606241274
Magnitude (Debye)      :      1.540942857

Rotational constants in cm-1:             0.043378             0.009767             0.008166
Rotational constants in MHz :          1300.438464           292.798716           244.802771

                             ****ORCA TERMINATED NORMALLY****
TOTAL RUN TIME: 0 days 0 hours 0 minutes 17 seconds 463 msec
