                         Program Version 6.0.0  -   RELEASE  -
|  1> ! r2scan-3c def2/J RI DEFGRID2 scfconv6 printgap
|  2> %output
|  3>     printlevel normal
|  4> end
|  5> * xyz 0 1
|  6> C 0.5494761289 1.4235343843 1.0435137333
|  7> C 1.8948696055 1.6500984442 1.2125870035
|  8> C 2.8445894601 0.8680467475 0.5485912036
|  9> C 2.3940655707 -0.1573454455 -0.3072842543
| 10> C 1.0232241827 -0.368628824 -0.4717720958
| 11> C 0.0921893794 0.4073186669 0.1962332549
| 12> C -1.3462800123 0.1648865089 0.001742234
| 13> C -1.8629174146 -0.0818338404 -1.2705657002
| 14> C -3.2102849938 -0.3113183812 -1.4764057374
| 15> C -4.0578906561 -0.2982818955 -0.3850518498
| 16> C -3.6014360148 -0.0670654242 0.8980381285
| 17> C -2.2491056588 0.1622738293 1.0626909502
| 18> F -1.804025674 0.3641846571 2.3299483871
| 19> F -5.3846819153 -0.5213732045 -0.5713428654
| 20> C 3.3608233388 -0.9976963708 -1.0178015333
| 21> O 4.5780214012 -0.8726101969 -0.9120565386
| 22> O 2.8276614476 -1.9194637043 -1.800785899
| 23> O 4.1382280255 1.1352871274 0.7587819131
| 24> H -0.1596300179 2.0487502369 1.5628117861
| 25> H 2.251832545 2.4343562084 1.8600801479
| 26> H 0.701961295 -1.1700753202 -1.1176879072
| 27> H -1.1908238126 -0.0748128679 -2.1128341642
| 28> H -3.6053082049 -0.4953581798 -2.4613876
| 29> H -4.2696306005 -0.0684542421 1.7427188922
| 30> H 3.5075562534 -2.4552157214 -2.2533578701
| 31> H 4.6970468903 0.5147423627 0.23827473
| 32> *
| 33>
| 34>                          ****END OF INPUT****

CARTESIAN COORDINATES (ANGSTROEM)
---------------------------------
  C      0.549476    1.423534    1.043514
  C      1.894870    1.650098    1.212587
  C      2.844589    0.868047    0.548591
  C      2.394066   -0.157345   -0.307284
  C      1.023224   -0.368629   -0.471772
  C      0.092189    0.407319    0.196233
  C     -1.346280    0.164887    0.001742
  C     -1.862917   -0.081834   -1.270566
  C     -3.210285   -0.311318   -1.476406
  C     -4.057891   -0.298282   -0.385052
  C     -3.601436   -0.067065    0.898038
  C     -2.249106    0.162274    1.062691
  F     -1.804026    0.364185    2.329948
  F     -5.384682   -0.521373   -0.571343
  C      3.360823   -0.997696   -1.017802
  O      4.578021   -0.872610   -0.912057
  O      2.827661   -1.919464   -1.800786
  O      4.138228    1.135287    0.758782
  H     -0.159630    2.048750    1.562812
  H      2.251833    2.434356    1.860080
  H      0.701961   -1.170075   -1.117688
  H     -1.190824   -0.074813   -2.112834
  H     -3.605308   -0.495358   -2.461388
  H     -4.269631   -0.068454    1.742719
  H      3.507556   -2.455216   -2.253358
  H      4.697047    0.514742    0.238275

 Total Charge           Charge          ....    0
 Multiplicity           Mult            ....    1
 Number of Electrons    NEL             ....  128
 Basis Dimension        Dim             ....  407

ORBITAL ENERGIES
----------------

  NO   OCC          E(Eh)            E(eV)
   0   2.0000     -24.510793      -666.9726
   1   2.0000     -24.507447      -666.8815
   2   2.0000     -19.022693      -517.6338
   3   2.0000     -18.987878      -516.6864
   4   2.0000     -18.958621      -515.8903
   5   2.0000     -10.184905      -277.1453
   6   2.0000     -10.139487      -275.9095
   7   2.0000     -10.137215      -275.8477
   8   2.0000     -10.121434      -275.4182
   9   2.0000     -10.066766      -273.9306
  10   2.0000     -10.065187      -273.8877
  11   2.0000     -10.062399      -273.8118
  12   2.0000     -10.060452      -273.7588
  13   2.0000     -10.059195      -273.7246
  14   2.0000     -10.058959      -273.7182
  15   2.0000     -10.057633      -273.6821
  16   2.0000     -10.054709      -273.6025
  17   2.0000     -10.046667      -273.3837
  18   2.0000      -1.196479       -32.5579
  19   2.0000      -1.192454       -32.4483
  20   2.0000      -1.099055       -29.9068
  21   2.0000      -1.040609       -28.3164
  22   2.0000      -0.997302       -27.1380
  23   2.0000      -0.863259       -23.4905
  24   2.0000      -0.841388       -22.8953
  25   2.0000      -0.770739       -20.9729
  26   2.0000      -0.754450       -20.5296
  27   2.0000      -0.742776       -20.2120
  28   2.0000      -0.707855       -19.2617
  29   2.0000      -0.655944       -17.8492
  30   2.0000      -0.621549       -16.9132
  31   2.0000      -0.613704       -16.6997
  32   2.0000      -0.602494       -16.3947
  33   2.0000      -0.575288       -15.6544
  34   2.0000      -0.540058       -14.6957
  35   2.0000      -0.528177       -14.3724
  36   2.0000      -0.510671       -13.8961
  37   2.0000      -0.494322       -13.4512
  38   2.0000      -0.481103       -13.0915
  39   2.0000      -0.473411       -12.8822
  40   2.0000      -0.461360       -12.5542
  41   2.0000      -0.455979       -12.4078
  42   2.0000      -0.446187       -12.1414
  43   2.0000      -0.445501       -12.1227
  44   2.0000      -0.431424       -11.7396
  45   2.0000      -0.427841       -11.6421
  46   2.0000      -0.420133       -11.4324
  47   2.0000      -0.410755       -11.1772
  48   2.0000      -0.402350       -10.9485
  49   2.0000      -0.392777       -10.6880
  50   2.0000      -0.381106       -10.3704
  51   2.0000      -0.369066       -10.0428
  52   2.0000      -0.365579        -9.9479
  53   2.0000      -0.347742        -9.4625
  54   2.0000      -0.345329        -9.3969
  55   2.0000      -0.337704        -9.1894
  56   2.0000      -0.328181        -8.9302
  57   2.0000      -0.325311        -8.8522
  58   2.0000      -0.313708        -8.5364
  59   2.0000      -0.265843        -7.2340
  60   2.0000      -0.261093        -7.1047
  61   2.0000      -0.257595        -7.0095
  62   2.0000      -0.249151        -6.7798
  63   2.0000      -0.210545        -5.7292
  64   0.0000      -0.087823        -2.3898
  65   0.0000      -0.061667        -1.6781
  66   0.0000      -0.050091        -1.3630
  67   0.0000      -0.019532        -0.5315
  68   0.0000       0.016324         0.4442

MULLIKEN ATOMIC CHARGES
-----------------------
   0 C :   -0.126793
   1 C :   -0.334200
   2 C :    0.294142
   3 C :   -0.039014
   4 C :   -0.240054
   5 C :    0.257547
   6 C :   -0.092509
   7 C :   -0.120550
   8 C :   -0.300580
   9 C :    0.415701
  10 C :   -0.396526
  11 C :    0.358365
  12 F :   -0.234167
  13 F :   -0.235400
  14 C :    0.283148
  15 O :   -0.464136
  16 O :   -0.344521
  17 O :   -0.383002
  18 H :    0.159280
  19 H :    0.160574
  20 H :    0.179804
  21 H :    0.158529
  22 H :    0.164067
  23 H :    0.178828
  24 H :    0.339683
  25 H :    0.361785
Sum of atomic charges:   -0.0000000

LOEWDIN ATOMIC CHARGES
----------------------
   0 C :   -0.097273
   1 C :   -0.128541
   2 C :    0.233182
   3 C :   -0.044628
   4 C :   -0.083629
   5 C :   -0.081730
   6 C :   -0.072340
   7 C :   -0.121947
   8 C :   -0.161510
   9 C :    0.224751
  10 C :   -0.139893
  11 C :    0.240578
  12 F :   -0.280625
  13 F :   -0.283588
  14 C :    0.385749
  15 O :   -0.467073
  16 O :   -0.398578
  17 O :   -0.460576
  18 H :    0.181591
  19 H :    0.185066
  20 H :    0.195675
  21 H :    0.179608
  22 H :    0.184060
  23 H :    0.196606
  24 H :    0.305043
  25 H :    0.310025

  Mayer bond orders larger than 0.100000
B(  0-C ,  1-C ) :   1.4281 B(  0-C ,  5-C ) :   1.3490 B(  0-C , 18-H ) :   0.9262
B(  1-C ,  2-C ) :   1.3118 B(  1-C , 19-H ) :   0.9556 B(  2-C ,  3-C ) :   1.3386
B(  2-C , 17-O ) :   1.0938 B(  3-C ,  4-C ) :   1.3162 B(  3-C , 14-C ) :   1.1218
B(  4-C ,  5-C ) :   1.3301 B(  4-C , 20-H ) :   0.9436 B(  5-C ,  6-C ) :   0.7513
B(  6-C ,  7-C ) :   1.3734 B(  6-C , 11-C ) :   1.4462 B(  7-C ,  8-C ) :   1.3852
B(  7-C , 21-H ) :   0.9379 B(  8-C ,  9-C ) :   1.4202 B(  8-C , 22-H ) :   0.9295
B(  9-C , 10-C ) :   1.3943 B(  9-C , 13-F ) :   0.8653 B( 10-C , 11-C ) :   1.3534
B( 10-C , 23-H ) :   0.9197 B( 11-C , 12-F ) :   0.8924 B( 14-C , 15-O ) :   1.8360
B( 14-C , 16-O ) :   1.1005 B( 16-O , 24-H ) :   0.8547 B( 17-O , 25-H ) :   0.7728

Dispersion correction           -0.011418704
FINAL SINGLE POINT ENERGY      -925.457530534528

DIPOLE MOMENT
-------------

Method             : SCF
Type of density    : Electron Density
Multiplicity       :   1
Irrep              :   0
Energy             :  -925.4571304732103272 Eh
Relativity type    :
Basis              : AO
                                X                 Y                 Z
Electronic contribution:     -8.791349668      -1.190985554       3.312841166
Nuclear contribution   :      8.644841090       0.809677734      -4.042567238
                        -----------------------------------------
Total Dipole Moment    :     -0.146508577      -0.381307820      -0.729726072
                        -----------------------------------------
Magnitude (a.u.)       :      0.836277799
Magnitude (Debye)      :      2.125649236

Rotational constants in cm-1:             0.031776             0.006877             0.005899
Rotational constants in MHz :           952.614420           206.152613           176.852586

                             ****ORCA TERMINATED NORMALLY****
TOTAL RUN TIME: 0 days 0 hours 1 minutes 17 seconds 471 msec
