                         Program Version 6.0.0  -   RELEASE  -
|  1> ! r2scan-3c def2/J RI DEFGRID2 scfconv6 printgap
|  2> %output
|  3>     printlevel normal
|  4> end
|  5> %cpcm
|  6>     smd true
|  7>     smdsolvent "water"
|  8> end
|  9> * xyz 0 1
| 10> C 0.5494761289 1.4235343843 1.0435137333
| 11> C 1.8948696055 1.6500984442 1.2125870035
| 12> C 2.8445894601 0.8680467475 0.5485912036
| 13> C 2.3940655707 -0.1573454455 -0.3072842543
| 14> C 1.0232241827 -0.368628824 -0.4717720958
| 15> C 0.0921893794 0.4073186669 0.1962332549
| 16> C -1.3462800123 0.1648865089 0.001742234
| 17> C -1.8629174146 -0.0818338404 -1.2705657002
| 18> C -3.2102849938 -0.3113183812 -1.4764057374
| 19> C -4.0578906561 -0.2982818955 -0.3850518498
| 20> C -3.6014360148 -0.0670654242 0.8980381285
| 21> C -2.2491056588 0.1622738293 1.0626909502
| 22> F -1.804025674 0.3641846571 2.3299483871
| 23> F -5.3846819153 -0.5213732045 -0.5713428654
| 24> C 3.3608233388 -0.9976963708 -1.0178015333
| 25> O 4.5780214012 -0.8726101969 -0.9120565386
| 26> O 2.8276614476 -1.9194637043 -1.800785899
| 27> O 4.1382280255 1.1352871274 0.7587819131
| 28> H -0.1596300179 2.0487502369 1.5628117861
| 29> H 2.251832545 2.4343562084 1.8600801479
| 30> H 0.701961295 -1.1700753202 -1.1176879072
| 31> H -1.1908238126 -0.0748128679 -2.1128341642
| 32> H -3.6053082049 -0.4953581798 -2.4613876
| 33> H -4.2696306005 -0.0684542421 1.7427188922
| 34> H 3.5075562534 -2.4552157214 -2.2533578701
| 35> H 4.6970468903 0.5147423627 0.23827473
| 36> *
| 37>
| 38>                          ****END OF INPUT****

CARTESIAN COORDINATES (ANGSTROEM)
---------------------------------
  C      0.549476    1.423534    1.043514
  C      1.894870    1.650098    1.212587
  C      2.844589    0.868047    0.548591
  C      2.394066   -0.157345   -0.307284
  C      1.023224   -0.368629   -0.471772
  C      0.092189    0.407319    0.196233
  C     -1.346280    0.164887    0.001742
  C     -1.862917   -0.081834   -1.270566
  C     -3.210285   -0.311318   -1.476406
  C     -4.057891   -0.298282   -0.385052
  C     -3.601436   -0.067065    0.898038
  C     -2.249106    0.162274    1.062691
  F     -1.804026    0.364185    2.329948
  F     -5.384682   -0.521373   -0.571343
  C      3.360823   -0.997696   -1.017802
  O      4.578021   -0.872610   -0.912057
  O      2.827661   -1.919464   -1.800786
  O      4.138228    1.135287    0.758782
  H     -0.159630    2.048750    1.562812
  H      2.251833    2.434356    1.860080
  H      0.701961   -1.170075   -1.117688
  H     -1.190824   -0.074813   -2.112834
  H     -3.605308   -0.495358   -2.461388
  H     -4.269631   -0.068454    1.742719
  H      3.507556   -2.455216   -2.253358
  H      4.697047    0.514742    0.238275

 Total Charge           Charge          ....    0
 Multiplicity           Mult            ....    1
 Number of Electrons    NEL             ....  128
 Basis Dimension        Dim             ....  407

ORBITAL ENERGIES
----------------

  NO   OCC          E(Eh)            E(eV)
   0   2.0000     -24.508576      -666.9123
   1   2.0000     -24.506470      -666.8550
   2   2.0000     -19.006811      -517.2016
   3   2.0000     -18.988612      -516.7064
   4   2.0000     -18.955730      -515.8116
   5   2.0000     -10.180628      -277.0290
   6   2.0000     -10.133452      -275.7453
   7   2.0000     -10.130770      -275.6723
   8   2.0000     -10.118073      -275.3268
   9   2.0000     -10.060406      -273.7576
  10   2.0000     -10.060027      -273.7472
  11   2.0000     -10.055158      -273.6147
  12   2.0000     -10.052178      -273.5337
  13   2.0000     -10.051851      -273.5248
  14   2.0000     -10.050998      -273.5016
  15   2.0000     -10.050653      -273.4922
  16   2.0000     -10.044830      -273.3337
  17   2.0000     -10.040876      -273.2261
  18   2.0000      -1.194751       -32.5108
  19   2.0000      -1.192006       -32.4361
  20   2.0000      -1.087537       -29.5934
  21   2.0000      -1.040557       -28.3150
  22   2.0000      -0.991774       -26.9875
  23   2.0000      -0.856819       -23.3152
  24   2.0000      -0.835807       -22.7435
  25   2.0000      -0.764808       -20.8115
  26   2.0000      -0.748124       -20.3575
  27   2.0000      -0.734565       -19.9885
  28   2.0000      -0.702646       -19.1200
  29   2.0000      -0.646227       -17.5847
  30   2.0000      -0.614489       -16.7211
  31   2.0000      -0.606682       -16.5087
  32   2.0000      -0.594758       -16.1842
  33   2.0000      -0.569055       -15.4848
  34   2.0000      -0.536066       -14.5871
  35   2.0000      -0.520969       -14.1763
  36   2.0000      -0.505368       -13.7518
  37   2.0000      -0.489075       -13.3084
  38   2.0000      -0.476256       -12.9596
  39   2.0000      -0.468485       -12.7481
  40   2.0000      -0.454725       -12.3737
  41   2.0000      -0.451428       -12.2840
  42   2.0000      -0.442269       -12.0348
  43   2.0000      -0.439111       -11.9488
  44   2.0000      -0.429662       -11.6917
  45   2.0000      -0.417698       -11.3661
  46   2.0000      -0.412593       -11.2272
  47   2.0000      -0.404008       -10.9936
  48   2.0000      -0.396453       -10.7880
  49   2.0000      -0.390821       -10.6348
  50   2.0000      -0.373118       -10.1530
  51   2.0000      -0.367084        -9.9889
  52   2.0000      -0.359676        -9.7873
  53   2.0000      -0.343810        -9.3556
  54   2.0000      -0.340414        -9.2631
  55   2.0000      -0.330607        -8.9963
  56   2.0000      -0.323542        -8.8040
  57   2.0000      -0.322503        -8.7758
  58   2.0000      -0.306870        -8.3503
  59   2.0000      -0.263774        -7.1777
  60   2.0000      -0.256943        -6.9918
  61   2.0000      -0.252111        -6.8603
  62   2.0000      -0.243896        -6.6368
  63   2.0000      -0.207402        -5.6437
  64   0.0000      -0.083410        -2.2697
  65   0.0000      -0.055946        -1.5224
  66   0.0000      -0.042922        -1.1680
  67   0.0000      -0.014750        -0.4014
  68   0.0000       0.021289         0.5793

MULLIKEN ATOMIC CHARGES
-----------------------
   0 C :   -0.155615
   1 C :   -0.369386
   2 C :    0.293544
   3 C :   -0.034519
   4 C :   -0.217247
   5 C :    0.212100
   6 C :   -0.100845
   7 C :   -0.139458
   8 C :   -0.327625
   9 C :    0.401326
  10 C :   -0.397521
  11 C :    0.350344
  12 F :   -0.242098
  13 F :   -0.245037
  14 C :    0.298682
  15 O :   -0.515023
  16 O :   -0.359372
  17 O :   -0.422944
  18 H :    0.190799
  19 H :    0.189138
  20 H :    0.205620
  21 H :    0.194132
  22 H :    0.199086
  23 H :    0.214165
  24 H :    0.387584
  25 H :    0.390168
Sum of atomic charges:    0.0000000

LOEWDIN ATOMIC CHARGES
----------------------
   0 C :   -0.102498
   1 C :   -0.136582
   2 C :    0.224697
   3 C :   -0.044861
   4 C :   -0.079259
   5 C :   -0.087464
   6 C :   -0.075452
   7 C :   -0.118806
   8 C :   -0.161433
   9 C :    0.216224
  10 C :   -0.139279
  11 C :    0.235881
  12 F :   -0.289491
  13 F :   -0.294798
  14 C :    0.392362
  15 O :   -0.499382
  16 O :   -0.386040
  17 O :   -0.482953
  18 H :    0.191464
  19 H :    0.194119
  20 H :    0.205304
  21 H :    0.192817
  22 H :    0.196026
  23 H :    0.208657
  24 H :    0.325369
  25 H :    0.315380

  Mayer bond orders larger than 0.100000
B(  0-C ,  1-C ) :   1.4256 B(  0-C ,  5-C ) :   1.3251 B(  0-C , 18-H ) :   0.9312
B(  1-C ,  2-C ) :   1.2733 B(  1-C , 19-H ) :   0.9650 B(  2-C ,  3-C ) :   1.3236
B(  2-C , 17-O ) :   1.0811 B(  3-C ,  4-C ) :   1.3076 B(  3-C , 14-C ) :   1.1198
B(  4-C ,  5-C ) :   1.3295 B(  4-C , 20-H ) :   0.9424 B(  5-C ,  6-C ) :   0.7476
B(  6-C ,  7-C ) :   1.3671 B(  6-C , 11-C ) :   1.4207 B(  7-C ,  8-C ) :   1.3933
B(  7-C , 21-H ) :   0.9368 B(  8-C ,  9-C ) :   1.3857 B(  8-C , 22-H ) :   0.9328
B(  9-C , 10-C ) :   1.3842 B(  9-C , 13-F ) :   0.8622 B( 10-C , 11-C ) :   1.3555
B( 10-C , 23-H ) :   0.9121 B( 11-C , 12-F ) :   0.8901 B( 14-C , 15-O ) :   1.8009
B( 14-C , 16-O ) :   1.1282 B( 16-O , 24-H ) :   0.8295 B( 17-O , 25-H ) :   0.7659

Dispersion correction           -0.011418704
FINAL SINGLE POINT ENERGY      -925.467917809445

DIPOLE MOMENT
-------------

Method             : SCF
Type of density    : Electron Density
Multiplicity       :   1
Irrep              :   0
Energy             :  -925.4675177481269657 Eh
Relativity type    :
Basis              : AO
                                X                 Y                 Z
Electronic contribution:     -8.977337719      -1.370284804       2.966651287
Nuclear contribution   :      8.644841090       0.809677734      -4.042567238
                        -----------------------------------------
Total Dipole Moment    :     -0.332496629      -0.560607069      -1.075915951
                        -----------------------------------------
Magnitude (a.u.)       :      1.257946512
Magnitude (Debye)      :      3.197445929

Rotational constants in cm-1:             0.031776             0.006877             0.005899
Rotational constants in MHz :           952.614420           206.152613           176.852586

                             ****ORCA TERMINATED NORMALLY****
TOTAL RUN TIME: 0 days 0 hours 1 minutes 49 seconds 154 msec
