                         Program Version 6.0.0  -   RELEASE  -
|  1> ! pbe def2-sv(p) def2/J RI DEFGRID1 loosescf d4 GCP(DFT/SV(P)) printgap
|  2> %output
|  3>     printlevel normal
|  4> end
|  5> * xyz 0 1
|  6> C -1.1779936717 0.2496110024 -0.3788882776
|  7> C 0.00134704 0.6507994322 0.5259711415
|  8> C 1.0338104346 -0.4864996936 0.638483348
|  9> O 1.2054886499 -1.1156441622 -0.6141802417
| 10> O 0.5379785766 1.8240404646 -0.0417656986
| 11> O -1.7363145025 -0.9953276266 -0.0489682689
| 12> H -0.8203747651 0.2680778593 -1.4137806924
| 13> H -1.9709353314 0.9920704039 -0.2705687344
| 14> H -0.3734372274 0.8564351349 1.5400242944
| 15> H 0.6685203252 -1.2088200164 1.380653759
| 16> H 1.9802952603 -0.0641073726 0.996154454
| 17> H 1.975544465 -1.6985108512 -0.5791788508
| 18> H 1.2516968483 2.1615690872 0.5180642993
| 19> H -1.1227950586 -1.6843576295 -0.3429083094
| 20> *
| 21>
| 22>                          ****END OF INPUT****

CARTESIAN COORDINATES (ANGSTROEM)
---------------------------------
  C     -1.177994    0.249611   -0.378888
  C      0.001347    0.650799    0.525971
  C      1.033810   -0.486500    0.638483
  O      1.205489   -1.115644   -0.614180
  O      0.537979    1.824040   -0.041766
  O     -1.736315   -0.995328   -0.048968
  H     -0.820375    0.268078   -1.413781
  H     -1.970935    0.992070   -0.270569
  H     -0.373437    0.856435    1.540024
  H      0.668520   -1.208820    1.380654
  H      1.980295   -0.064107    0.996154
  H      1.975544   -1.698511   -0.579179
  H      1.251697    2.161569    0.518064
  H     -1.122795   -1.684358   -0.342908

 Total Charge           Charge          ....    0
 Multiplicity           Mult            ....    1
 Number of Electrons    NEL             ....   50
 Basis Dimension        Dim             ....  100

ORBITAL ENERGIES
----------------

  NO   OCC          E(Eh)            E(eV)
   0   2.0000     -18.760674      -510.5039
   1   2.0000     -18.744994      -510.0772
   2   2.0000     -18.734787      -509.7995
   3   2.0000      -9.938413      -270.4380
   4   2.0000      -9.935064      -270.3468
   5   2.0000      -9.916695      -269.8470
   6   2.0000      -0.939897       -25.5759
   7   2.0000      -0.919220       -25.0133
   8   2.0000      -0.908573       -24.7235
   9   2.0000      -0.675460       -18.3802
  10   2.0000      -0.608563       -16.5599
  11   2.0000      -0.525827       -14.3085
  12   2.0000      -0.493838       -13.4380
  13   2.0000      -0.455588       -12.3972
  14   2.0000      -0.432390       -11.7659
  15   2.0000      -0.415441       -11.3047
  16   2.0000      -0.389935       -10.6107
  17   2.0000      -0.360676        -9.8145
  18   2.0000      -0.339934        -9.2501
  19   2.0000      -0.307401        -8.3648
  20   2.0000      -0.286538        -7.7971
  21   2.0000      -0.262909        -7.1541
  22   2.0000      -0.230665        -6.2767
  23   2.0000      -0.216966        -5.9040
  24   2.0000      -0.205707        -5.5976
  25   0.0000       0.009353         0.2545
  26   0.0000       0.027488         0.7480
  27   0.0000       0.068402         1.8613
  28   0.0000       0.081834         2.2268
  29   0.0000       0.089141         2.4256

MULLIKEN ATOMIC CHARGES
-----------------------
   0 C :    0.023326
   1 C :    0.012806
   2 C :   -0.020492
   3 O :   -0.436334
   4 O :   -0.423339
   5 O :   -0.443014
   6 H :    0.090718
   7 H :    0.091858
   8 H :    0.060970
   9 H :    0.076467
  10 H :    0.063886
  11 H :    0.305960
  12 H :    0.295487
  13 H :    0.301699
Sum of atomic charges:    0.0000000

LOEWDIN ATOMIC CHARGES
----------------------
   0 C :   -0.127813
   1 C :   -0.087890
   2 C :   -0.144950
   3 O :   -0.340632
   4 O :   -0.325102
   5 O :   -0.339021
   6 H :    0.106682
   7 H :    0.114814
   8 H :    0.099868
   9 H :    0.097402
  10 H :    0.095820
  11 H :    0.290397
  12 H :    0.281556
  13 H :    0.278869

  Mayer bond orders larger than 0.100000
B(  0-C ,  1-C ) :   1.0246 B(  0-C ,  5-O ) :   1.0972 B(  0-C ,  6-H ) :   0.9171
B(  0-C ,  7-H ) :   0.9318 B(  1-C ,  2-C ) :   1.0379 B(  1-C ,  4-O ) :   1.0543
B(  1-C ,  8-H ) :   0.8983 B(  2-C ,  3-O ) :   1.0735 B(  2-C ,  9-H ) :   0.9085
B(  2-C , 10-H ) :   0.9208 B(  3-O , 11-H ) :   0.8488 B(  4-O , 12-H ) :   0.8506
B(  5-O , 13-H ) :   0.8390

Dispersion correction           -0.009415330
FINAL SINGLE POINT ENERGY      -344.004759746087

DIPOLE MOMENT
-------------

Method             : SCF
Type of density    : Electron Density
Multiplicity       :   1
Irrep              :   0
Energy             :  -344.0782804686367626 Eh
Relativity type    :
Basis              : AO
                                X                 Y                 Z
Electronic contribution:     -0.193350515       0.016131267      -1.111974690
Nuclear contribution   :      1.490408254      -0.358556282       1.704943781
                        -----------------------------------------
Total Dipole Moment    :      1.297057739      -0.342425015       0.592969091
                        -----------------------------------------
Magnitude (a.u.)       :      1.466705837
Magnitude (Debye)      :      3.728069963

Rotational constants in cm-1:             0.131565             0.111302             0.071827
Rotational constants in MHz :          3944.218579          3336.742055          2153.329406

                             ****ORCA TERMINATED NORMALLY****
TOTAL RUN TIME: 0 days 0 hours 0 minutes 6 seconds 899 msec
