                         Program Version 6.0.0  -   RELEASE  -
|  1> ! r2scan-3c def2/J RI DEFGRID2 scfconv6 printgap
|  2> %output
|  3>     printlevel normal
|  4> end
|  5> * xyz 0 1
|  6> C 2.0921447982 -1.3458250221 -0.1968053091
|  7> C 1.6577103007 0.106731134 -0.3276830346
|  8> C 0.326584307 0.4376162795 0.3594928268
|  9> H 0.3971471603 0.1396779736 1.4178283938
| 10> C -0.876115219 -0.3058581375 -0.286747461
| 11> C -1.2814371681 -1.5134367534 0.5580011546
| 12> C -2.0903675548 0.6019265066 -0.4893309804
| 13> O 0.2187315199 1.8518430923 0.2938743752
| 14> H 1.4074204896 -2.0089995448 -0.7179799511
| 15> H 2.1358467495 -1.6383002483 0.849840103
| 16> H 3.0813114226 -1.4716224557 -0.6293375618
| 17> H 2.4146963594 0.7562704739 0.117492648
| 18> H 1.5723822117 0.383134722 -1.3804963531
| 19> H -0.5608121206 -0.6558450061 -1.2750038799
| 20> H -1.6543623774 -1.1882995961 1.527333392
| 21> H -2.0706680936 -2.0699900011 0.0581437389
| 22> H -0.4408063566 -2.1809473893 0.7213182882
| 23> H -1.8235958543 1.4748895423 -1.0797244836
| 24> H -2.4978878359 0.9264016217 0.466226769
| 25> H -2.8673748189 0.055029351 -1.0177729547
| 26> H -0.5219310868 2.1407504223 0.8421951184
| 27> *
| 28>
| 29>                          ****END OF INPUT****

CARTESIAN COORDINATES (ANGSTROEM)
---------------------------------
  C      2.092145   -1.345825   -0.196805
  C      1.657710    0.106731   -0.327683
  C      0.326584    0.437616    0.359493
  H      0.397147    0.139678    1.417828
  C     -0.876115   -0.305858   -0.286747
  C     -1.281437   -1.513437    0.558001
  C     -2.090368    0.601927   -0.489331
  O      0.218732    1.851843    0.293874
  H      1.407420   -2.009000   -0.717980
  H      2.135847   -1.638300    0.849840
  H      3.081311   -1.471622   -0.629338
  H      2.414696    0.756270    0.117493
  H      1.572382    0.383135   -1.380496
  H     -0.560812   -0.655845   -1.275004
  H     -1.654362   -1.188300    1.527333
  H     -2.070668   -2.069990    0.058144
  H     -0.440806   -2.180947    0.721318
  H     -1.823596    1.474890   -1.079724
  H     -2.497888    0.926402    0.466227
  H     -2.867375    0.055029   -1.017773
  H     -0.521931    2.140750    0.842195

 Total Charge           Charge          ....    0
 Multiplicity           Mult            ....    1
 Number of Electrons    NEL             ....   58
 Basis Dimension        Dim             ....  208

ORBITAL ENERGIES
----------------

  NO   OCC          E(Eh)            E(eV)
   0   2.0000     -18.942661      -515.4560
   1   2.0000     -10.076132      -274.1855
   2   2.0000     -10.033090      -273.0143
   3   2.0000     -10.021606      -272.7018
   4   2.0000     -10.019116      -272.6340
   5   2.0000     -10.018225      -272.6098
   6   2.0000     -10.017558      -272.5916
   7   2.0000      -0.981249       -26.7011
   8   2.0000      -0.772053       -21.0086
   9   2.0000      -0.731405       -19.9025
  10   2.0000      -0.651425       -17.7262
  11   2.0000      -0.640190       -17.4204
  12   2.0000      -0.564004       -15.3473
  13   2.0000      -0.525160       -14.2903
  14   2.0000      -0.478981       -13.0337
  15   2.0000      -0.432636       -11.7726
  16   2.0000      -0.430287       -11.7087
  17   2.0000      -0.394805       -10.7432
  18   2.0000      -0.384631       -10.4663
  19   2.0000      -0.370104       -10.0711
  20   2.0000      -0.358044        -9.7429
  21   2.0000      -0.341488        -9.2924
  22   2.0000      -0.334670        -9.1068
  23   2.0000      -0.328486        -8.9386
  24   2.0000      -0.309442        -8.4203
  25   2.0000      -0.301108        -8.1936
  26   2.0000      -0.294059        -8.0018
  27   2.0000      -0.270488        -7.3604
  28   2.0000      -0.231060        -6.2875
  29   0.0000       0.054024         1.4701
  30   0.0000       0.088331         2.4036
  31   0.0000       0.110297         3.0013
  32   0.0000       0.111311         3.0289
  33   0.0000       0.127679         3.4743

MULLIKEN ATOMIC CHARGES
-----------------------
   0 C :   -0.510916
   1 C :   -0.273309
   2 C :   -0.030347
   3 H :    0.141807
   4 C :    0.025892
   5 C :   -0.518695
   6 C :   -0.557434
   7 O :   -0.424741
   8 H :    0.152760
   9 H :    0.153755
  10 H :    0.148977
  11 H :    0.154178
  12 H :    0.153369
  13 H :    0.155609
  14 H :    0.149858
  15 H :    0.147225
  16 H :    0.155864
  17 H :    0.180013
  18 H :    0.147321
  19 H :    0.149247
  20 H :    0.299569
Sum of atomic charges:    0.0000000

LOEWDIN ATOMIC CHARGES
----------------------
   0 C :   -0.422644
   1 C :   -0.272324
   2 C :    0.064650
   3 H :    0.164073
   4 C :   -0.226304
   5 C :   -0.415572
   6 C :   -0.409829
   7 O :   -0.622697
   8 H :    0.150191
   9 H :    0.151040
  10 H :    0.152917
  11 H :    0.165260
  12 H :    0.160640
  13 H :    0.160547
  14 H :    0.152135
  15 H :    0.153613
  16 H :    0.155543
  17 H :    0.166070
  18 H :    0.148952
  19 H :    0.155359
  20 H :    0.268379

  Mayer bond orders larger than 0.100000
B(  0-C ,  1-C ) :   0.8525 B(  0-C ,  8-H ) :   0.9743 B(  0-C ,  9-H ) :   0.9842
B(  0-C , 10-H ) :   0.9652 B(  1-C ,  2-C ) :   0.9144 B(  1-C , 11-H ) :   0.9760
B(  1-C , 12-H ) :   0.9934 B(  2-C ,  3-H ) :   0.9876 B(  2-C ,  4-C ) :   0.8100
B(  2-C ,  7-O ) :   0.9476 B(  4-C ,  5-C ) :   0.8833 B(  4-C ,  6-C ) :   0.8614
B(  4-C , 13-H ) :   0.9443 B(  5-C , 14-H ) :   0.9889 B(  5-C , 15-H ) :   0.9738
B(  5-C , 16-H ) :   0.9643 B(  6-C , 17-H ) :   0.9711 B(  6-C , 18-H ) :   0.9981
B(  6-C , 19-H ) :   0.9681 B(  7-O , 20-H ) :   0.8878

Dispersion correction           -0.005706049
FINAL SINGLE POINT ENERGY      -312.197867876062

DIPOLE MOMENT
-------------

Method             : SCF
Type of density    : Electron Density
Multiplicity       :   1
Irrep              :   0
Energy             :  -312.2034557418701866 Eh
Relativity type    :
Basis              : AO
                                X                 Y                 Z
Electronic contribution:      1.024513047       4.636136836       0.311938064
Nuclear contribution   :     -1.337046338      -4.980293632      -0.089395677
                        -----------------------------------------
Total Dipole Moment    :     -0.312533291      -0.344156796       0.222542388
                        -----------------------------------------
Magnitude (a.u.)       :      0.515408646
Magnitude (Debye)      :      1.310064666

Rotational constants in cm-1:             0.104394             0.067560             0.046824
Rotational constants in MHz :          3129.647019          2025.408920          1403.750664

                             ****ORCA TERMINATED NORMALLY****
TOTAL RUN TIME: 0 days 0 hours 0 minutes 25 seconds 52 msec
