                         Program Version 6.0.0  -   RELEASE  -
|  1> ! r2scan-3c def2/J RI DEFGRID2 scfconv6 printgap
|  2> %output
|  3>     printlevel normal
|  4> end
|  5> %cpcm
|  6>     smd true
|  7>     smdsolvent "water"
|  8> end
|  9> * xyz 0 1
| 10> C 2.0921447982 -1.3458250221 -0.1968053091
| 11> C 1.6577103007 0.106731134 -0.3276830346
| 12> C 0.326584307 0.4376162795 0.3594928268
| 13> H 0.3971471603 0.1396779736 1.4178283938
| 14> C -0.876115219 -0.3058581375 -0.286747461
| 15> C -1.2814371681 -1.5134367534 0.5580011546
| 16> C -2.0903675548 0.6019265066 -0.4893309804
| 17> O 0.2187315199 1.8518430923 0.2938743752
| 18> H 1.4074204896 -2.0089995448 -0.7179799511
| 19> H 2.1358467495 -1.6383002483 0.849840103
| 20> H 3.0813114226 -1.4716224557 -0.6293375618
| 21> H 2.4146963594 0.7562704739 0.117492648
| 22> H 1.5723822117 0.383134722 -1.3804963531
| 23> H -0.5608121206 -0.6558450061 -1.2750038799
| 24> H -1.6543623774 -1.1882995961 1.527333392
| 25> H -2.0706680936 -2.0699900011 0.0581437389
| 26> H -0.4408063566 -2.1809473893 0.7213182882
| 27> H -1.8235958543 1.4748895423 -1.0797244836
| 28> H -2.4978878359 0.9264016217 0.466226769
| 29> H -2.8673748189 0.055029351 -1.0177729547
| 30> H -0.5219310868 2.1407504223 0.8421951184
| 31> *
| 32>
| 33>                          ****END OF INPUT****

CARTESIAN COORDINATES (ANGSTROEM)
---------------------------------
  C      2.092145   -1.345825   -0.196805
  C      1.657710    0.106731   -0.327683
  C      0.326584    0.437616    0.359493
  H      0.397147    0.139678    1.417828
  C     -0.876115   -0.305858   -0.286747
  C     -1.281437   -1.513437    0.558001
  C     -2.090368    0.601927   -0.489331
  O      0.218732    1.851843    0.293874
  H      1.407420   -2.009000   -0.717980
  H      2.135847   -1.638300    0.849840
  H      3.081311   -1.471622   -0.629338
  H      2.414696    0.756270    0.117493
  H      1.572382    0.383135   -1.380496
  H     -0.560812   -0.655845   -1.275004
  H     -1.654362   -1.188300    1.527333
  H     -2.070668   -2.069990    0.058144
  H     -0.440806   -2.180947    0.721318
  H     -1.823596    1.474890   -1.079724
  H     -2.497888    0.926402    0.466227
  H     -2.867375    0.055029   -1.017773
  H     -0.521931    2.140750    0.842195

 Total Charge           Charge          ....    0
 Multiplicity           Mult            ....    1
 Number of Electrons    NEL             ....   58
 Basis Dimension        Dim             ....  208

ORBITAL ENERGIES
----------------

  NO   OCC          E(Eh)            E(eV)
   0   2.0000     -18.946516      -515.5609
   1   2.0000     -10.071092      -274.0483
   2   2.0000     -10.024553      -272.7819
   3   2.0000     -10.017528      -272.5908
   4   2.0000     -10.010508      -272.3998
   5   2.0000     -10.007498      -272.3179
   6   2.0000     -10.007278      -272.3119
   7   2.0000      -0.983889       -26.7730
   8   2.0000      -0.764455       -20.8019
   9   2.0000      -0.724399       -19.7119
  10   2.0000      -0.641864       -17.4660
  11   2.0000      -0.634037       -17.2530
  12   2.0000      -0.557724       -15.1764
  13   2.0000      -0.518752       -14.1160
  14   2.0000      -0.475614       -12.9421
  15   2.0000      -0.426135       -11.5957
  16   2.0000      -0.422570       -11.4987
  17   2.0000      -0.387378       -10.5411
  18   2.0000      -0.379655       -10.3309
  19   2.0000      -0.362247        -9.8572
  20   2.0000      -0.348105        -9.4724
  21   2.0000      -0.334308        -9.0970
  22   2.0000      -0.329958        -8.9786
  23   2.0000      -0.324039        -8.8175
  24   2.0000      -0.301311        -8.1991
  25   2.0000      -0.294265        -8.0074
  26   2.0000      -0.289192        -7.8693
  27   2.0000      -0.266389        -7.2488
  28   2.0000      -0.233896        -6.3646
  29   0.0000       0.069758         1.8982
  30   0.0000       0.097760         2.6602
  31   0.0000       0.118294         3.2189
  32   0.0000       0.121167         3.2971
  33   0.0000       0.135562         3.6888

MULLIKEN ATOMIC CHARGES
-----------------------
   0 C :   -0.544687
   1 C :   -0.277688
   2 C :   -0.013367
   3 H :    0.153881
   4 C :    0.023810
   5 C :   -0.560039
   6 C :   -0.574849
   7 O :   -0.514502
   8 H :    0.166327
   9 H :    0.165633
  10 H :    0.159020
  11 H :    0.152180
  12 H :    0.159360
  13 H :    0.165645
  14 H :    0.164694
  15 H :    0.158419
  16 H :    0.163803
  17 H :    0.166994
  18 H :    0.170028
  19 H :    0.161294
  20 H :    0.354044
Sum of atomic charges:    0.0000000

LOEWDIN ATOMIC CHARGES
----------------------
   0 C :   -0.426860
   1 C :   -0.278119
   2 C :    0.065532
   3 H :    0.171543
   4 C :   -0.222656
   5 C :   -0.421260
   6 C :   -0.414875
   7 O :   -0.659333
   8 H :    0.155060
   9 H :    0.155152
  10 H :    0.155250
  11 H :    0.162673
  12 H :    0.161274
  13 H :    0.163357
  14 H :    0.156299
  15 H :    0.156268
  16 H :    0.157665
  17 H :    0.161632
  18 H :    0.157672
  19 H :    0.157861
  20 H :    0.285865

  Mayer bond orders larger than 0.100000
B(  0-C ,  1-C ) :   0.8625 B(  0-C ,  8-H ) :   0.9721 B(  0-C ,  9-H ) :   0.9810
B(  0-C , 10-H ) :   0.9622 B(  1-C ,  2-C ) :   0.9092 B(  1-C , 11-H ) :   0.9739
B(  1-C , 12-H ) :   0.9855 B(  2-C ,  3-H ) :   0.9809 B(  2-C ,  4-C ) :   0.8256
B(  2-C ,  7-O ) :   0.9260 B(  4-C ,  5-C ) :   0.8756 B(  4-C ,  6-C ) :   0.8639
B(  4-C , 13-H ) :   0.9484 B(  5-C , 14-H ) :   0.9862 B(  5-C , 15-H ) :   0.9721
B(  5-C , 16-H ) :   0.9624 B(  6-C , 17-H ) :   0.9716 B(  6-C , 18-H ) :   0.9895
B(  6-C , 19-H ) :   0.9678 B(  7-O , 20-H ) :   0.8614

Dispersion correction           -0.005706049
FINAL SINGLE POINT ENERGY      -312.203219575451

DIPOLE MOMENT
-------------

Method             : SCF
Type of density    : Electron Density
Multiplicity       :   1
Irrep              :   0
Energy             :  -312.2088074412588981 Eh
Relativity type    :
Basis              : AO
                                X                 Y                 Z
Electronic contribution:      0.851049531       4.444148497       0.474115514
Nuclear contribution   :     -1.337046338      -4.980293632      -0.089395677
                        -----------------------------------------
Total Dipole Moment    :     -0.485996806      -0.536145135       0.384719837
                        -----------------------------------------
Magnitude (a.u.)       :      0.819544907
Magnitude (Debye)      :      2.083117605

Rotational constants in cm-1:             0.104394             0.067560             0.046824
Rotational constants in MHz :          3129.647019          2025.408920          1403.750664

                             ****ORCA TERMINATED NORMALLY****
TOTAL RUN TIME: 0 days 0 hours 0 minutes 32 seconds 522 msec
