                         Program Version 6.0.0  -   RELEASE  -
|  1> ! r2scan-3c def2/J RI DEFGRID2 scfconv6 printgap
|  2> %output
|  3>     printlevel normal
|  4> end
|  5> * xyz 0 1
|  6> C -1.3564000159 -0.4229181944 -0.3784119328
|  7> C 0.0044337443 -0.0763740351 0.2521466517
|  8> C 1.1430218591 -0.7516682801 -0.5191022401
|  9> O 2.3843151905 -0.5763760536 0.1166307347
| 10> O 0.251418324 1.3195760164 0.2137363305
| 11> O -2.4222096555 0.2571486136 0.2453566674
| 12> H -1.5506369916 -1.4880751509 -0.2435738732
| 13> H -1.3266407843 -0.1988510596 -1.4502344246
| 14> H 0.0209872255 -0.4280914455 1.292322941
| 15> H 1.1717867541 -0.3394492979 -1.5360473088
| 16> H 0.9722998264 -1.8276125642 -0.5712867961
| 17> H 2.5295034491 0.3751255242 0.2300647725
| 18> H -0.2898847839 1.7572962135 0.8844173872
| 19> H -2.4269502322 1.1773529772 -0.0540596051
| 20> *
| 21>
| 22>                          ****END OF INPUT****

CARTESIAN COORDINATES (ANGSTROEM)
---------------------------------
  C     -1.356400   -0.422918   -0.378412
  C      0.004434   -0.076374    0.252147
  C      1.143022   -0.751668   -0.519102
  O      2.384315   -0.576376    0.116631
  O      0.251418    1.319576    0.213736
  O     -2.422210    0.257149    0.245357
  H     -1.550637   -1.488075   -0.243574
  H     -1.326641   -0.198851   -1.450234
  H      0.020987   -0.428091    1.292323
  H      1.171787   -0.339449   -1.536047
  H      0.972300   -1.827613   -0.571287
  H      2.529503    0.375126    0.230065
  H     -0.289885    1.757296    0.884417
  H     -2.426950    1.177353   -0.054060

 Total Charge           Charge          ....    0
 Multiplicity           Mult            ....    1
 Number of Electrons    NEL             ....   50
 Basis Dimension        Dim             ....  169

ORBITAL ENERGIES
----------------

  NO   OCC          E(Eh)            E(eV)
   0   2.0000     -18.967762      -516.1390
   1   2.0000     -18.962492      -515.9957
   2   2.0000     -18.947765      -515.5949
   3   2.0000     -10.087817      -274.5035
   4   2.0000     -10.084382      -274.4100
   5   2.0000     -10.080666      -274.3089
   6   2.0000      -1.014316       -27.6009
   7   2.0000      -0.993396       -27.0317
   8   2.0000      -0.980295       -26.6752
   9   2.0000      -0.734819       -19.9954
  10   2.0000      -0.641909       -17.4672
  11   2.0000      -0.577523       -15.7152
  12   2.0000      -0.512023       -13.9328
  13   2.0000      -0.493449       -13.4274
  14   2.0000      -0.463441       -12.6109
  15   2.0000      -0.436508       -11.8780
  16   2.0000      -0.401569       -10.9273
  17   2.0000      -0.392788       -10.6883
  18   2.0000      -0.378702       -10.3050
  19   2.0000      -0.334098        -9.0913
  20   2.0000      -0.316256        -8.6058
  21   2.0000      -0.294636        -8.0175
  22   2.0000      -0.279050        -7.5933
  23   2.0000      -0.249401        -6.7866
  24   2.0000      -0.228544        -6.2190
  25   0.0000       0.028822         0.7843
  26   0.0000       0.076749         2.0884
  27   0.0000       0.079558         2.1649
  28   0.0000       0.104475         2.8429
  29   0.0000       0.122831         3.3424

MULLIKEN ATOMIC CHARGES
-----------------------
   0 C :   -0.197357
   1 C :    0.077943
   2 C :   -0.203852
   3 O :   -0.417167
   4 O :   -0.452965
   5 O :   -0.423364
   6 H :    0.141926
   7 H :    0.136580
   8 H :    0.145108
   9 H :    0.138332
  10 H :    0.134555
  11 H :    0.314084
  12 H :    0.302048
  13 H :    0.304129
Sum of atomic charges:   -0.0000000

LOEWDIN ATOMIC CHARGES
----------------------
   0 C :    0.016463
   1 C :    0.066736
   2 C :    0.026518
   3 O :   -0.595416
   4 O :   -0.599660
   5 O :   -0.600763
   6 H :    0.181754
   7 H :    0.165373
   8 H :    0.175111
   9 H :    0.166558
  10 H :    0.182274
  11 H :    0.274989
  12 H :    0.272647
  13 H :    0.267416

  Mayer bond orders larger than 0.100000
B(  0-C ,  1-C ) :   0.8942 B(  0-C ,  5-O ) :   0.9666 B(  0-C ,  6-H ) :   0.9707
B(  0-C ,  7-H ) :   0.9819 B(  1-C ,  2-C ) :   0.9310 B(  1-C ,  4-O ) :   0.8785
B(  1-C ,  8-H ) :   0.9468 B(  2-C ,  3-O ) :   0.9697 B(  2-C ,  9-H ) :   0.9746
B(  2-C , 10-H ) :   0.9680 B(  3-O , 11-H ) :   0.8763 B(  4-O , 12-H ) :   0.8901
B(  5-O , 13-H ) :   0.8888

Dispersion correction           -0.002981272
FINAL SINGLE POINT ENERGY      -344.725728940037

DIPOLE MOMENT
-------------

Method             : SCF
Type of density    : Electron Density
Multiplicity       :   1
Irrep              :   0
Energy             :  -344.7332733062742705 Eh
Relativity type    :
Basis              : AO
                                X                 Y                 Z
Electronic contribution:      0.441198024       1.392034397       1.207342127
Nuclear contribution   :     -0.840749177      -0.897333969      -1.350297151
                        -----------------------------------------
Total Dipole Moment    :     -0.399551153       0.494700427      -0.142955024
                        -----------------------------------------
Magnitude (a.u.)       :      0.651771260
Magnitude (Debye)      :      1.656670885

Rotational constants in cm-1:             0.266100             0.065218             0.055973
Rotational constants in MHz :          7977.480214          1955.178851          1678.015045

                             ****ORCA TERMINATED NORMALLY****
TOTAL RUN TIME: 0 days 0 hours 0 minutes 20 seconds 380 msec
