                         Program Version 6.0.0  -   RELEASE  -
|  1> ! r2scan-3c def2/J RI DEFGRID2 scfconv6 printgap
|  2> %output
|  3>     printlevel normal
|  4> end
|  5> %cpcm
|  6>     smd true
|  7>     smdsolvent "water"
|  8> end
|  9> * xyz 0 1
| 10> C -1.3564000159 -0.4229181944 -0.3784119328
| 11> C 0.0044337443 -0.0763740351 0.2521466517
| 12> C 1.1430218591 -0.7516682801 -0.5191022401
| 13> O 2.3843151905 -0.5763760536 0.1166307347
| 14> O 0.251418324 1.3195760164 0.2137363305
| 15> O -2.4222096555 0.2571486136 0.2453566674
| 16> H -1.5506369916 -1.4880751509 -0.2435738732
| 17> H -1.3266407843 -0.1988510596 -1.4502344246
| 18> H 0.0209872255 -0.4280914455 1.292322941
| 19> H 1.1717867541 -0.3394492979 -1.5360473088
| 20> H 0.9722998264 -1.8276125642 -0.5712867961
| 21> H 2.5295034491 0.3751255242 0.2300647725
| 22> H -0.2898847839 1.7572962135 0.8844173872
| 23> H -2.4269502322 1.1773529772 -0.0540596051
| 24> *
| 25>
| 26>                          ****END OF INPUT****

CARTESIAN COORDINATES (ANGSTROEM)
---------------------------------
  C     -1.356400   -0.422918   -0.378412
  C      0.004434   -0.076374    0.252147
  C      1.143022   -0.751668   -0.519102
  O      2.384315   -0.576376    0.116631
  O      0.251418    1.319576    0.213736
  O     -2.422210    0.257149    0.245357
  H     -1.550637   -1.488075   -0.243574
  H     -1.326641   -0.198851   -1.450234
  H      0.020987   -0.428091    1.292323
  H      1.171787   -0.339449   -1.536047
  H      0.972300   -1.827613   -0.571287
  H      2.529503    0.375126    0.230065
  H     -0.289885    1.757296    0.884417
  H     -2.426950    1.177353   -0.054060

 Total Charge           Charge          ....    0
 Multiplicity           Mult            ....    1
 Number of Electrons    NEL             ....   50
 Basis Dimension        Dim             ....  169

ORBITAL ENERGIES
----------------

  NO   OCC          E(Eh)            E(eV)
   0   2.0000     -18.957079      -515.8483
   1   2.0000     -18.955659      -515.8097
   2   2.0000     -18.953916      -515.7623
   3   2.0000     -10.077882      -274.2331
   4   2.0000     -10.072873      -274.0968
   5   2.0000     -10.071288      -274.0537
   6   2.0000      -1.006492       -27.3881
   7   2.0000      -0.990640       -26.9567
   8   2.0000      -0.977004       -26.5856
   9   2.0000      -0.724461       -19.7136
  10   2.0000      -0.633468       -17.2375
  11   2.0000      -0.568489       -15.4694
  12   2.0000      -0.502084       -13.6624
  13   2.0000      -0.482539       -13.1306
  14   2.0000      -0.459499       -12.5036
  15   2.0000      -0.428150       -11.6506
  16   2.0000      -0.397405       -10.8139
  17   2.0000      -0.386300       -10.5118
  18   2.0000      -0.372022       -10.1232
  19   2.0000      -0.329497        -8.9661
  20   2.0000      -0.315067        -8.5734
  21   2.0000      -0.291229        -7.9248
  22   2.0000      -0.274411        -7.4671
  23   2.0000      -0.249029        -6.7764
  24   2.0000      -0.226632        -6.1670
  25   0.0000       0.050415         1.3719
  26   0.0000       0.088561         2.4099
  27   0.0000       0.100584         2.7370
  28   0.0000       0.119548         3.2531
  29   0.0000       0.138269         3.7625

MULLIKEN ATOMIC CHARGES
-----------------------
   0 C :   -0.211626
   1 C :    0.079199
   2 C :   -0.209327
   3 O :   -0.496225
   4 O :   -0.505841
   5 O :   -0.495323
   6 H :    0.160181
   7 H :    0.154159
   8 H :    0.152917
   9 H :    0.152118
  10 H :    0.159339
  11 H :    0.354163
  12 H :    0.350201
  13 H :    0.356066
Sum of atomic charges:    0.0000000

LOEWDIN ATOMIC CHARGES
----------------------
   0 C :    0.017465
   1 C :    0.070470
   2 C :    0.025522
   3 O :   -0.634292
   4 O :   -0.617451
   5 O :   -0.631343
   6 H :    0.188214
   7 H :    0.173653
   8 H :    0.179468
   9 H :    0.173484
  10 H :    0.191010
  11 H :    0.287420
  12 H :    0.290203
  13 H :    0.286177

  Mayer bond orders larger than 0.100000
B(  0-C ,  1-C ) :   0.9200 B(  0-C ,  5-O ) :   0.9564 B(  0-C ,  6-H ) :   0.9651
B(  0-C ,  7-H ) :   0.9720 B(  1-C ,  2-C ) :   0.9422 B(  1-C ,  4-O ) :   0.8737
B(  1-C ,  8-H ) :   0.9384 B(  2-C ,  3-O ) :   0.9486 B(  2-C ,  9-H ) :   0.9667
B(  2-C , 10-H ) :   0.9616 B(  3-O , 11-H ) :   0.8559 B(  4-O , 12-H ) :   0.8668
B(  5-O , 13-H ) :   0.8625

Dispersion correction           -0.002981272
FINAL SINGLE POINT ENERGY      -344.746769268844

DIPOLE MOMENT
-------------

Method             : SCF
Type of density    : Electron Density
Multiplicity       :   1
Irrep              :   0
Energy             :  -344.7543136350817576 Eh
Relativity type    :
Basis              : AO
                                X                 Y                 Z
Electronic contribution:      0.289579015       1.550590052       1.129950651
Nuclear contribution   :     -0.840749177      -0.897333969      -1.350297151
                        -----------------------------------------
Total Dipole Moment    :     -0.551170163       0.653256082      -0.220346500
                        -----------------------------------------
Magnitude (a.u.)       :      0.882657712
Magnitude (Debye)      :      2.243537608

Rotational constants in cm-1:             0.266100             0.065218             0.055973
Rotational constants in MHz :          7977.480214          1955.178851          1678.015045

                             ****ORCA TERMINATED NORMALLY****
TOTAL RUN TIME: 0 days 0 hours 0 minutes 24 seconds 12 msec
