                         Program Version 6.0.0  -   RELEASE  -
|  1> ! r2scan-3c def2/J RI DEFGRID2 scfconv6 printgap
|  2> %output
|  3>     printlevel normal
|  4> end
|  5> * xyz 0 1
|  6> C 2.5531212814 -0.3800682509 -0.5564558758
|  7> C 1.2792900389 -0.0664987976 0.2322398088
|  8> H 1.2458516673 -0.6942935201 1.1304859544
|  9> C 0.0338577213 -0.3398467032 -0.6253899879
| 10> C -1.2698241655 -0.4837572406 0.1696657117
| 11> C -1.7264156837 0.8488219109 0.7584545739
| 12> C -2.3644561782 -1.0631975325 -0.7262947441
| 13> O 1.3198121368 1.2570693733 0.7373147655
| 14> H 2.6052236104 -1.4409329455 -0.7813196424
| 15> H 2.5656859866 0.1775635136 -1.4907430924
| 16> H 3.4259118707 -0.1032703923 0.0300855743
| 17> H -0.0775302548 0.4622690569 -1.3591415101
| 18> H 0.2089560673 -1.2690856504 -1.1703796134
| 19> H -1.0899295674 -1.1836808311 0.9939610848
| 20> H -2.6174239197 0.7084100617 1.3662109441
| 21> H -1.9624337069 1.5519726707 -0.0377801054
| 22> H -0.9462896771 1.2776393626 1.3812723159
| 23> H -2.0766284232 -2.0408931535 -1.1056889496
| 24> H -3.2918312458 -1.1707405595 -0.1690212199
| 25> H -2.54790726 -0.4050932344 -1.5728935772
| 26> H 1.4165254526 1.8665515847 -0.0079860684
| 27> *
| 28>
| 29>                          ****END OF INPUT****

CARTESIAN COORDINATES (ANGSTROEM)
---------------------------------
  C      2.553121   -0.380068   -0.556456
  C      1.279290   -0.066499    0.232240
  H      1.245852   -0.694294    1.130486
  C      0.033858   -0.339847   -0.625390
  C     -1.269824   -0.483757    0.169666
  C     -1.726416    0.848822    0.758455
  C     -2.364456   -1.063198   -0.726295
  O      1.319812    1.257069    0.737315
  H      2.605224   -1.440933   -0.781320
  H      2.565686    0.177564   -1.490743
  H      3.425912   -0.103270    0.030086
  H     -0.077530    0.462269   -1.359142
  H      0.208956   -1.269086   -1.170380
  H     -1.089930   -1.183681    0.993961
  H     -2.617424    0.708410    1.366211
  H     -1.962434    1.551973   -0.037780
  H     -0.946290    1.277639    1.381272
  H     -2.076628   -2.040893   -1.105689
  H     -3.291831   -1.170741   -0.169021
  H     -2.547907   -0.405093   -1.572894
  H      1.416525    1.866552   -0.007986

 Total Charge           Charge          ....    0
 Multiplicity           Mult            ....    1
 Number of Electrons    NEL             ....   58
 Basis Dimension        Dim             ....  208

ORBITAL ENERGIES
----------------

  NO   OCC          E(Eh)            E(eV)
   0   2.0000     -18.944898      -515.5169
   1   2.0000     -10.080803      -274.3126
   2   2.0000     -10.030556      -272.9453
   3   2.0000     -10.023378      -272.7500
   4   2.0000     -10.019810      -272.6529
   5   2.0000     -10.012806      -272.4623
   6   2.0000     -10.003817      -272.2177
   7   2.0000      -0.984523       -26.7902
   8   2.0000      -0.774927       -21.0868
   9   2.0000      -0.721925       -19.6446
  10   2.0000      -0.648128       -17.6365
  11   2.0000      -0.643041       -17.4980
  12   2.0000      -0.573086       -15.5945
  13   2.0000      -0.529120       -14.3981
  14   2.0000      -0.456693       -12.4273
  15   2.0000      -0.435130       -11.8405
  16   2.0000      -0.414457       -11.2780
  17   2.0000      -0.407164       -11.0795
  18   2.0000      -0.389509       -10.5991
  19   2.0000      -0.370954       -10.0942
  20   2.0000      -0.353228        -9.6118
  21   2.0000      -0.348751        -9.4900
  22   2.0000      -0.339780        -9.2459
  23   2.0000      -0.326879        -8.8948
  24   2.0000      -0.300664        -8.1815
  25   2.0000      -0.294228        -8.0063
  26   2.0000      -0.291357        -7.9282
  27   2.0000      -0.280291        -7.6271
  28   2.0000      -0.228496        -6.2177
  29   0.0000       0.064824         1.7639
  30   0.0000       0.096875         2.6361
  31   0.0000       0.107164         2.9161
  32   0.0000       0.113052         3.0763
  33   0.0000       0.130354         3.5471

MULLIKEN ATOMIC CHARGES
-----------------------
   0 C :   -0.487527
   1 C :   -0.023784
   2 H :    0.139132
   3 C :   -0.276032
   4 C :   -0.016411
   5 C :   -0.527441
   6 C :   -0.479948
   7 O :   -0.399949
   8 H :    0.146492
   9 H :    0.139371
  10 H :    0.164751
  11 H :    0.142452
  12 H :    0.142167
  13 H :    0.140884
  14 H :    0.141340
  15 H :    0.141179
  16 H :    0.187876
  17 H :    0.142879
  18 H :    0.147846
  19 H :    0.145336
  20 H :    0.289388
Sum of atomic charges:   -0.0000000

LOEWDIN ATOMIC CHARGES
----------------------
   0 C :   -0.400948
   1 C :    0.044086
   2 H :    0.180243
   3 C :   -0.282723
   4 C :   -0.242600
   5 C :   -0.417617
   6 C :   -0.418662
   7 O :   -0.615126
   8 H :    0.157028
   9 H :    0.154006
  10 H :    0.161432
  11 H :    0.162845
  12 H :    0.164417
  13 H :    0.155546
  14 H :    0.149435
  15 H :    0.151037
  16 H :    0.173858
  17 H :    0.150623
  18 H :    0.153258
  19 H :    0.153148
  20 H :    0.266715

  Mayer bond orders larger than 0.100000
B(  0-C ,  1-C ) :   0.9373 B(  0-C ,  8-H ) :   0.9749 B(  0-C ,  9-H ) :   0.9691
B(  0-C , 10-H ) :   0.9780 B(  1-C ,  2-H ) :   0.9665 B(  1-C ,  3-C ) :   0.9161
B(  1-C ,  7-O ) :   0.9460 B(  3-C ,  4-C ) :   0.8887 B(  3-C , 11-H ) :   0.9704
B(  3-C , 12-H ) :   0.9771 B(  4-C ,  5-C ) :   0.9020 B(  4-C ,  6-C ) :   0.9021
B(  4-C , 13-H ) :   0.9659 B(  5-C , 14-H ) :   0.9736 B(  5-C , 15-H ) :   0.9900
B(  5-C , 16-H ) :   0.9637 B(  6-C , 17-H ) :   0.9801 B(  6-C , 18-H ) :   0.9775
B(  6-C , 19-H ) :   0.9848 B(  7-O , 20-H ) :   0.8968

Dispersion correction           -0.005503311
FINAL SINGLE POINT ENERGY      -312.202018252651

DIPOLE MOMENT
-------------

Method             : SCF
Type of density    : Electron Density
Multiplicity       :   1
Irrep              :   0
Energy             :  -312.2076581599469591 Eh
Relativity type    :
Basis              : AO
                                X                 Y                 Z
Electronic contribution:      3.023886088       1.922819111       2.079649919
Nuclear contribution   :     -2.927953399      -2.104956147      -2.609290210
                        -----------------------------------------
Total Dipole Moment    :      0.095932688      -0.182137036      -0.529640291
                        -----------------------------------------
Magnitude (a.u.)       :      0.568239226
Magnitude (Debye)      :      1.444349329

Rotational constants in cm-1:             0.146497             0.050671             0.040441
Rotational constants in MHz :          4391.866808          1519.083601          1212.404817

                             ****ORCA TERMINATED NORMALLY****
TOTAL RUN TIME: 0 days 0 hours 0 minutes 30 seconds 729 msec
