                         Program Version 6.0.0  -   RELEASE  -
|  1> ! r2scan-3c def2/J RI DEFGRID2 scfconv6 printgap
|  2> %output
|  3>     printlevel normal
|  4> end
|  5> %cpcm
|  6>     smd true
|  7>     smdsolvent "water"
|  8> end
|  9> * xyz 0 1
| 10> C 2.5531212814 -0.3800682509 -0.5564558758
| 11> C 1.2792900389 -0.0664987976 0.2322398088
| 12> H 1.2458516673 -0.6942935201 1.1304859544
| 13> C 0.0338577213 -0.3398467032 -0.6253899879
| 14> C -1.2698241655 -0.4837572406 0.1696657117
| 15> C -1.7264156837 0.8488219109 0.7584545739
| 16> C -2.3644561782 -1.0631975325 -0.7262947441
| 17> O 1.3198121368 1.2570693733 0.7373147655
| 18> H 2.6052236104 -1.4409329455 -0.7813196424
| 19> H 2.5656859866 0.1775635136 -1.4907430924
| 20> H 3.4259118707 -0.1032703923 0.0300855743
| 21> H -0.0775302548 0.4622690569 -1.3591415101
| 22> H 0.2089560673 -1.2690856504 -1.1703796134
| 23> H -1.0899295674 -1.1836808311 0.9939610848
| 24> H -2.6174239197 0.7084100617 1.3662109441
| 25> H -1.9624337069 1.5519726707 -0.0377801054
| 26> H -0.9462896771 1.2776393626 1.3812723159
| 27> H -2.0766284232 -2.0408931535 -1.1056889496
| 28> H -3.2918312458 -1.1707405595 -0.1690212199
| 29> H -2.54790726 -0.4050932344 -1.5728935772
| 30> H 1.4165254526 1.8665515847 -0.0079860684
| 31> *
| 32>
| 33>                          ****END OF INPUT****

CARTESIAN COORDINATES (ANGSTROEM)
---------------------------------
  C      2.553121   -0.380068   -0.556456
  C      1.279290   -0.066499    0.232240
  H      1.245852   -0.694294    1.130486
  C      0.033858   -0.339847   -0.625390
  C     -1.269824   -0.483757    0.169666
  C     -1.726416    0.848822    0.758455
  C     -2.364456   -1.063198   -0.726295
  O      1.319812    1.257069    0.737315
  H      2.605224   -1.440933   -0.781320
  H      2.565686    0.177564   -1.490743
  H      3.425912   -0.103270    0.030086
  H     -0.077530    0.462269   -1.359142
  H      0.208956   -1.269086   -1.170380
  H     -1.089930   -1.183681    0.993961
  H     -2.617424    0.708410    1.366211
  H     -1.962434    1.551973   -0.037780
  H     -0.946290    1.277639    1.381272
  H     -2.076628   -2.040893   -1.105689
  H     -3.291831   -1.170741   -0.169021
  H     -2.547907   -0.405093   -1.572894
  H      1.416525    1.866552   -0.007986

 Total Charge           Charge          ....    0
 Multiplicity           Mult            ....    1
 Number of Electrons    NEL             ....   58
 Basis Dimension        Dim             ....  208

ORBITAL ENERGIES
----------------

  NO   OCC          E(Eh)            E(eV)
   0   2.0000     -18.945226      -515.5258
   1   2.0000     -10.073453      -274.1126
   2   2.0000     -10.023508      -272.7535
   3   2.0000     -10.012345      -272.4498
   4   2.0000     -10.008504      -272.3452
   5   2.0000     -10.005307      -272.2582
   6   2.0000     -10.001783      -272.1623
   7   2.0000      -0.983753       -26.7693
   8   2.0000      -0.767535       -20.8857
   9   2.0000      -0.713724       -19.4214
  10   2.0000      -0.639808       -17.4101
  11   2.0000      -0.638271       -17.3682
  12   2.0000      -0.566286       -15.4094
  13   2.0000      -0.522206       -14.2099
  14   2.0000      -0.449507       -12.2317
  15   2.0000      -0.429330       -11.6827
  16   2.0000      -0.408478       -11.1152
  17   2.0000      -0.400808       -10.9065
  18   2.0000      -0.383796       -10.4436
  19   2.0000      -0.361982        -9.8500
  20   2.0000      -0.345595        -9.4041
  21   2.0000      -0.341359        -9.2888
  22   2.0000      -0.336591        -9.1591
  23   2.0000      -0.319381        -8.6908
  24   2.0000      -0.297828        -8.1043
  25   2.0000      -0.288811        -7.8589
  26   2.0000      -0.283860        -7.7242
  27   2.0000      -0.274618        -7.4727
  28   2.0000      -0.228306        -6.2125
  29   0.0000       0.080713         2.1963
  30   0.0000       0.105966         2.8835
  31   0.0000       0.118128         3.2144
  32   0.0000       0.123022         3.3476
  33   0.0000       0.136968         3.7271

MULLIKEN ATOMIC CHARGES
-----------------------
   0 C :   -0.533263
   1 C :    0.002205
   2 H :    0.150170
   3 C :   -0.295920
   4 C :   -0.002490
   5 C :   -0.567609
   6 C :   -0.528723
   7 O :   -0.483271
   8 H :    0.163900
   9 H :    0.161344
  10 H :    0.162717
  11 H :    0.162673
  12 H :    0.155382
  13 H :    0.151145
  14 H :    0.153747
  15 H :    0.159190
  16 H :    0.171819
  17 H :    0.156728
  18 H :    0.157205
  19 H :    0.158230
  20 H :    0.344821
Sum of atomic charges:   -0.0000000

LOEWDIN ATOMIC CHARGES
----------------------
   0 C :   -0.405568
   1 C :    0.045690
   2 H :    0.182908
   3 C :   -0.281924
   4 C :   -0.241029
   5 C :   -0.426877
   6 C :   -0.426967
   7 O :   -0.650064
   8 H :    0.162617
   9 H :    0.161156
  10 H :    0.159863
  11 H :    0.169657
  12 H :    0.169593
  13 H :    0.158050
  14 H :    0.151774
  15 H :    0.155510
  16 H :    0.166092
  17 H :    0.154492
  18 H :    0.154687
  19 H :    0.155967
  20 H :    0.284373

  Mayer bond orders larger than 0.100000
B(  0-C ,  1-C ) :   0.9219 B(  0-C ,  8-H ) :   0.9702 B(  0-C ,  9-H ) :   0.9696
B(  0-C , 10-H ) :   0.9755 B(  1-C ,  2-H ) :   0.9696 B(  1-C ,  3-C ) :   0.9160
B(  1-C ,  7-O ) :   0.9309 B(  3-C ,  4-C ) :   0.8837 B(  3-C , 11-H ) :   0.9687
B(  3-C , 12-H ) :   0.9733 B(  4-C ,  5-C ) :   0.8897 B(  4-C ,  6-C ) :   0.8933
B(  4-C , 13-H ) :   0.9674 B(  5-C , 14-H ) :   0.9731 B(  5-C , 15-H ) :   0.9860
B(  5-C , 16-H ) :   0.9693 B(  6-C , 17-H ) :   0.9769 B(  6-C , 18-H ) :   0.9758
B(  6-C , 19-H ) :   0.9835 B(  7-O , 20-H ) :   0.8700

Dispersion correction           -0.005503311
FINAL SINGLE POINT ENERGY      -312.206675046871

DIPOLE MOMENT
-------------

Method             : SCF
Type of density    : Electron Density
Multiplicity       :   1
Irrep              :   0
Energy             :  -312.2123149541664588 Eh
Relativity type    :
Basis              : AO
                                X                 Y                 Z
Electronic contribution:      3.018377429       1.827980214       1.786712380
Nuclear contribution   :     -2.927953399      -2.104956147      -2.609290210
                        -----------------------------------------
Total Dipole Moment    :      0.090424030      -0.276975932      -0.822577830
                        -----------------------------------------
Magnitude (a.u.)       :      0.872654833
Magnitude (Debye)      :      2.218112310

Rotational constants in cm-1:             0.146497             0.050671             0.040441
Rotational constants in MHz :          4391.866808          1519.083601          1212.404817

                             ****ORCA TERMINATED NORMALLY****
TOTAL RUN TIME: 0 days 0 hours 0 minutes 34 seconds 610 msec
