                         Program Version 6.0.0  -   RELEASE  -
|  1> ! r2scan-3c def2/J RI DEFGRID2 scfconv6 printgap
|  2> %output
|  3>     printlevel normal
|  4> end
|  5> * xyz 0 1
|  6> C 2.8090383557 -0.4446916044 0.1555205614
|  7> C 1.4056803665 -0.2744747196 -0.4119572957
|  8> C 0.6334209505 0.825648803 0.3121710091
|  9> C -0.7787767629 0.9972891876 -0.22379703
| 10> S -1.8296215408 -0.4820630247 0.0325252883
| 11> H 3.340361604 -1.2305713203 -0.3750719269
| 12> H 2.7649123141 -0.7108989153 1.2091033844
| 13> H 3.3743871427 0.4795469309 0.0582492911
| 14> H 0.8584248371 -1.2157331584 -0.3217106572
| 15> H 1.4681709668 -0.0297168461 -1.4750632124
| 16> H 1.1565675586 1.7774491893 0.1915347382
| 17> H 0.5935432801 0.5986067845 1.3800567817
| 18> H -1.2864684091 1.8387820792 0.2458563374
| 19> H -0.7736143378 1.1404992427 -1.3042352741
| 20> H -1.7830329074 -0.4651586728 1.3592351641
| 21> *
| 22>
| 23>                          ****END OF INPUT****

CARTESIAN COORDINATES (ANGSTROEM)
---------------------------------
  C      2.809038   -0.444692    0.155521
  C      1.405680   -0.274475   -0.411957
  C      0.633421    0.825649    0.312171
  C     -0.778777    0.997289   -0.223797
  S     -1.829622   -0.482063    0.032525
  H      3.340362   -1.230571   -0.375072
  H      2.764912   -0.710899    1.209103
  H      3.374387    0.479547    0.058249
  H      0.858425   -1.215733   -0.321711
  H      1.468171   -0.029717   -1.475063
  H      1.156568    1.777449    0.191535
  H      0.593543    0.598607    1.380057
  H     -1.286468    1.838782    0.245856
  H     -0.773614    1.140499   -1.304235
  H     -1.783033   -0.465159    1.359235

 Total Charge           Charge          ....    0
 Multiplicity           Mult            ....    1
 Number of Electrons    NEL             ....   50
 Basis Dimension        Dim             ....  153

ORBITAL ENERGIES
----------------

  NO   OCC          E(Eh)            E(eV)
   0   2.0000     -88.548874     -2409.5374
   1   2.0000     -10.065622      -273.8995
   2   2.0000     -10.035011      -273.0665
   3   2.0000     -10.024438      -272.7788
   4   2.0000     -10.017304      -272.5847
   5   2.0000      -7.844163      -213.4505
   6   2.0000      -5.791385      -157.5916
   7   2.0000      -5.787595      -157.4885
   8   2.0000      -5.781150      -157.3131
   9   2.0000      -0.784378       -21.3440
  10   2.0000      -0.727190       -19.7878
  11   2.0000      -0.658931       -17.9304
  12   2.0000      -0.588483       -16.0134
  13   2.0000      -0.546694       -14.8763
  14   2.0000      -0.441896       -12.0246
  15   2.0000      -0.426465       -11.6047
  16   2.0000      -0.405242       -11.0272
  17   2.0000      -0.381211       -10.3733
  18   2.0000      -0.371312       -10.1039
  19   2.0000      -0.334437        -9.1005
  20   2.0000      -0.318161        -8.6576
  21   2.0000      -0.309260        -8.4154
  22   2.0000      -0.301647        -8.2082
  23   2.0000      -0.286037        -7.7835
  24   2.0000      -0.208060        -5.6616
  25   0.0000       0.014491         0.3943
  26   0.0000       0.056247         1.5306
  27   0.0000       0.099590         2.7100
  28   0.0000       0.109471         2.9789
  29   0.0000       0.125160         3.4058

MULLIKEN ATOMIC CHARGES
-----------------------
   0 C :   -0.463571
   1 C :   -0.244870
   2 C :   -0.249668
   3 C :   -0.227689
   4 S :   -0.268072
   5 H :    0.148169
   6 H :    0.141184
   7 H :    0.138022
   8 H :    0.166314
   9 H :    0.133628
  10 H :    0.139170
  11 H :    0.137973
  12 H :    0.171240
  13 H :    0.146337
  14 H :    0.131833
Sum of atomic charges:    0.0000000

LOEWDIN ATOMIC CHARGES
----------------------
   0 C :   -0.423862
   1 C :   -0.324854
   2 C :   -0.320516
   3 C :   -0.361081
   4 S :   -0.100931
   5 H :    0.151355
   6 H :    0.149570
   7 H :    0.148460
   8 H :    0.162088
   9 H :    0.150909
  10 H :    0.157708
  11 H :    0.155242
  12 H :    0.161625
  13 H :    0.168938
  14 H :    0.125349

  Mayer bond orders larger than 0.100000
B(  0-C ,  1-C ) :   0.9009 B(  0-C ,  5-H ) :   0.9749 B(  0-C ,  6-H ) :   0.9842
B(  0-C ,  7-H ) :   0.9817 B(  1-C ,  2-C ) :   0.9210 B(  1-C ,  8-H ) :   0.9640
B(  1-C ,  9-H ) :   0.9671 B(  2-C ,  3-C ) :   0.8967 B(  2-C , 10-H ) :   0.9546
B(  2-C , 11-H ) :   0.9794 B(  3-C ,  4-S ) :   0.9687 B(  3-C , 12-H ) :   0.9598
B(  3-C , 13-H ) :   0.9626 B(  4-S , 14-H ) :   0.9608

Dispersion correction           -0.003642194
FINAL SINGLE POINT ENERGY      -556.555801863781

DIPOLE MOMENT
-------------

Method             : SCF
Type of density    : Electron Density
Multiplicity       :   1
Irrep              :   0
Energy             :  -556.5625174962600568 Eh
Relativity type    :
Basis              : AO
                                X                 Y                 Z
Electronic contribution:     -8.723474537      -1.607926818      -0.707727936
Nuclear contribution   :      9.164630658       2.061528851       0.907185423
                        -----------------------------------------
Total Dipole Moment    :      0.441156121       0.453602033       0.199457487
                        -----------------------------------------
Magnitude (a.u.)       :      0.663443152
Magnitude (Debye)      :      1.686338478

Rotational constants in cm-1:             0.297043             0.057711             0.052424
Rotational constants in MHz :          8905.116711          1730.129835          1571.625793

                             ****ORCA TERMINATED NORMALLY****
TOTAL RUN TIME: 0 days 0 hours 0 minutes 13 seconds 852 msec
