                         Program Version 6.0.0  -   RELEASE  -
|  1> ! r2scan-3c def2/J RI DEFGRID2 scfconv6 printgap
|  2> %output
|  3>     printlevel normal
|  4> end
|  5> %cpcm
|  6>     smd true
|  7>     smdsolvent "water"
|  8> end
|  9> * xyz 0 1
| 10> C 2.8090383557 -0.4446916044 0.1555205614
| 11> C 1.4056803665 -0.2744747196 -0.4119572957
| 12> C 0.6334209505 0.825648803 0.3121710091
| 13> C -0.7787767629 0.9972891876 -0.22379703
| 14> S -1.8296215408 -0.4820630247 0.0325252883
| 15> H 3.340361604 -1.2305713203 -0.3750719269
| 16> H 2.7649123141 -0.7108989153 1.2091033844
| 17> H 3.3743871427 0.4795469309 0.0582492911
| 18> H 0.8584248371 -1.2157331584 -0.3217106572
| 19> H 1.4681709668 -0.0297168461 -1.4750632124
| 20> H 1.1565675586 1.7774491893 0.1915347382
| 21> H 0.5935432801 0.5986067845 1.3800567817
| 22> H -1.2864684091 1.8387820792 0.2458563374
| 23> H -0.7736143378 1.1404992427 -1.3042352741
| 24> H -1.7830329074 -0.4651586728 1.3592351641
| 25> *
| 26>
| 27>                          ****END OF INPUT****

CARTESIAN COORDINATES (ANGSTROEM)
---------------------------------
  C      2.809038   -0.444692    0.155521
  C      1.405680   -0.274475   -0.411957
  C      0.633421    0.825649    0.312171
  C     -0.778777    0.997289   -0.223797
  S     -1.829622   -0.482063    0.032525
  H      3.340362   -1.230571   -0.375072
  H      2.764912   -0.710899    1.209103
  H      3.374387    0.479547    0.058249
  H      0.858425   -1.215733   -0.321711
  H      1.468171   -0.029717   -1.475063
  H      1.156568    1.777449    0.191535
  H      0.593543    0.598607    1.380057
  H     -1.286468    1.838782    0.245856
  H     -0.773614    1.140499   -1.304235
  H     -1.783033   -0.465159    1.359235

 Total Charge           Charge          ....    0
 Multiplicity           Mult            ....    1
 Number of Electrons    NEL             ....   50
 Basis Dimension        Dim             ....  153

ORBITAL ENERGIES
----------------

  NO   OCC          E(Eh)            E(eV)
   0   2.0000     -88.546468     -2409.4719
   1   2.0000     -10.054271      -273.5906
   2   2.0000     -10.021848      -272.7083
   3   2.0000     -10.015194      -272.5273
   4   2.0000     -10.007790      -272.3258
   5   2.0000      -7.841894      -213.3888
   6   2.0000      -5.788876      -157.5233
   7   2.0000      -5.785191      -157.4230
   8   2.0000      -5.779293      -157.2626
   9   2.0000      -0.774331       -21.0706
  10   2.0000      -0.719334       -19.5741
  11   2.0000      -0.650918       -17.7124
  12   2.0000      -0.579226       -15.7615
  13   2.0000      -0.536005       -14.5854
  14   2.0000      -0.430905       -11.7255
  15   2.0000      -0.416207       -11.3256
  16   2.0000      -0.395278       -10.7561
  17   2.0000      -0.371465       -10.1081
  18   2.0000      -0.362776        -9.8716
  19   2.0000      -0.323613        -8.8059
  20   2.0000      -0.310431        -8.4473
  21   2.0000      -0.300185        -8.1684
  22   2.0000      -0.290426        -7.9029
  23   2.0000      -0.279346        -7.6014
  24   2.0000      -0.207684        -5.6514
  25   0.0000       0.018684         0.5084
  26   0.0000       0.062838         1.7099
  27   0.0000       0.110833         3.0159
  28   0.0000       0.120247         3.2721
  29   0.0000       0.132680         3.6104

MULLIKEN ATOMIC CHARGES
-----------------------
   0 C :   -0.506125
   1 C :   -0.257464
   2 C :   -0.258162
   3 C :   -0.229165
   4 S :   -0.349038
   5 H :    0.156252
   6 H :    0.153357
   7 H :    0.151368
   8 H :    0.156592
   9 H :    0.148300
  10 H :    0.155307
  11 H :    0.154334
  12 H :    0.186715
  13 H :    0.168045
  14 H :    0.169685
Sum of atomic charges:   -0.0000000

LOEWDIN ATOMIC CHARGES
----------------------
   0 C :   -0.432737
   1 C :   -0.327313
   2 C :   -0.319172
   3 C :   -0.355832
   4 S :   -0.139321
   5 H :    0.152536
   6 H :    0.152279
   7 H :    0.152009
   8 H :    0.156678
   9 H :    0.154505
  10 H :    0.164167
  11 H :    0.159881
  12 H :    0.168297
  13 H :    0.175847
  14 H :    0.138175

  Mayer bond orders larger than 0.100000
B(  0-C ,  1-C ) :   0.8938 B(  0-C ,  5-H ) :   0.9728 B(  0-C ,  6-H ) :   0.9814
B(  0-C ,  7-H ) :   0.9796 B(  1-C ,  2-C ) :   0.9134 B(  1-C ,  8-H ) :   0.9683
B(  1-C ,  9-H ) :   0.9668 B(  2-C ,  3-C ) :   0.8976 B(  2-C , 10-H ) :   0.9515
B(  2-C , 11-H ) :   0.9782 B(  3-C ,  4-S ) :   0.9549 B(  3-C , 12-H ) :   0.9541
B(  3-C , 13-H ) :   0.9580 B(  4-S , 14-H ) :   0.9543

Dispersion correction           -0.003642194
FINAL SINGLE POINT ENERGY      -556.557246312546

DIPOLE MOMENT
-------------

Method             : SCF
Type of density    : Electron Density
Multiplicity       :   1
Irrep              :   0
Energy             :  -556.5639619450250848 Eh
Relativity type    :
Basis              : AO
                                X                 Y                 Z
Electronic contribution:     -8.587330198      -1.388233311      -0.630668625
Nuclear contribution   :      9.164630658       2.061528851       0.907185423
                        -----------------------------------------
Total Dipole Moment    :      0.577300460       0.673295540       0.276516798
                        -----------------------------------------
Magnitude (a.u.)       :      0.929012511
Magnitude (Debye)      :      2.361362141

Rotational constants in cm-1:             0.297043             0.057711             0.052424
Rotational constants in MHz :          8905.116711          1730.129835          1571.625793

                             ****ORCA TERMINATED NORMALLY****
TOTAL RUN TIME: 0 days 0 hours 0 minutes 16 seconds 168 msec
