                         Program Version 6.0.0  -   RELEASE  -
|  1> ! pbe def2-sv(p) def2/J RI DEFGRID1 loosescf d4 GCP(DFT/SV(P)) printgap
|  2> %output
|  3>     printlevel normal
|  4> end
|  5> * xyz 0 1
|  6> C -2.4989999063 0.1016772158 0.1618275174
|  7> C -1.1584584124 -0.3944888476 -0.3665011922
|  8> C 0.0032421815 0.4011746671 0.2348100063
|  9> C 1.3196271423 0.0062292532 -0.3378519984
| 10> O 2.3490968981 -0.1186588896 0.2819294003
| 11> H -2.540730646 0.0095958727 1.2442351631
| 12> H -2.6512295328 1.1455565713 -0.1008217388
| 13> H -3.310760195 -0.4822907937 -0.2633405555
| 14> H -1.1362332439 -0.3007390754 -1.4536336716
| 15> H -1.037142321 -1.4503681108 -0.1181361689
| 16> H -0.1318984139 1.4599216889 -0.0082554976
| 17> H 0.0309627755 0.3054835408 1.32126366
| 18> H 1.3082005818 -0.1691392556 -1.4297029807
| 19> *
| 20>
| 21>                          ****END OF INPUT****

CARTESIAN COORDINATES (ANGSTROEM)
---------------------------------
  C     -2.499000    0.101677    0.161828
  C     -1.158458   -0.394489   -0.366501
  C      0.003242    0.401175    0.234810
  C      1.319627    0.006229   -0.337852
  O      2.349097   -0.118659    0.281929
  H     -2.540731    0.009596    1.244235
  H     -2.651230    1.145557   -0.100822
  H     -3.310760   -0.482291   -0.263341
  H     -1.136233   -0.300739   -1.453634
  H     -1.037142   -1.450368   -0.118136
  H     -0.131898    1.459922   -0.008255
  H      0.030963    0.305484    1.321264
  H      1.308201   -0.169139   -1.429703

 Total Charge           Charge          ....    0
 Multiplicity           Mult            ....    1
 Number of Electrons    NEL             ....   40
 Basis Dimension        Dim             ....   86

ORBITAL ENERGIES
----------------

  NO   OCC          E(Eh)            E(eV)
   0   2.0000     -18.746554      -510.1197
   1   2.0000      -9.970438      -271.3094
   2   2.0000      -9.903439      -269.4863
   3   2.0000      -9.898483      -269.3514
   4   2.0000      -9.885782      -269.0058
   5   2.0000      -0.941412       -25.6171
   6   2.0000      -0.732393       -19.9294
   7   2.0000      -0.648040       -17.6341
   8   2.0000      -0.545568       -14.8456
   9   2.0000      -0.515741       -14.0340
  10   2.0000      -0.440190       -11.9782
  11   2.0000      -0.417765       -11.3680
  12   2.0000      -0.385062       -10.4781
  13   2.0000      -0.380295       -10.3484
  14   2.0000      -0.357672        -9.7328
  15   2.0000      -0.331282        -9.0146
  16   2.0000      -0.326287        -8.8787
  17   2.0000      -0.309352        -8.4179
  18   2.0000      -0.303156        -8.2493
  19   2.0000      -0.200771        -5.4633
  20   0.0000      -0.059431        -1.6172
  21   0.0000       0.034192         0.9304
  22   0.0000       0.057788         1.5725
  23   0.0000       0.070616         1.9216
  24   0.0000       0.081769         2.2250

MULLIKEN ATOMIC CHARGES
-----------------------
   0 C :   -0.258129
   1 C :   -0.235566
   2 C :   -0.153849
   3 C :    0.024310
   4 O :   -0.161671
   5 H :    0.105274
   6 H :    0.100999
   7 H :    0.109312
   8 H :    0.098379
   9 H :    0.104503
  10 H :    0.115788
  11 H :    0.102593
  12 H :    0.048057
Sum of atomic charges:   -0.0000000

LOEWDIN ATOMIC CHARGES
----------------------
   0 C :   -0.338502
   1 C :   -0.231482
   2 C :   -0.265747
   3 C :    0.001527
   4 O :   -0.119680
   5 H :    0.120742
   6 H :    0.118923
   7 H :    0.122482
   8 H :    0.118115
   9 H :    0.121576
  10 H :    0.143338
  11 H :    0.131616
  12 H :    0.077092

  Mayer bond orders larger than 0.100000
B(  0-C ,  1-C ) :   1.1564 B(  0-C ,  5-H ) :   0.9540 B(  0-C ,  6-H ) :   0.9547
B(  0-C ,  7-H ) :   0.9523 B(  1-C ,  2-C ) :   1.0946 B(  1-C ,  8-H ) :   0.9258
B(  1-C ,  9-H ) :   0.9312 B(  2-C ,  3-C ) :   1.0005 B(  2-C , 10-H ) :   0.8895
B(  2-C , 11-H ) :   0.9080 B(  3-C ,  4-O ) :   2.1853 B(  3-C , 12-H ) :   0.9043

Dispersion correction           -0.007763266
FINAL SINGLE POINT ENERGY      -231.917896589345

DIPOLE MOMENT
-------------

Method             : SCF
Type of density    : Electron Density
Multiplicity       :   1
Irrep              :   0
Energy             :  -231.9630157627035487 Eh
Relativity type    :
Basis              : AO
                                X                 Y                 Z
Electronic contribution:      7.855596239      -0.337750939       0.438787016
Nuclear contribution   :     -8.848470420       0.484228308      -0.754219198
                        -----------------------------------------
Total Dipole Moment    :     -0.992874181       0.146477370      -0.315432182
                        -----------------------------------------
Magnitude (a.u.)       :      1.052022918
Magnitude (Debye)      :      2.674029749

Rotational constants in cm-1:             0.734199             0.071243             0.068897
Rotational constants in MHz :         22010.728469          2135.797418          2065.489304

                             ****ORCA TERMINATED NORMALLY****
TOTAL RUN TIME: 0 days 0 hours 0 minutes 5 seconds 356 msec
