                         Program Version 6.0.0  -   RELEASE  -
|  1> ! pbe def2-sv(p) def2/J RI DEFGRID1 loosescf d4 GCP(DFT/SV(P)) printgap
|  2> %output
|  3>     printlevel normal
|  4> end
|  5> * xyz 0 1
|  6> C 1.8851515306 1.1033278097 0.1266905847
|  7> C 1.3794267649 -0.2380551599 -0.3962449112
|  8> H 2.0218108715 -0.5396022118 -1.2424922649
|  9> C -0.0618405313 -0.1737472677 -0.9347623133
| 10> C -1.1168972595 0.4497279035 -0.0124696882
| 11> C -2.4260119985 0.6224958401 -0.7834764941
| 12> C -1.35515198 -0.3957295946 1.2362515285
| 13> O 1.5461522172 -1.1847144255 0.6480383064
| 14> H 1.3701096943 1.3618430733 1.0469108133
| 15> H 2.9473269938 1.0291222767 0.3437093738
| 16> H 1.7235431372 1.8795674397 -0.6144620769
| 17> H -0.027781275 0.4044786765 -1.8606911743
| 18> H -0.3794113467 -1.1878670108 -1.1933742057
| 19> H -0.7724137814 1.4410873691 0.2954674015
| 20> H -3.1838461993 1.0703106074 -0.1452132007
| 21> H -2.7948388826 -0.3414604011 -1.1279290682
| 22> H -2.283056171 1.2651226671 -1.6491456963
| 23> H -1.7539575673 -1.3704383083 0.961888656
| 24> H -0.4286539121 -0.5425497835 1.7841914809
| 25> H -2.0718431765 0.0936129123 1.8921700555
| 26> H 1.2923254942 -2.0595688165 0.3266259918
| 27> *
| 28>
| 29>                          ****END OF INPUT****

CARTESIAN COORDINATES (ANGSTROEM)
---------------------------------
  C      1.885152    1.103328    0.126691
  C      1.379427   -0.238055   -0.396245
  H      2.021811   -0.539602   -1.242492
  C     -0.061841   -0.173747   -0.934762
  C     -1.116897    0.449728   -0.012470
  C     -2.426012    0.622496   -0.783476
  C     -1.355152   -0.395730    1.236252
  O      1.546152   -1.184714    0.648038
  H      1.370110    1.361843    1.046911
  H      2.947327    1.029122    0.343709
  H      1.723543    1.879567   -0.614462
  H     -0.027781    0.404479   -1.860691
  H     -0.379411   -1.187867   -1.193374
  H     -0.772414    1.441087    0.295467
  H     -3.183846    1.070311   -0.145213
  H     -2.794839   -0.341460   -1.127929
  H     -2.283056    1.265123   -1.649146
  H     -1.753958   -1.370438    0.961889
  H     -0.428654   -0.542550    1.784191
  H     -2.071843    0.093613    1.892170
  H      1.292325   -2.059569    0.326626

 Total Charge           Charge          ....    0
 Multiplicity           Mult            ....    1
 Number of Electrons    NEL             ....   58
 Basis Dimension        Dim             ....  126

ORBITAL ENERGIES
----------------

  NO   OCC          E(Eh)            E(eV)
   0   2.0000     -18.739432      -509.9259
   1   2.0000      -9.936865      -270.3959
   2   2.0000      -9.890855      -269.1439
   3   2.0000      -9.881607      -268.8922
   4   2.0000      -9.871541      -268.6183
   5   2.0000      -9.869443      -268.5612
   6   2.0000      -9.861617      -268.3483
   7   2.0000      -0.917226       -24.9590
   8   2.0000      -0.728740       -19.8300
   9   2.0000      -0.675778       -18.3888
  10   2.0000      -0.610205       -16.6045
  11   2.0000      -0.603602       -16.4248
  12   2.0000      -0.530848       -14.4451
  13   2.0000      -0.495683       -13.4882
  14   2.0000      -0.453737       -12.3468
  15   2.0000      -0.419238       -11.4080
  16   2.0000      -0.399921       -10.8824
  17   2.0000      -0.381925       -10.3927
  18   2.0000      -0.367902       -10.0111
  19   2.0000      -0.345839        -9.4108
  20   2.0000      -0.337856        -9.1935
  21   2.0000      -0.334944        -9.1143
  22   2.0000      -0.316880        -8.6228
  23   2.0000      -0.312425        -8.5015
  24   2.0000      -0.290544        -7.9061
  25   2.0000      -0.286384        -7.7929
  26   2.0000      -0.279571        -7.6075
  27   2.0000      -0.262725        -7.1491
  28   2.0000      -0.207395        -5.6435
  29   0.0000       0.021115         0.5746
  30   0.0000       0.047745         1.2992
  31   0.0000       0.063009         1.7146
  32   0.0000       0.077365         2.1052
  33   0.0000       0.084343         2.2951

MULLIKEN ATOMIC CHARGES
-----------------------
   0 C :   -0.259263
   1 C :    0.040936
   2 H :    0.056871
   3 C :   -0.144052
   4 C :   -0.192713
   5 C :   -0.228795
   6 C :   -0.258414
   7 O :   -0.420677
   8 H :    0.118166
   9 H :    0.107389
  10 H :    0.099369
  11 H :    0.075911
  12 H :    0.061319
  13 H :    0.077137
  14 H :    0.097073
  15 H :    0.089409
  16 H :    0.093149
  17 H :    0.078605
  18 H :    0.123023
  19 H :    0.090789
  20 H :    0.294767
Sum of atomic charges:   -0.0000000

LOEWDIN ATOMIC CHARGES
----------------------
   0 C :   -0.340917
   1 C :   -0.055444
   2 H :    0.095208
   3 C :   -0.231146
   4 C :   -0.158384
   5 C :   -0.328077
   6 C :   -0.340615
   7 O :   -0.327596
   8 H :    0.125232
   9 H :    0.124874
  10 H :    0.122649
  11 H :    0.117981
  12 H :    0.108349
  13 H :    0.115240
  14 H :    0.116631
  15 H :    0.114472
  16 H :    0.114306
  17 H :    0.110905
  18 H :    0.121101
  19 H :    0.113931
  20 H :    0.281299

  Mayer bond orders larger than 0.100000
B(  0-C ,  1-C ) :   1.1220 B(  0-C ,  8-H ) :   0.9364 B(  0-C ,  9-H ) :   0.9425
B(  0-C , 10-H ) :   0.9482 B(  1-C ,  2-H ) :   0.9078 B(  1-C ,  3-C ) :   1.0640
B(  1-C ,  7-O ) :   1.0412 B(  3-C ,  4-C ) :   1.0854 B(  3-C , 11-H ) :   0.9056
B(  3-C , 12-H ) :   0.9100 B(  4-C ,  5-C ) :   1.1140 B(  4-C ,  6-C ) :   1.1130
B(  4-C , 13-H ) :   0.8953 B(  5-C , 14-H ) :   0.9514 B(  5-C , 15-H ) :   0.9495
B(  5-C , 16-H ) :   0.9492 B(  6-C , 17-H ) :   0.9495 B(  6-C , 18-H ) :   0.9301
B(  6-C , 19-H ) :   0.9477 B(  7-O , 20-H ) :   0.8487

Dispersion correction           -0.016810542
FINAL SINGLE POINT ENERGY      -311.517539210835

DIPOLE MOMENT
-------------

Method             : SCF
Type of density    : Electron Density
Multiplicity       :   1
Irrep              :   0
Energy             :  -311.5973896840989710 Eh
Relativity type    :
Basis              : AO
                                X                 Y                 Z
Electronic contribution:      3.955709338      -2.479170927       0.622514961
Nuclear contribution   :     -4.049327392       2.331259051      -1.099614570
                        -----------------------------------------
Total Dipole Moment    :     -0.093618054      -0.147911876      -0.477099610
                        -----------------------------------------
Magnitude (a.u.)       :      0.508199076
Magnitude (Debye)      :      1.291739395

Rotational constants in cm-1:             0.132681             0.054043             0.048098
Rotational constants in MHz :          3977.677195          1620.176852          1441.939269

                             ****ORCA TERMINATED NORMALLY****
TOTAL RUN TIME: 0 days 0 hours 0 minutes 9 seconds 475 msec
