                         Program Version 6.0.0  -   RELEASE  -
|  1> ! pbe def2-sv(p) def2/J RI DEFGRID1 loosescf d4 GCP(DFT/SV(P)) printgap
|  2> %output
|  3>     printlevel normal
|  4> end
|  5> * xyz 0 1
|  6> C -1.9188131627 1.2315951172 0.2242731161
|  7> C -1.0842413968 -0.0465696038 0.1528485869
|  8> C -1.9858718001 -1.2419011028 -0.1531230896
|  9> C 0.0376496523 0.0815971365 -0.8966956386
| 10> C 1.469679184 0.0542846626 -0.341259435
| 11> C 1.7339854798 1.211847822 0.61948191
| 12> C 1.7982637184 -1.2846025005 0.3168206531
| 13> H -2.6853104205 1.1450695359 0.9917229762
| 14> H -1.2912905544 2.087040494 0.4621857316
| 15> H -2.4099217829 1.4170960701 -0.7290674886
| 16> H -0.6406490834 -0.2103599579 1.1388799859
| 17> H -1.4088823963 -2.163635601 -0.1633744997
| 18> H -2.7658234424 -1.3347112339 0.5999201731
| 19> H -2.4614975697 -1.1200016557 -1.1242946151
| 20> H -0.0929793544 1.0151909797 -1.4479621709
| 21> H -0.0537514239 -0.7306798682 -1.6208413199
| 22> H 2.1416359671 0.1750698232 -1.2002334497
| 23> H 2.7765257842 1.2123355554 0.9300414473
| 24> H 1.5201144471 2.1629498822 0.1370461791
| 25> H 1.1159018809 1.1305435053 1.5099713485
| 26> H 1.6347119229 -2.1017892655 -0.3821232485
| 27> H 2.8396194469 -1.3048502786 0.6302059359
| 28> H 1.1779878195 -1.4537665869 1.1933133896
| 29> *
| 30>
| 31>                          ****END OF INPUT****

CARTESIAN COORDINATES (ANGSTROEM)
---------------------------------
  C     -1.918813    1.231595    0.224273
  C     -1.084241   -0.046570    0.152849
  C     -1.985872   -1.241901   -0.153123
  C      0.037650    0.081597   -0.896696
  C      1.469679    0.054285   -0.341259
  C      1.733985    1.211848    0.619482
  C      1.798264   -1.284603    0.316821
  H     -2.685310    1.145070    0.991723
  H     -1.291291    2.087040    0.462186
  H     -2.409922    1.417096   -0.729067
  H     -0.640649   -0.210360    1.138880
  H     -1.408882   -2.163636   -0.163374
  H     -2.765823   -1.334711    0.599920
  H     -2.461498   -1.120002   -1.124295
  H     -0.092979    1.015191   -1.447962
  H     -0.053751   -0.730680   -1.620841
  H      2.141636    0.175070   -1.200233
  H      2.776526    1.212336    0.930041
  H      1.520114    2.162950    0.137046
  H      1.115902    1.130544    1.509971
  H      1.634712   -2.101789   -0.382123
  H      2.839619   -1.304850    0.630206
  H      1.177988   -1.453767    1.193313

 Total Charge           Charge          ....    0
 Multiplicity           Mult            ....    1
 Number of Electrons    NEL             ....   58
 Basis Dimension        Dim             ....  130

ORBITAL ENERGIES
----------------

  NO   OCC          E(Eh)            E(eV)
   0   2.0000      -9.890560      -269.1358
   1   2.0000      -9.888494      -269.0796
   2   2.0000      -9.874004      -268.6853
   3   2.0000      -9.868886      -268.5460
   4   2.0000      -9.868779      -268.5431
   5   2.0000      -9.867985      -268.5215
   6   2.0000      -9.867961      -268.5209
   7   2.0000      -0.738472       -20.0948
   8   2.0000      -0.695699       -18.9309
   9   2.0000      -0.610903       -16.6235
  10   2.0000      -0.602955       -16.4073
  11   2.0000      -0.601507       -16.3678
  12   2.0000      -0.515334       -14.0230
  13   2.0000      -0.477134       -12.9835
  14   2.0000      -0.419068       -11.4034
  15   2.0000      -0.397964       -10.8292
  16   2.0000      -0.396095       -10.7783
  17   2.0000      -0.377115       -10.2618
  18   2.0000      -0.368116       -10.0169
  19   2.0000      -0.353110        -9.6086
  20   2.0000      -0.337033        -9.1711
  21   2.0000      -0.332933        -9.0596
  22   2.0000      -0.312103        -8.4928
  23   2.0000      -0.310041        -8.4366
  24   2.0000      -0.296819        -8.0768
  25   2.0000      -0.288409        -7.8480
  26   2.0000      -0.271184        -7.3793
  27   2.0000      -0.266227        -7.2444
  28   2.0000      -0.259788        -7.0692
  29   0.0000       0.030136         0.8200
  30   0.0000       0.054726         1.4892
  31   0.0000       0.063805         1.7362
  32   0.0000       0.070458         1.9173
  33   0.0000       0.091174         2.4810

MULLIKEN ATOMIC CHARGES
-----------------------
   0 C :   -0.254501
   1 C :   -0.195760
   2 C :   -0.252680
   3 C :   -0.084467
   4 C :   -0.188118
   5 C :   -0.248671
   6 C :   -0.247280
   7 H :    0.093551
   8 H :    0.100357
   9 H :    0.095674
  10 H :    0.087973
  11 H :    0.099504
  12 H :    0.093500
  13 H :    0.095682
  14 H :    0.073645
  15 H :    0.073359
  16 H :    0.067600
  17 H :    0.097340
  18 H :    0.098441
  19 H :    0.100997
  20 H :    0.097086
  21 H :    0.097369
  22 H :    0.099397
Sum of atomic charges:   -0.0000000

LOEWDIN ATOMIC CHARGES
----------------------
   0 C :   -0.329006
   1 C :   -0.159969
   2 C :   -0.328633
   3 C :   -0.207551
   4 C :   -0.154808
   5 C :   -0.331873
   6 C :   -0.331708
   7 H :    0.114768
   8 H :    0.115356
   9 H :    0.115352
  10 H :    0.111205
  11 H :    0.115282
  12 H :    0.114582
  13 H :    0.115406
  14 H :    0.114069
  15 H :    0.113729
  16 H :    0.114144
  17 H :    0.117504
  18 H :    0.116346
  19 H :    0.116223
  20 H :    0.116260
  21 H :    0.117465
  22 H :    0.115858

  Mayer bond orders larger than 0.100000
B(  0-C ,  1-C ) :   1.1195 B(  0-C ,  7-H ) :   0.9505 B(  0-C ,  8-H ) :   0.9485
B(  0-C ,  9-H ) :   0.9477 B(  1-C ,  2-C ) :   1.1190 B(  1-C ,  3-C ) :   1.0269
B(  1-C , 10-H ) :   0.9067 B(  2-C , 11-H ) :   0.9494 B(  2-C , 12-H ) :   0.9509
B(  2-C , 13-H ) :   0.9484 B(  3-C ,  4-C ) :   1.0966 B(  3-C , 14-H ) :   0.9182
B(  3-C , 15-H ) :   0.9207 B(  4-C ,  5-C ) :   1.1117 B(  4-C ,  6-C ) :   1.1121
B(  4-C , 16-H ) :   0.8994 B(  5-C , 17-H ) :   0.9496 B(  5-C , 18-H ) :   0.9488
B(  5-C , 19-H ) :   0.9418 B(  6-C , 20-H ) :   0.9499 B(  6-C , 21-H ) :   0.9500
B(  6-C , 22-H ) :   0.9425

Dispersion correction           -0.018952479
FINAL SINGLE POINT ENERGY      -275.658906051745

DIPOLE MOMENT
-------------

Method             : SCF
Type of density    : Electron Density
Multiplicity       :   1
Irrep              :   0
Energy             :  -275.7362273673434743 Eh
Relativity type    :
Basis              : AO
                                X                 Y                 Z
Electronic contribution:      0.630980353       0.070281660      -0.868956892
Nuclear contribution   :     -0.566282460      -0.069891715       0.868165563
                        -----------------------------------------
Total Dipole Moment    :      0.064697893       0.000389944      -0.000791329
                        -----------------------------------------
Magnitude (a.u.)       :      0.064703907
Magnitude (Debye)      :      0.164464261

Rotational constants in cm-1:             0.119872             0.056494             0.044883
Rotational constants in MHz :          3593.680788          1693.657660          1345.573362

                             ****ORCA TERMINATED NORMALLY****
TOTAL RUN TIME: 0 days 0 hours 0 minutes 10 seconds 848 msec
