                         Program Version 6.0.0  -   RELEASE  -
|  1> ! r2scan-3c def2/J RI DEFGRID2 scfconv6 printgap
|  2> %output
|  3>     printlevel normal
|  4> end
|  5> * xyz 0 1
|  6> C -2.165290762 1.0365807321 -0.6363649975
|  7> C -2.0866571655 -0.2810389358 0.1252149645
|  8> C -0.8233692257 -0.3590919577 0.9883172406
|  9> C 0.4131873999 -0.4112145003 0.1287895996
| 10> O 0.5935616001 -1.1933411851 -0.7813679264
| 11> O 1.2933900554 0.5143902854 0.4916160534
| 12> C 2.539592202 0.6066542804 -0.2060606894
| 13> H -3.0811290222 1.0829803218 -1.2193859158
| 14> H -2.1493288621 1.877962848 0.0522708327
| 15> H -1.3215425516 1.1322603167 -1.3172714113
| 16> H -2.0781275891 -1.1132386423 -0.5811401076
| 17> H -2.9597956134 -0.3851655292 0.7696431812
| 18> H -0.8456017567 -1.2753066023 1.5810196846
| 19> H -0.7486476749 0.4992518824 1.6548448466
| 20> H 2.6514068277 1.6372454532 -0.5359552044
| 21> H 2.5377216148 -0.0741103392 -1.0581311345
| 22> H 3.3355587778 0.3423199288 0.488120354
| 23> *
| 24>
| 25>                          ****END OF INPUT****

CARTESIAN COORDINATES (ANGSTROEM)
---------------------------------
  C     -2.165291    1.036581   -0.636365
  C     -2.086657   -0.281039    0.125215
  C     -0.823369   -0.359092    0.988317
  C      0.413187   -0.411215    0.128790
  O      0.593562   -1.193341   -0.781368
  O      1.293390    0.514390    0.491616
  C      2.539592    0.606654   -0.206061
  H     -3.081129    1.082980   -1.219386
  H     -2.149329    1.877963    0.052271
  H     -1.321543    1.132260   -1.317271
  H     -2.078128   -1.113239   -0.581140
  H     -2.959796   -0.385166    0.769643
  H     -0.845602   -1.275307    1.581020
  H     -0.748648    0.499252    1.654845
  H      2.651407    1.637245   -0.535955
  H      2.537722   -0.074110   -1.058131
  H      3.335559    0.342320    0.488120

 Total Charge           Charge          ....    0
 Multiplicity           Mult            ....    1
 Number of Electrons    NEL             ....   56
 Basis Dimension        Dim             ....  193

ORBITAL ENERGIES
----------------

  NO   OCC          E(Eh)            E(eV)
   0   2.0000     -19.000306      -517.0246
   1   2.0000     -18.929070      -515.0862
   2   2.0000     -10.153588      -276.2932
   3   2.0000     -10.085158      -274.4311
   4   2.0000     -10.041593      -273.2456
   5   2.0000     -10.034206      -273.0446
   6   2.0000     -10.019453      -272.6432
   7   2.0000      -1.073041       -29.1989
   8   2.0000      -0.977141       -26.5894
   9   2.0000      -0.771731       -20.9999
  10   2.0000      -0.711971       -19.3737
  11   2.0000      -0.660567       -17.9749
  12   2.0000      -0.574097       -15.6220
  13   2.0000      -0.526652       -14.3309
  14   2.0000      -0.472943       -12.8694
  15   2.0000      -0.458406       -12.4739
  16   2.0000      -0.444092       -12.0844
  17   2.0000      -0.420916       -11.4537
  18   2.0000      -0.413217       -11.2442
  19   2.0000      -0.375187       -10.2094
  20   2.0000      -0.371236       -10.1018
  21   2.0000      -0.361212        -9.8291
  22   2.0000      -0.324799        -8.8382
  23   2.0000      -0.311726        -8.4825
  24   2.0000      -0.309623        -8.4253
  25   2.0000      -0.308414        -8.3924
  26   2.0000      -0.272766        -7.4223
  27   2.0000      -0.239218        -6.5095
  28   0.0000      -0.015819        -0.4304
  29   0.0000       0.067107         1.8261
  30   0.0000       0.090081         2.4512
  31   0.0000       0.113621         3.0918
  32   0.0000       0.125941         3.4270

MULLIKEN ATOMIC CHARGES
-----------------------
   0 C :   -0.492446
   1 C :   -0.216942
   2 C :   -0.295627
   3 C :    0.361769
   4 O :   -0.432831
   5 O :   -0.188392
   6 C :   -0.307186
   7 H :    0.148622
   8 H :    0.145935
   9 H :    0.155967
  10 H :    0.161392
  11 H :    0.143921
  12 H :    0.166199
  13 H :    0.163048
  14 H :    0.148385
  15 H :    0.189694
  16 H :    0.148491
Sum of atomic charges:    0.0000000

LOEWDIN ATOMIC CHARGES
----------------------
   0 C :   -0.416512
   1 C :   -0.293568
   2 C :   -0.231323
   3 C :    0.354329
   4 O :   -0.443581
   5 O :   -0.602197
   6 C :   -0.047126
   7 H :    0.152944
   8 H :    0.150404
   9 H :    0.155887
  10 H :    0.167769
  11 H :    0.152928
  12 H :    0.182047
  13 H :    0.177541
  14 H :    0.174008
  15 H :    0.193235
  16 H :    0.173215

  Mayer bond orders larger than 0.100000
B(  0-C ,  1-C ) :   0.9060 B(  0-C ,  7-H ) :   0.9685 B(  0-C ,  8-H ) :   0.9821
B(  0-C ,  9-H ) :   0.9731 B(  1-C ,  2-C ) :   0.8902 B(  1-C , 10-H ) :   0.9663
B(  1-C , 11-H ) :   0.9653 B(  2-C ,  3-C ) :   0.9558 B(  2-C , 12-H ) :   0.9350
B(  2-C , 13-H ) :   0.9973 B(  3-C ,  4-O ) :   1.8399 B(  3-C ,  5-O ) :   1.0516
B(  5-O ,  6-C ) :   0.8422 B(  6-C , 14-H ) :   0.9655 B(  6-C , 15-H ) :   0.9674
B(  6-C , 16-H ) :   0.9629

Dispersion correction           -0.004112609
FINAL SINGLE POINT ENERGY      -346.930688646103

DIPOLE MOMENT
-------------

Method             : SCF
Type of density    : Electron Density
Multiplicity       :   1
Irrep              :   0
Energy             :  -346.9373992852272863 Eh
Relativity type    :
Basis              : AO
                                X                 Y                 Z
Electronic contribution:      4.430928737      -2.912156114       0.607589910
Nuclear contribution   :     -4.343400559       3.483855720      -0.160017472
                        -----------------------------------------
Total Dipole Moment    :      0.087528179       0.571699606       0.447572438
                        -----------------------------------------
Magnitude (a.u.)       :      0.731315738
Magnitude (Debye)      :      1.858856881

Rotational constants in cm-1:             0.163237             0.051683             0.048872
Rotational constants in MHz :          4893.728593          1549.419941          1465.145205

                             ****ORCA TERMINATED NORMALLY****
TOTAL RUN TIME: 0 days 0 hours 0 minutes 23 seconds 21 msec
