                         Program Version 6.0.0  -   RELEASE  -
|  1> ! r2scan-3c def2/J RI DEFGRID2 scfconv6 printgap
|  2> %output
|  3>     printlevel normal
|  4> end
|  5> %cpcm
|  6>     smd true
|  7>     smdsolvent "water"
|  8> end
|  9> * xyz 0 1
| 10> C -2.165290762 1.0365807321 -0.6363649975
| 11> C -2.0866571655 -0.2810389358 0.1252149645
| 12> C -0.8233692257 -0.3590919577 0.9883172406
| 13> C 0.4131873999 -0.4112145003 0.1287895996
| 14> O 0.5935616001 -1.1933411851 -0.7813679264
| 15> O 1.2933900554 0.5143902854 0.4916160534
| 16> C 2.539592202 0.6066542804 -0.2060606894
| 17> H -3.0811290222 1.0829803218 -1.2193859158
| 18> H -2.1493288621 1.877962848 0.0522708327
| 19> H -1.3215425516 1.1322603167 -1.3172714113
| 20> H -2.0781275891 -1.1132386423 -0.5811401076
| 21> H -2.9597956134 -0.3851655292 0.7696431812
| 22> H -0.8456017567 -1.2753066023 1.5810196846
| 23> H -0.7486476749 0.4992518824 1.6548448466
| 24> H 2.6514068277 1.6372454532 -0.5359552044
| 25> H 2.5377216148 -0.0741103392 -1.0581311345
| 26> H 3.3355587778 0.3423199288 0.488120354
| 27> *
| 28>
| 29>                          ****END OF INPUT****

CARTESIAN COORDINATES (ANGSTROEM)
---------------------------------
  C     -2.165291    1.036581   -0.636365
  C     -2.086657   -0.281039    0.125215
  C     -0.823369   -0.359092    0.988317
  C      0.413187   -0.411215    0.128790
  O      0.593562   -1.193341   -0.781368
  O      1.293390    0.514390    0.491616
  C      2.539592    0.606654   -0.206061
  H     -3.081129    1.082980   -1.219386
  H     -2.149329    1.877963    0.052271
  H     -1.321543    1.132260   -1.317271
  H     -2.078128   -1.113239   -0.581140
  H     -2.959796   -0.385166    0.769643
  H     -0.845602   -1.275307    1.581020
  H     -0.748648    0.499252    1.654845
  H      2.651407    1.637245   -0.535955
  H      2.537722   -0.074110   -1.058131
  H      3.335559    0.342320    0.488120

 Total Charge           Charge          ....    0
 Multiplicity           Mult            ....    1
 Number of Electrons    NEL             ....   56
 Basis Dimension        Dim             ....  193

ORBITAL ENERGIES
----------------

  NO   OCC          E(Eh)            E(eV)
   0   2.0000     -19.005158      -517.1566
   1   2.0000     -18.943354      -515.4749
   2   2.0000     -10.162936      -276.5476
   3   2.0000     -10.074754      -274.1480
   4   2.0000     -10.035351      -273.0758
   5   2.0000     -10.027820      -272.8709
   6   2.0000     -10.011415      -272.4244
   7   2.0000      -1.079174       -29.3658
   8   2.0000      -0.989532       -26.9265
   9   2.0000      -0.766938       -20.8695
  10   2.0000      -0.707147       -19.2424
  11   2.0000      -0.653805       -17.7909
  12   2.0000      -0.567842       -15.4518
  13   2.0000      -0.524980       -14.2854
  14   2.0000      -0.473458       -12.8835
  15   2.0000      -0.458962       -12.4890
  16   2.0000      -0.450579       -12.2609
  17   2.0000      -0.414645       -11.2831
  18   2.0000      -0.411941       -11.2095
  19   2.0000      -0.370824       -10.0906
  20   2.0000      -0.366026        -9.9601
  21   2.0000      -0.360750        -9.8165
  22   2.0000      -0.323335        -8.7984
  23   2.0000      -0.305777        -8.3206
  24   2.0000      -0.305141        -8.3033
  25   2.0000      -0.303180        -8.2500
  26   2.0000      -0.279431        -7.6037
  27   2.0000      -0.254192        -6.9169
  28   0.0000      -0.022618        -0.6155
  29   0.0000       0.071671         1.9503
  30   0.0000       0.097723         2.6592
  31   0.0000       0.124768         3.3951
  32   0.0000       0.133085         3.6214

MULLIKEN ATOMIC CHARGES
-----------------------
   0 C :   -0.527918
   1 C :   -0.226137
   2 C :   -0.310983
   3 C :    0.396790
   4 O :   -0.515230
   5 O :   -0.207404
   6 C :   -0.321053
   7 H :    0.161423
   8 H :    0.161905
   9 H :    0.161533
  10 H :    0.154658
  11 H :    0.163086
  12 H :    0.195249
  13 H :    0.178207
  14 H :    0.175247
  15 H :    0.184736
  16 H :    0.175891
Sum of atomic charges:    0.0000000

LOEWDIN ATOMIC CHARGES
----------------------
   0 C :   -0.423787
   1 C :   -0.293158
   2 C :   -0.228625
   3 C :    0.363744
   4 O :   -0.503028
   5 O :   -0.604707
   6 C :   -0.041424
   7 H :    0.156202
   8 H :    0.155739
   9 H :    0.156113
  10 H :    0.163523
  11 H :    0.160418
  12 H :    0.192327
  13 H :    0.184938
  14 H :    0.185487
  15 H :    0.191929
  16 H :    0.184309

  Mayer bond orders larger than 0.100000
B(  0-C ,  1-C ) :   0.8999 B(  0-C ,  7-H ) :   0.9657 B(  0-C ,  8-H ) :   0.9784
B(  0-C ,  9-H ) :   0.9709 B(  1-C ,  2-C ) :   0.8755 B(  1-C , 10-H ) :   0.9714
B(  1-C , 11-H ) :   0.9612 B(  2-C ,  3-C ) :   0.9585 B(  2-C , 12-H ) :   0.9278
B(  2-C , 13-H ) :   0.9872 B(  3-C ,  4-O ) :   1.7746 B(  3-C ,  5-O ) :   1.0753
B(  5-O ,  6-C ) :   0.8303 B(  6-C , 14-H ) :   0.9559 B(  6-C , 15-H ) :   0.9637
B(  6-C , 16-H ) :   0.9539

Dispersion correction           -0.004112609
FINAL SINGLE POINT ENERGY      -346.934974099553

DIPOLE MOMENT
-------------

Method             : SCF
Type of density    : Electron Density
Multiplicity       :   1
Irrep              :   0
Energy             :  -346.9416847386767131 Eh
Relativity type    :
Basis              : AO
                                X                 Y                 Z
Electronic contribution:      4.451908218      -2.663824124       0.862257399
Nuclear contribution   :     -4.343400559       3.483855720      -0.160017472
                        -----------------------------------------
Total Dipole Moment    :      0.108507659       0.820031595       0.702239927
                        -----------------------------------------
Magnitude (a.u.)       :      1.085065272
Magnitude (Debye)      :      2.758016739

Rotational constants in cm-1:             0.163237             0.051683             0.048872
Rotational constants in MHz :          4893.728593          1549.419941          1465.145205

                             ****ORCA TERMINATED NORMALLY****
TOTAL RUN TIME: 0 days 0 hours 0 minutes 30 seconds 563 msec
