                         Program Version 6.0.0  -   RELEASE  -
|  1> ! pbe def2-sv(p) def2/J RI DEFGRID1 loosescf d4 GCP(DFT/SV(P)) printgap
|  2> %output
|  3>     printlevel normal
|  4> end
|  5> * xyz 0 1
|  6> C -2.4390421081 -0.819332757 -0.3916589904
|  7> C -1.4422652877 0.1918011812 0.1805652518
|  8> C -1.369268933 -0.0009516982 1.6952756413
|  9> C -0.0967177524 0.1093258503 -0.6013069386
| 10> C 0.1963546339 1.4561683689 -1.2662913051
| 11> C 1.1216419553 -0.4274989579 0.1847348394
| 12> C 2.0744896937 -1.164123232 -0.760722315
| 13> C 1.9080036194 0.64507983 0.9397194038
| 14> H -2.5948860632 -0.6494186457 -1.4546948897
| 15> H -2.0695510239 -1.8336208848 -0.2539715544
| 16> H -3.4003424481 -0.7348545142 0.1107525136
| 17> H -1.8544036599 1.1925657095 0.0104069126
| 18> H -2.3518717229 0.1878091958 2.123748784
| 19> H -0.6672267911 0.686857074 2.1551548483
| 20> H -1.0858909854 -1.0178728702 1.9545236956
| 21> H -0.2597737714 -0.6096704067 -1.411922807
| 22> H -0.6115401154 1.7144136366 -1.948005291
| 23> H 1.1180573646 1.4132424912 -1.8412834872
| 24> H 0.2839421902 2.2479831415 -0.5270269855
| 25> H 0.7611470656 -1.1617046924 0.909565444
| 26> H 2.4404317739 -0.4981409637 -1.5388944106
| 27> H 2.9316939188 -1.5438436863 -0.2091452397
| 28> H 1.5749851441 -2.0054808277 -1.2360090106
| 29> H 2.4504250872 1.2835093271 0.2473090749
| 30> H 2.6329288595 0.1710735424 1.5984550103
| 31> H 1.2596338761 1.2707378775 1.5456137196
| 32> *
| 33>
| 34>                          ****END OF INPUT****

CARTESIAN COORDINATES (ANGSTROEM)
---------------------------------
  C     -2.439042   -0.819333   -0.391659
  C     -1.442265    0.191801    0.180565
  C     -1.369269   -0.000952    1.695276
  C     -0.096718    0.109326   -0.601307
  C      0.196355    1.456168   -1.266291
  C      1.121642   -0.427499    0.184735
  C      2.074490   -1.164123   -0.760722
  C      1.908004    0.645080    0.939719
  H     -2.594886   -0.649419   -1.454695
  H     -2.069551   -1.833621   -0.253972
  H     -3.400342   -0.734855    0.110753
  H     -1.854404    1.192566    0.010407
  H     -2.351872    0.187809    2.123749
  H     -0.667227    0.686857    2.155155
  H     -1.085891   -1.017873    1.954524
  H     -0.259774   -0.609670   -1.411923
  H     -0.611540    1.714414   -1.948005
  H      1.118057    1.413242   -1.841283
  H      0.283942    2.247983   -0.527027
  H      0.761147   -1.161705    0.909565
  H      2.440432   -0.498141   -1.538894
  H      2.931694   -1.543844   -0.209145
  H      1.574985   -2.005481   -1.236009
  H      2.450425    1.283509    0.247309
  H      2.632929    0.171074    1.598455
  H      1.259634    1.270738    1.545614

 Total Charge           Charge          ....    0
 Multiplicity           Mult            ....    1
 Number of Electrons    NEL             ....   66
 Basis Dimension        Dim             ....  148

ORBITAL ENERGIES
----------------

  NO   OCC          E(Eh)            E(eV)
   0   2.0000      -9.888357      -269.0759
   1   2.0000      -9.887967      -269.0653
   2   2.0000      -9.885408      -268.9956
   3   2.0000      -9.868540      -268.5366
   4   2.0000      -9.868397      -268.5327
   5   2.0000      -9.868280      -268.5296
   6   2.0000      -9.867918      -268.5197
   7   2.0000      -9.867899      -268.5192
   8   2.0000      -0.744640       -20.2627
   9   2.0000      -0.696958       -18.9652
  10   2.0000      -0.647215       -17.6116
  11   2.0000      -0.610472       -16.6118
  12   2.0000      -0.601724       -16.3738
  13   2.0000      -0.560144       -15.2423
  14   2.0000      -0.513319       -13.9681
  15   2.0000      -0.468046       -12.7362
  16   2.0000      -0.422627       -11.5003
  17   2.0000      -0.404815       -11.0156
  18   2.0000      -0.401236       -10.9182
  19   2.0000      -0.383158       -10.4263
  20   2.0000      -0.360736        -9.8161
  21   2.0000      -0.351859        -9.5746
  22   2.0000      -0.345298        -9.3960
  23   2.0000      -0.337673        -9.1885
  24   2.0000      -0.333605        -9.0779
  25   2.0000      -0.326486        -8.8841
  26   2.0000      -0.312474        -8.5028
  27   2.0000      -0.303368        -8.2551
  28   2.0000      -0.289882        -7.8881
  29   2.0000      -0.288081        -7.8391
  30   2.0000      -0.262441        -7.1414
  31   2.0000      -0.258634        -7.0378
  32   2.0000      -0.255383        -6.9493
  33   0.0000       0.028636         0.7792
  34   0.0000       0.053371         1.4523
  35   0.0000       0.060928         1.6579
  36   0.0000       0.067788         1.8446
  37   0.0000       0.086732         2.3601

MULLIKEN ATOMIC CHARGES
-----------------------
   0 C :   -0.265465
   1 C :   -0.140107
   2 C :   -0.237369
   3 C :   -0.104416
   4 C :   -0.267317
   5 C :   -0.152954
   6 C :   -0.243371
   7 C :   -0.257921
   8 H :    0.101511
   9 H :    0.096498
  10 H :    0.093579
  11 H :    0.064643
  12 H :    0.095656
  13 H :    0.100381
  14 H :    0.097637
  15 H :    0.060035
  16 H :    0.101310
  17 H :    0.098227
  18 H :    0.102125
  19 H :    0.067593
  20 H :    0.094894
  21 H :    0.093986
  22 H :    0.098003
  23 H :    0.096004
  24 H :    0.097694
  25 H :    0.109142
Sum of atomic charges:   -0.0000000

LOEWDIN ATOMIC CHARGES
----------------------
   0 C :   -0.328685
   1 C :   -0.146712
   2 C :   -0.332002
   3 C :   -0.134129
   4 C :   -0.328866
   5 C :   -0.151479
   6 C :   -0.327367
   7 C :   -0.330461
   8 H :    0.115065
   9 H :    0.115013
  10 H :    0.114124
  11 H :    0.113656
  12 H :    0.118750
  13 H :    0.115972
  14 H :    0.115933
  15 H :    0.114068
  16 H :    0.117374
  17 H :    0.113782
  18 H :    0.116464
  19 H :    0.114328
  20 H :    0.114363
  21 H :    0.115961
  22 H :    0.115168
  23 H :    0.117111
  24 H :    0.118796
  25 H :    0.113775

  Mayer bond orders larger than 0.100000
B(  0-C ,  1-C ) :   1.1094 B(  0-C ,  8-H ) :   0.9478 B(  0-C ,  9-H ) :   0.9503
B(  0-C , 10-H ) :   0.9494 B(  1-C ,  2-C ) :   1.1549 B(  1-C ,  3-C ) :   0.9920
B(  1-C , 11-H ) :   0.9029 B(  2-C , 12-H ) :   0.9421 B(  2-C , 13-H ) :   0.9345
B(  2-C , 14-H ) :   0.9367 B(  3-C ,  4-C ) :   1.1230 B(  3-C ,  5-C ) :   1.0565
B(  3-C , 15-H ) :   0.9039 B(  4-C , 16-H ) :   0.9431 B(  4-C , 17-H ) :   0.9441
B(  4-C , 18-H ) :   0.9360 B(  5-C ,  6-C ) :   1.1059 B(  5-C ,  7-C ) :   1.1143
B(  5-C , 19-H ) :   0.8902 B(  6-C , 20-H ) :   0.9462 B(  6-C , 21-H ) :   0.9486
B(  6-C , 22-H ) :   0.9468 B(  7-C , 23-H ) :   0.9370 B(  7-C , 24-H ) :   0.9476
B(  7-C , 25-H ) :   0.9399

Dispersion correction           -0.023351630
FINAL SINGLE POINT ENERGY      -314.864232506773

DIPOLE MOMENT
-------------

Method             : SCF
Type of density    : Electron Density
Multiplicity       :   1
Irrep              :   0
Energy             :  -314.9511419899529301 Eh
Relativity type    :
Basis              : AO
                                X                 Y                 Z
Electronic contribution:     -0.546803567      -0.106924069      -0.196652456
Nuclear contribution   :      0.523267812       0.106560624       0.220070511
                        -----------------------------------------
Total Dipole Moment    :     -0.023535756      -0.000363446       0.023418054
                        -----------------------------------------
Magnitude (a.u.)       :      0.033203451
Magnitude (Debye)      :      0.084396465

Rotational constants in cm-1:             0.085490             0.043588             0.041023
Rotational constants in MHz :          2562.917809          1306.736194          1229.852901

                             ****ORCA TERMINATED NORMALLY****
TOTAL RUN TIME: 0 days 0 hours 0 minutes 11 seconds 829 msec
