                         Program Version 6.0.0  -   RELEASE  -
|  1> ! pbe def2-sv(p) def2/J RI DEFGRID1 loosescf d4 GCP(DFT/SV(P)) printgap
|  2> %output
|  3>     printlevel normal
|  4> end
|  5> * xyz 0 1
|  6> C -2.8344651974 0.1457659795 0.0548437596
|  7> C -2.315583251 -1.1254783131 0.2380825989
|  8> C -0.9496454372 -1.3299986495 0.1834506567
|  9> C -0.0734991941 -0.2748930985 -0.0572638121
| 10> C -0.6059620184 0.9940944179 -0.2433680818
| 11> C -1.9747476146 1.2021679013 -0.185553715
| 12> C 1.4001427181 -0.5686979539 -0.124337067
| 13> C 2.3194447004 0.6423277563 0.0096302542
| 14> O 3.6491443107 0.1643937971 0.0987857428
| 15> H -3.9004161 0.3103201196 0.0992367458
| 16> H -2.9767756609 -1.9582806249 0.4260292861
| 17> H -0.550348723 -2.3233971128 0.328886718
| 18> H 0.0429083673 1.8338882456 -0.4356793605
| 19> H -2.3692049496 2.197017172 -0.3306922325
| 20> H 1.6644987563 -1.2706228127 0.6705262482
| 21> H 1.6258438264 -1.0660935082 -1.0722711296
| 22> H 2.2169351856 1.2985937054 -0.8642240413
| 23> H 2.0576123758 1.2072060736 0.9148309817
| 24> H 4.2556613941 0.9121597278 0.1790646274
| 25> *
| 26>
| 27>                          ****END OF INPUT****

CARTESIAN COORDINATES (ANGSTROEM)
---------------------------------
  C     -2.834465    0.145766    0.054844
  C     -2.315583   -1.125478    0.238083
  C     -0.949645   -1.329999    0.183451
  C     -0.073499   -0.274893   -0.057264
  C     -0.605962    0.994094   -0.243368
  C     -1.974748    1.202168   -0.185554
  C      1.400143   -0.568698   -0.124337
  C      2.319445    0.642328    0.009630
  O      3.649144    0.164394    0.098786
  H     -3.900416    0.310320    0.099237
  H     -2.976776   -1.958281    0.426029
  H     -0.550349   -2.323397    0.328887
  H      0.042908    1.833888   -0.435679
  H     -2.369205    2.197017   -0.330692
  H      1.664499   -1.270623    0.670526
  H      1.625844   -1.066094   -1.072271
  H      2.216935    1.298594   -0.864224
  H      2.057612    1.207206    0.914831
  H      4.255661    0.912160    0.179065

 Total Charge           Charge          ....    0
 Multiplicity           Mult            ....    1
 Number of Electrons    NEL             ....   66
 Basis Dimension        Dim             ....  146

ORBITAL ENERGIES
----------------

  NO   OCC          E(Eh)            E(eV)
   0   2.0000     -18.742097      -509.9984
   1   2.0000      -9.933633      -270.3079
   2   2.0000      -9.902438      -269.4590
   3   2.0000      -9.889492      -269.1068
   4   2.0000      -9.889334      -269.1025
   5   2.0000      -9.889182      -269.0983
   6   2.0000      -9.889128      -269.0968
   7   2.0000      -9.887583      -269.0548
   8   2.0000      -9.887076      -269.0410
   9   2.0000      -0.917758       -24.9735
  10   2.0000      -0.776883       -21.1401
  11   2.0000      -0.706773       -19.2323
  12   2.0000      -0.667689       -18.1687
  13   2.0000      -0.641835       -17.4652
  14   2.0000      -0.566213       -15.4074
  15   2.0000      -0.538169       -14.6443
  16   2.0000      -0.512028       -13.9330
  17   2.0000      -0.475314       -12.9340
  18   2.0000      -0.447281       -12.1711
  19   2.0000      -0.424650       -11.5553
  20   2.0000      -0.406783       -11.0691
  21   2.0000      -0.397725       -10.8227
  22   2.0000      -0.371582       -10.1113
  23   2.0000      -0.357769        -9.7354
  24   2.0000      -0.350368        -9.5340
  25   2.0000      -0.340496        -9.2654
  26   2.0000      -0.313973        -8.5436
  27   2.0000      -0.300665        -8.1815
  28   2.0000      -0.296466        -8.0672
  29   2.0000      -0.273025        -7.4294
  30   2.0000      -0.227893        -6.2013
  31   2.0000      -0.218406        -5.9431
  32   2.0000      -0.213563        -5.8113
  33   0.0000      -0.033341        -0.9073
  34   0.0000      -0.029838        -0.8119
  35   0.0000       0.027321         0.7434
  36   0.0000       0.044335         1.2064
  37   0.0000       0.068879         1.8743

MULLIKEN ATOMIC CHARGES
-----------------------
   0 C :   -0.050127
   1 C :   -0.044476
   2 C :   -0.113986
   3 C :    0.062845
   4 C :   -0.134060
   5 C :   -0.042654
   6 C :   -0.128623
   7 C :   -0.013330
   8 O :   -0.431181
   9 H :    0.050824
  10 H :    0.050793
  11 H :    0.039033
  12 H :    0.040158
  13 H :    0.048573
  14 H :    0.100573
  15 H :    0.109216
  16 H :    0.080336
  17 H :    0.078006
  18 H :    0.298080
Sum of atomic charges:    0.0000000

LOEWDIN ATOMIC CHARGES
----------------------
   0 C :   -0.129460
   1 C :   -0.120670
   2 C :   -0.120765
   3 C :   -0.037992
   4 C :   -0.132039
   5 C :   -0.120947
   6 C :   -0.223842
   7 C :   -0.121807
   8 O :   -0.348687
   9 H :    0.122361
  10 H :    0.122889
  11 H :    0.121721
  12 H :    0.120326
  13 H :    0.122272
  14 H :    0.132173
  15 H :    0.135687
  16 H :    0.096535
  17 H :    0.097005
  18 H :    0.285241

  Mayer bond orders larger than 0.100000
B(  0-C ,  1-C ) :   1.3696 B(  0-C ,  5-C ) :   1.3924 B(  0-C ,  9-H ) :   0.9655
B(  1-C ,  2-C ) :   1.3868 B(  1-C , 10-H ) :   0.9633 B(  2-C ,  3-C ) :   1.3886
B(  2-C , 11-H ) :   0.9650 B(  3-C ,  4-C ) :   1.4062 B(  3-C ,  6-C ) :   1.0263
B(  4-C ,  5-C ) :   1.3589 B(  4-C , 12-H ) :   0.9533 B(  5-C , 13-H ) :   0.9612
B(  6-C ,  7-C ) :   1.1520 B(  6-C , 14-H ) :   0.9031 B(  6-C , 15-H ) :   0.8897
B(  7-C ,  8-O ) :   1.0954 B(  7-C , 16-H ) :   0.9053 B(  7-C , 17-H ) :   0.9255
B(  8-O , 18-H ) :   0.8529

Dispersion correction           -0.018301435
FINAL SINGLE POINT ENERGY      -385.216322145554

DIPOLE MOMENT
-------------

Method             : SCF
Type of density    : Electron Density
Multiplicity       :   1
Irrep              :   0
Energy             :  -385.2787424901115401 Eh
Relativity type    :
Basis              : AO
                                X                 Y                 Z
Electronic contribution:     -1.907617328      -0.543190914       0.077895054
Nuclear contribution   :      1.993007433       1.072690751      -0.077616254
                        -----------------------------------------
Total Dipole Moment    :      0.085390105       0.529499836       0.000278800
                        -----------------------------------------
Magnitude (a.u.)       :      0.536340959
Magnitude (Debye)      :      1.363270377

Rotational constants in cm-1:             0.160291             0.028380             0.024440
Rotational constants in MHz :          4805.416778           850.801774           732.702174

                             ****ORCA TERMINATED NORMALLY****
TOTAL RUN TIME: 0 days 0 hours 0 minutes 8 seconds 33 msec
