                         Program Version 6.0.0  -   RELEASE  -
|  1> ! pbe def2-sv(p) def2/J RI DEFGRID1 loosescf d4 GCP(DFT/SV(P)) printgap
|  2> %output
|  3>     printlevel normal
|  4> end
|  5> * xyz 0 1
|  6> C -2.1784793178 1.0412625493 0.4259229954
|  7> C -1.8391158436 -0.3723854938 -0.0296504287
|  8> C -0.5465056373 -0.4895593963 -0.8435514837
|  9> C 0.7691632233 -0.1384783767 -0.0982212205
| 10> C 1.1379869598 1.3376776662 -0.2745212288
| 11> C 1.9070360265 -0.9993704535 -0.6662397516
| 12> O 0.6559404827 -0.3591031019 1.303566444
| 13> H -2.1624260008 1.7319520004 -0.4143062282
| 14> H -1.4693148301 1.376997307 1.177655723
| 15> H -3.1727209951 1.0603452824 0.8672640813
| 16> H -1.7774258463 -1.0163821482 0.8492036168
| 17> H -2.6523669531 -0.7476721757 -0.6561036106
| 18> H -0.478801688 -1.5226600722 -1.1940519845
| 19> H -0.6189291959 0.1505470464 -1.7237019711
| 20> H 2.0411462749 1.5510861325 0.2921036671
| 21> H 0.3462212562 1.9800388491 0.0936321805
| 22> H 1.3160434605 1.5550550346 -1.3232182835
| 23> H 2.8429806145 -0.7497486145 -0.1716549317
| 24> H 2.0143485231 -0.8206165983 -1.7321593677
| 25> H 1.7034442732 -2.0573726138 -0.5109847484
| 26> H 0.5920296738 -1.3094029308 1.4650750309
| 27> *
| 28>
| 29>                          ****END OF INPUT****

CARTESIAN COORDINATES (ANGSTROEM)
---------------------------------
  C     -2.178479    1.041263    0.425923
  C     -1.839116   -0.372385   -0.029650
  C     -0.546506   -0.489559   -0.843551
  C      0.769163   -0.138478   -0.098221
  C      1.137987    1.337678   -0.274521
  C      1.907036   -0.999370   -0.666240
  O      0.655940   -0.359103    1.303566
  H     -2.162426    1.731952   -0.414306
  H     -1.469315    1.376997    1.177656
  H     -3.172721    1.060345    0.867264
  H     -1.777426   -1.016382    0.849204
  H     -2.652367   -0.747672   -0.656104
  H     -0.478802   -1.522660   -1.194052
  H     -0.618929    0.150547   -1.723702
  H      2.041146    1.551086    0.292104
  H      0.346221    1.980039    0.093632
  H      1.316043    1.555055   -1.323218
  H      2.842981   -0.749749   -0.171655
  H      2.014349   -0.820617   -1.732159
  H      1.703444   -2.057373   -0.510985
  H      0.592030   -1.309403    1.465075

 Total Charge           Charge          ....    0
 Multiplicity           Mult            ....    1
 Number of Electrons    NEL             ....   58
 Basis Dimension        Dim             ....  126

ORBITAL ENERGIES
----------------

  NO   OCC          E(Eh)            E(eV)
   0   2.0000     -18.739804      -509.9360
   1   2.0000      -9.946040      -270.6455
   2   2.0000      -9.880009      -268.8487
   3   2.0000      -9.878428      -268.8057
   4   2.0000      -9.874339      -268.6944
   5   2.0000      -9.868172      -268.5266
   6   2.0000      -9.864873      -268.4368
   7   2.0000      -0.918698       -24.9990
   8   2.0000      -0.718151       -19.5419
   9   2.0000      -0.680328       -18.5127
  10   2.0000      -0.617284       -16.7972
  11   2.0000      -0.604689       -16.4544
  12   2.0000      -0.527089       -14.3428
  13   2.0000      -0.505097       -13.7444
  14   2.0000      -0.430695       -11.7198
  15   2.0000      -0.416129       -11.3234
  16   2.0000      -0.405641       -11.0381
  17   2.0000      -0.378678       -10.3044
  18   2.0000      -0.373677       -10.1683
  19   2.0000      -0.349027        -9.4975
  20   2.0000      -0.337807        -9.1922
  21   2.0000      -0.334953        -9.1145
  22   2.0000      -0.325527        -8.8581
  23   2.0000      -0.310325        -8.4444
  24   2.0000      -0.293281        -7.9806
  25   2.0000      -0.284285        -7.7358
  26   2.0000      -0.275570        -7.4986
  27   2.0000      -0.261253        -7.1091
  28   2.0000      -0.212614        -5.7855
  29   0.0000       0.018067         0.4916
  30   0.0000       0.059942         1.6311
  31   0.0000       0.064124         1.7449
  32   0.0000       0.075620         2.0577
  33   0.0000       0.082364         2.2412

MULLIKEN ATOMIC CHARGES
-----------------------
   0 C :   -0.293146
   1 C :   -0.149809
   2 C :   -0.141478
   3 C :   -0.038622
   4 C :   -0.218322
   5 C :   -0.233666
   6 O :   -0.416084
   7 H :    0.094065
   8 H :    0.128094
   9 H :    0.096095
  10 H :    0.066824
  11 H :    0.079735
  12 H :    0.066836
  13 H :    0.076936
  14 H :    0.099186
  15 H :    0.107865
  16 H :    0.093917
  17 H :    0.102900
  18 H :    0.097923
  19 H :    0.086661
  20 H :    0.294089
Sum of atomic charges:   -0.0000000

LOEWDIN ATOMIC CHARGES
----------------------
   0 C :   -0.346693
   1 C :   -0.231720
   2 C :   -0.232035
   3 C :   -0.013916
   4 C :   -0.327690
   5 C :   -0.337913
   6 O :   -0.314806
   7 H :    0.113414
   8 H :    0.121946
   9 H :    0.117664
  10 H :    0.108552
  11 H :    0.114394
  12 H :    0.111936
  13 H :    0.118699
  14 H :    0.121760
  15 H :    0.123280
  16 H :    0.120049
  17 H :    0.119670
  18 H :    0.122701
  19 H :    0.110451
  20 H :    0.280256

  Mayer bond orders larger than 0.100000
B(  0-C ,  1-C ) :   1.1586 B(  0-C ,  7-H ) :   0.9518 B(  0-C ,  8-H ) :   0.9385
B(  0-C ,  9-H ) :   0.9470 B(  1-C ,  2-C ) :   1.1420 B(  1-C , 10-H ) :   0.9134
B(  1-C , 11-H ) :   0.9238 B(  2-C ,  3-C ) :   1.0054 B(  2-C , 12-H ) :   0.9134
B(  2-C , 13-H ) :   0.9096 B(  3-C ,  4-C ) :   1.0872 B(  3-C ,  5-C ) :   1.0955
B(  3-C ,  6-O ) :   1.0363 B(  4-C , 14-H ) :   0.9403 B(  4-C , 15-H ) :   0.9356
B(  4-C , 16-H ) :   0.9442 B(  5-C , 17-H ) :   0.9440 B(  5-C , 18-H ) :   0.9405
B(  5-C , 19-H ) :   0.9361 B(  6-O , 20-H ) :   0.8488

Dispersion correction           -0.017200282
FINAL SINGLE POINT ENERGY      -311.517958713677

DIPOLE MOMENT
-------------

Method             : SCF
Type of density    : Electron Density
Multiplicity       :   1
Irrep              :   0
Energy             :  -311.5972920003075046 Eh
Relativity type    :
Basis              : AO
                                X                 Y                 Z
Electronic contribution:      1.405621713      -1.545061314       2.466980180
Nuclear contribution   :     -1.374780298       1.103736148      -2.777551162
                        -----------------------------------------
Total Dipole Moment    :      0.030841415      -0.441325166      -0.310570982
                        -----------------------------------------
Magnitude (a.u.)       :      0.540530693
Magnitude (Debye)      :      1.373919835

Rotational constants in cm-1:             0.129827             0.058344             0.054899
Rotational constants in MHz :          3892.125059          1749.098247          1645.828724

                             ****ORCA TERMINATED NORMALLY****
TOTAL RUN TIME: 0 days 0 hours 0 minutes 8 seconds 489 msec
