                         Program Version 6.0.0  -   RELEASE  -
|  1> ! pbe def2-sv(p) def2/J RI DEFGRID1 loosescf d4 GCP(DFT/SV(P)) printgap
|  2> %output
|  3>     printlevel normal
|  4> end
|  5> * xyz 0 1
|  6> C 2.0702416098 -1.3782249368 -0.1719317837
|  7> C 1.6693260791 0.0846879533 -0.3072294325
|  8> C 0.3283946191 0.4476035778 0.3514309041
|  9> H 0.3689404376 0.1752136086 1.4193230393
| 10> C -0.8733008812 -0.2882559942 -0.292563558
| 11> C -1.2645518584 -1.5173608304 0.5275907771
| 12> C -2.0911103466 0.6249139289 -0.4355120762
| 13> O 0.1228035605 1.8493636443 0.2500621737
| 14> H 3.0724141158 -1.5212316569 -0.5686150235
| 15> H 1.3930809471 -2.0238428839 -0.7234615488
| 16> H 2.0694093997 -1.6783684472 0.8735346708
| 17> H 2.4466508559 0.7019540486 0.1524091565
| 18> H 1.6129376009 0.3592814237 -1.363207736
| 19> H -0.5768040742 -0.6086298868 -1.2968089414
| 20> H -1.6327176868 -1.211662327 1.5046998971
| 21> H -2.0562603827 -2.0632313751 0.0201710177
| 22> H -0.422896506 -2.1874182765 0.6717184214
| 23> H -2.9102010268 0.0746659263 -0.8918692129
| 24> H -1.8552149408 1.4854091921 -1.0544573654
| 25> H -2.4095154706 0.9861308611 0.5392553788
| 26> H 0.8694167964 2.3060743959 0.6591156243
| 27> *
| 28>
| 29>                          ****END OF INPUT****

CARTESIAN COORDINATES (ANGSTROEM)
---------------------------------
  C      2.070242   -1.378225   -0.171932
  C      1.669326    0.084688   -0.307229
  C      0.328395    0.447604    0.351431
  H      0.368940    0.175214    1.419323
  C     -0.873301   -0.288256   -0.292564
  C     -1.264552   -1.517361    0.527591
  C     -2.091110    0.624914   -0.435512
  O      0.122804    1.849364    0.250062
  H      3.072414   -1.521232   -0.568615
  H      1.393081   -2.023843   -0.723462
  H      2.069409   -1.678368    0.873535
  H      2.446651    0.701954    0.152409
  H      1.612938    0.359281   -1.363208
  H     -0.576804   -0.608630   -1.296809
  H     -1.632718   -1.211662    1.504700
  H     -2.056260   -2.063231    0.020171
  H     -0.422897   -2.187418    0.671718
  H     -2.910201    0.074666   -0.891869
  H     -1.855215    1.485409   -1.054457
  H     -2.409515    0.986131    0.539255
  H      0.869417    2.306074    0.659116

 Total Charge           Charge          ....    0
 Multiplicity           Mult            ....    1
 Number of Electrons    NEL             ....   58
 Basis Dimension        Dim             ....  126

ORBITAL ENERGIES
----------------

  NO   OCC          E(Eh)            E(eV)
   0   2.0000     -18.736909      -509.8572
   1   2.0000      -9.932244      -270.2701
   2   2.0000      -9.889775      -269.1145
   3   2.0000      -9.884248      -268.9641
   4   2.0000      -9.877712      -268.7862
   5   2.0000      -9.870124      -268.5797
   6   2.0000      -9.859074      -268.2790
   7   2.0000      -0.915396       -24.9092
   8   2.0000      -0.723451       -19.6861
   9   2.0000      -0.685286       -18.6476
  10   2.0000      -0.602794       -16.4029
  11   2.0000      -0.597254       -16.2521
  12   2.0000      -0.536227       -14.5915
  13   2.0000      -0.494957       -13.4685
  14   2.0000      -0.456970       -12.4348
  15   2.0000      -0.414564       -11.2808
  16   2.0000      -0.404781       -11.0147
  17   2.0000      -0.378391       -10.2965
  18   2.0000      -0.362992        -9.8775
  19   2.0000      -0.348968        -9.4959
  20   2.0000      -0.341399        -9.2899
  21   2.0000      -0.327803        -8.9200
  22   2.0000      -0.325631        -8.8609
  23   2.0000      -0.302072        -8.2198
  24   2.0000      -0.294091        -8.0026
  25   2.0000      -0.283185        -7.7059
  26   2.0000      -0.279835        -7.6147
  27   2.0000      -0.257654        -7.0111
  28   2.0000      -0.207819        -5.6550
  29   0.0000       0.027523         0.7489
  30   0.0000       0.045755         1.2451
  31   0.0000       0.059407         1.6165
  32   0.0000       0.063494         1.7278
  33   0.0000       0.092433         2.5152

MULLIKEN ATOMIC CHARGES
-----------------------
   0 C :   -0.288497
   1 C :   -0.188019
   2 C :    0.089987
   3 H :    0.048291
   4 C :   -0.200903
   5 C :   -0.259447
   6 C :   -0.210775
   7 O :   -0.418631
   8 H :    0.104000
   9 H :    0.118736
  10 H :    0.102744
  11 H :    0.066833
  12 H :    0.090736
  13 H :    0.069845
  14 H :    0.097116
  15 H :    0.098013
  16 H :    0.101794
  17 H :    0.088126
  18 H :    0.107956
  19 H :    0.088755
  20 H :    0.293339
Sum of atomic charges:   -0.0000000

LOEWDIN ATOMIC CHARGES
----------------------
   0 C :   -0.343340
   1 C :   -0.245210
   2 C :   -0.041633
   3 H :    0.092218
   4 C :   -0.159259
   5 C :   -0.330650
   6 C :   -0.328249
   7 O :   -0.324494
   8 H :    0.121980
   9 H :    0.120190
  10 H :    0.117567
  11 H :    0.106672
  12 H :    0.117677
  13 H :    0.113823
  14 H :    0.117017
  15 H :    0.118392
  16 H :    0.114711
  17 H :    0.112494
  18 H :    0.121754
  19 H :    0.117375
  20 H :    0.280965

  Mayer bond orders larger than 0.100000
B(  0-C ,  1-C ) :   1.1402 B(  0-C ,  8-H ) :   0.9445 B(  0-C ,  9-H ) :   0.9438
B(  0-C , 10-H ) :   0.9482 B(  1-C ,  2-C ) :   1.0905 B(  1-C , 11-H ) :   0.9185
B(  1-C , 12-H ) :   0.9128 B(  2-C ,  3-H ) :   0.9106 B(  2-C ,  4-C ) :   0.9961
B(  2-C ,  7-O ) :   1.0685 B(  4-C ,  5-C ) :   1.1082 B(  4-C ,  6-C ) :   1.1417
B(  4-C , 13-H ) :   0.8970 B(  5-C , 14-H ) :   0.9462 B(  5-C , 15-H ) :   0.9495
B(  5-C , 16-H ) :   0.9414 B(  6-C , 17-H ) :   0.9491 B(  6-C , 18-H ) :   0.9392
B(  6-C , 19-H ) :   0.9483 B(  7-O , 20-H ) :   0.8490

Dispersion correction           -0.016747344
FINAL SINGLE POINT ENERGY      -311.513448092454

DIPOLE MOMENT
-------------

Method             : SCF
Type of density    : Electron Density
Multiplicity       :   1
Irrep              :   0
Energy             :  -311.5932743201313997 Eh
Relativity type    :
Basis              : AO
                                X                 Y                 Z
Electronic contribution:      0.562777895       4.713175584       0.263086690
Nuclear contribution   :     -0.027035349      -4.856310145      -0.050883081
                        -----------------------------------------
Total Dipole Moment    :      0.535742545      -0.143134560       0.212203609
                        -----------------------------------------
Magnitude (a.u.)       :      0.593749062
Magnitude (Debye)      :      1.509190179

Rotational constants in cm-1:             0.105044             0.068287             0.046700
Rotational constants in MHz :          3149.140126          2047.185179          1400.023173

                             ****ORCA TERMINATED NORMALLY****
TOTAL RUN TIME: 0 days 0 hours 0 minutes 8 seconds 715 msec
