                         Program Version 6.0.0  -   RELEASE  -
|  1> ! pbe def2-sv(p) def2/J RI DEFGRID1 loosescf d4 GCP(DFT/SV(P)) printgap
|  2> %output
|  3>     printlevel normal
|  4> end
|  5> * xyz 0 1
|  6> C 1.6000572319 -1.9781648856 -0.6251676777
|  7> O 1.3571517008 -1.1474848616 0.5045189314
|  8> C 0.6584350481 0.0186264509 0.2384844349
|  9> C 1.2872116135 1.2296403109 0.4988362203
| 10> C 0.6417227962 2.4285301781 0.2594499871
| 11> C -0.6414082161 2.4286279699 -0.2596918444
| 12> C -1.2871864645 1.229866294 -0.4988885644
| 13> C -0.6587307141 0.018706142 -0.2383328591
| 14> O -1.3577324251 -1.1471862671 -0.5042699138
| 15> C -1.5995667779 -1.9786537365 0.625094468
| 16> H 2.0766717484 -2.8730269471 -0.2322312336
| 17> H 2.2726634274 -1.4752152798 -1.3259876585
| 18> H 0.674662863 -2.242205411 -1.1411562954
| 19> H 2.2938056044 1.2035644243 0.8862381175
| 20> H 1.1471002256 3.3585797514 0.46520619
| 21> H -1.1464506533 3.3587817731 -0.4658658822
| 22> H -2.2937482416 1.203932087 -0.8863821348
| 23> H -2.076697371 -2.8731812704 0.2319698411
| 24> H -2.2714336426 -1.4761376571 1.326923167
| 25> H -0.6737253102 -2.2431849258 1.1399050627
| 26> *
| 27>
| 28>                          ****END OF INPUT****

CARTESIAN COORDINATES (ANGSTROEM)
---------------------------------
  C      1.600057   -1.978165   -0.625168
  O      1.357152   -1.147485    0.504519
  C      0.658435    0.018626    0.238484
  C      1.287212    1.229640    0.498836
  C      0.641723    2.428530    0.259450
  C     -0.641408    2.428628   -0.259692
  C     -1.287186    1.229866   -0.498889
  C     -0.658731    0.018706   -0.238333
  O     -1.357732   -1.147186   -0.504270
  C     -1.599567   -1.978654    0.625094
  H      2.076672   -2.873027   -0.232231
  H      2.272663   -1.475215   -1.325988
  H      0.674663   -2.242205   -1.141156
  H      2.293806    1.203564    0.886238
  H      1.147100    3.358580    0.465206
  H     -1.146451    3.358782   -0.465866
  H     -2.293748    1.203932   -0.886382
  H     -2.076697   -2.873181    0.231970
  H     -2.271434   -1.476138    1.326923
  H     -0.673725   -2.243185    1.139905

 Total Charge           Charge          ....    0
 Multiplicity           Mult            ....    1
 Number of Electrons    NEL             ....   74
 Basis Dimension        Dim             ....  160

ORBITAL ENERGIES
----------------

  NO   OCC          E(Eh)            E(eV)
   0   2.0000     -18.775550      -510.9087
   1   2.0000     -18.775448      -510.9059
   2   2.0000      -9.945872      -270.6409
   3   2.0000      -9.945661      -270.6352
   4   2.0000      -9.930602      -270.2254
   5   2.0000      -9.930581      -270.2249
   6   2.0000      -9.890947      -269.1464
   7   2.0000      -9.890732      -269.1405
   8   2.0000      -9.890434      -269.1324
   9   2.0000      -9.890396      -269.1314
  10   2.0000      -0.963185       -26.2096
  11   2.0000      -0.942810       -25.6552
  12   2.0000      -0.772002       -21.0072
  13   2.0000      -0.678576       -18.4650
  14   2.0000      -0.676358       -18.4046
  15   2.0000      -0.625323       -17.0159
  16   2.0000      -0.605095       -16.4655
  17   2.0000      -0.548649       -14.9295
  18   2.0000      -0.525823       -14.3084
  19   2.0000      -0.480584       -13.0773
  20   2.0000      -0.450095       -12.2477
  21   2.0000      -0.442286       -12.0352
  22   2.0000      -0.418805       -11.3963
  23   2.0000      -0.416317       -11.3286
  24   2.0000      -0.405701       -11.0397
  25   2.0000      -0.383373       -10.4321
  26   2.0000      -0.381617       -10.3843
  27   2.0000      -0.377172       -10.2634
  28   2.0000      -0.340858        -9.2752
  29   2.0000      -0.324046        -8.8177
  30   2.0000      -0.323637        -8.8066
  31   2.0000      -0.300876        -8.1873
  32   2.0000      -0.290615        -7.9080
  33   2.0000      -0.256338        -6.9753
  34   2.0000      -0.230361        -6.2684
  35   2.0000      -0.210099        -5.7171
  36   2.0000      -0.201134        -5.4731
  37   0.0000      -0.031956        -0.8696
  38   0.0000      -0.028347        -0.7714
  39   0.0000       0.039796         1.0829
  40   0.0000       0.051806         1.4097
  41   0.0000       0.076718         2.0876

MULLIKEN ATOMIC CHARGES
-----------------------
   0 C :   -0.107658
   1 O :   -0.301695
   2 C :    0.152223
   3 C :   -0.133139
   4 C :   -0.038542
   5 C :   -0.038515
   6 C :   -0.133192
   7 C :    0.152383
   8 O :   -0.301639
   9 C :   -0.107718
  10 H :    0.115140
  11 H :    0.099294
  12 H :    0.121610
  13 H :    0.040553
  14 H :    0.052117
  15 H :    0.052125
  16 H :    0.040562
  17 H :    0.115127
  18 H :    0.099300
  19 H :    0.121663
Sum of atomic charges:   -0.0000000

LOEWDIN ATOMIC CHARGES
----------------------
   0 C :   -0.203516
   1 O :   -0.124285
   2 C :    0.006872
   3 C :   -0.134960
   4 C :   -0.130438
   5 C :   -0.130413
   6 C :   -0.134973
   7 C :    0.006898
   8 O :   -0.124234
   9 C :   -0.203531
  10 H :    0.116429
  11 H :    0.106261
  12 H :    0.108699
  13 H :    0.130449
  14 H :    0.124441
  15 H :    0.124443
  16 H :    0.130449
  17 H :    0.116428
  18 H :    0.106267
  19 H :    0.108715

  Mayer bond orders larger than 0.100000
B(  0-C ,  1-O ) :   0.9647 B(  0-C , 10-H ) :   0.9642 B(  0-C , 11-H ) :   0.9471
B(  0-C , 12-H ) :   0.9324 B(  1-O ,  2-C ) :   1.0795 B(  2-C ,  3-C ) :   1.3832
B(  2-C ,  7-C ) :   1.2931 B(  3-C ,  4-C ) :   1.3304 B(  3-C ,  6-C ) :   0.1041
B(  3-C , 13-H ) :   0.9636 B(  4-C ,  5-C ) :   1.3555 B(  4-C , 14-H ) :   0.9680
B(  5-C ,  6-C ) :   1.3305 B(  5-C , 15-H ) :   0.9680 B(  6-C ,  7-C ) :   1.3832
B(  6-C , 16-H ) :   0.9636 B(  7-C ,  8-O ) :   1.0797 B(  8-O ,  9-C ) :   0.9647
B(  9-C , 17-H ) :   0.9642 B(  9-C , 18-H ) :   0.9471 B(  9-C , 19-H ) :   0.9323

Dispersion correction           -0.020706411
FINAL SINGLE POINT ENERGY      -460.288449593535

DIPOLE MOMENT
-------------

Method             : SCF
Type of density    : Electron Density
Multiplicity       :   1
Irrep              :   0
Energy             :  -460.3564531546968510 Eh
Relativity type    :
Basis              : AO
                                X                 Y                 Z
Electronic contribution:     -0.002224715       3.618786047       0.001044828
Nuclear contribution   :      0.002663913      -3.841179029      -0.001291760
                        -----------------------------------------
Total Dipole Moment    :      0.000439198      -0.222392983      -0.000246931
                        -----------------------------------------
Magnitude (a.u.)       :      0.222393553
Magnitude (Debye)      :      0.565279489

Rotational constants in cm-1:             0.067806             0.041720             0.028740
Rotational constants in MHz :          2032.769705          1250.744203           861.611745

                             ****ORCA TERMINATED NORMALLY****
TOTAL RUN TIME: 0 days 0 hours 0 minutes 11 seconds 420 msec
