                         Program Version 6.0.0  -   RELEASE  -
|  1> ! pbe def2-sv(p) def2/J RI DEFGRID1 loosescf d4 GCP(DFT/SV(P)) printgap
|  2> %output
|  3>     printlevel normal
|  4> end
|  5> * xyz 0 1
|  6> C 1.931745632 0.7515073863 0.6538020114
|  7> C 1.3494282822 -0.5290132129 0.0629441955
|  8> C 1.2470778158 -0.4306223881 -1.4575827351
|  9> C -0.0260800645 -0.8518594717 0.6841319897
| 10> C -1.0883731475 0.1118832634 0.2312992272
| 11> O -1.1755515712 1.2747427565 0.5675246714
| 12> O -1.952843395 -0.4476488074 -0.6020696241
| 13> H 2.8752312961 0.9940703704 0.1716910322
| 14> H 2.108013561 0.6367887886 1.7205254643
| 15> H 1.2449395531 1.5828149146 0.5101968601
| 16> H 2.0131096458 -1.3627578812 0.3141622971
| 17> H 2.237949101 -0.3517316025 -1.8974105116
| 18> H 0.7538191404 -1.3080323684 -1.868757583
| 19> H 0.6775383736 0.451978128 -1.7428798934
| 20> H 0.0525960903 -0.789231801 1.7698798378
| 21> H -0.3370038003 -1.8544604765 0.392384083
| 22> H -2.6478137361 0.1697010243 -0.9020450739
| 23> *
| 24>
| 25>                          ****END OF INPUT****

CARTESIAN COORDINATES (ANGSTROEM)
---------------------------------
  C      1.931746    0.751507    0.653802
  C      1.349428   -0.529013    0.062944
  C      1.247078   -0.430622   -1.457583
  C     -0.026080   -0.851859    0.684132
  C     -1.088373    0.111883    0.231299
  O     -1.175552    1.274743    0.567525
  O     -1.952843   -0.447649   -0.602070
  H      2.875231    0.994070    0.171691
  H      2.108014    0.636789    1.720525
  H      1.244940    1.582815    0.510197
  H      2.013110   -1.362758    0.314162
  H      2.237949   -0.351732   -1.897411
  H      0.753819   -1.308032   -1.868758
  H      0.677538    0.451978   -1.742880
  H      0.052596   -0.789232    1.769880
  H     -0.337004   -1.854460    0.392384
  H     -2.647814    0.169701   -0.902045

 Total Charge           Charge          ....    0
 Multiplicity           Mult            ....    1
 Number of Electrons    NEL             ....   56
 Basis Dimension        Dim             ....  118

ORBITAL ENERGIES
----------------

  NO   OCC          E(Eh)            E(eV)
   0   2.0000     -18.801635      -511.6185
   1   2.0000     -18.735543      -509.8200
   2   2.0000     -10.013333      -272.4767
   3   2.0000      -9.905204      -269.5343
   4   2.0000      -9.899370      -269.3755
   5   2.0000      -9.877969      -268.7932
   6   2.0000      -9.869743      -268.5694
   7   2.0000      -1.009346       -27.4657
   8   2.0000      -0.909881       -24.7591
   9   2.0000      -0.739688       -20.1279
  10   2.0000      -0.655657       -17.8413
  11   2.0000      -0.612714       -16.6728
  12   2.0000      -0.571544       -15.5525
  13   2.0000      -0.505206       -13.7474
  14   2.0000      -0.444730       -12.1017
  15   2.0000      -0.422634       -11.5005
  16   2.0000      -0.411847       -11.2069
  17   2.0000      -0.390450       -10.6247
  18   2.0000      -0.384437       -10.4611
  19   2.0000      -0.372438       -10.1345
  20   2.0000      -0.341715        -9.2985
  21   2.0000      -0.330015        -8.9802
  22   2.0000      -0.327053        -8.8996
  23   2.0000      -0.294833        -8.0228
  24   2.0000      -0.294037        -8.0012
  25   2.0000      -0.291814        -7.9407
  26   2.0000      -0.271413        -7.3855
  27   2.0000      -0.218013        -5.9324
  28   0.0000      -0.024848        -0.6762
  29   0.0000       0.023887         0.6500
  30   0.0000       0.042749         1.1633
  31   0.0000       0.082186         2.2364
  32   0.0000       0.083720         2.2781

MULLIKEN ATOMIC CHARGES
-----------------------
   0 C :   -0.249977
   1 C :   -0.215658
   2 C :   -0.244919
   3 C :   -0.101301
   4 C :    0.061659
   5 O :   -0.193083
   6 O :   -0.288452
   7 H :    0.096253
   8 H :    0.095263
   9 H :    0.123958
  10 H :    0.082263
  11 H :    0.104208
  12 H :    0.100259
  13 H :    0.110701
  14 H :    0.110791
  15 H :    0.096639
  16 H :    0.311397
Sum of atomic charges:   -0.0000000

LOEWDIN ATOMIC CHARGES
----------------------
   0 C :   -0.336678
   1 C :   -0.146046
   2 C :   -0.333173
   3 C :   -0.236849
   4 C :    0.027126
   5 O :   -0.174500
   6 O :   -0.203173
   7 H :    0.116671
   8 H :    0.117327
   9 H :    0.126603
  10 H :    0.118126
  11 H :    0.120800
  12 H :    0.118853
  13 H :    0.120040
  14 H :    0.139503
  15 H :    0.129766
  16 H :    0.295603

  Mayer bond orders larger than 0.100000
B(  0-C ,  1-C ) :   1.1121 B(  0-C ,  7-H ) :   0.9491 B(  0-C ,  8-H ) :   0.9493
B(  0-C ,  9-H ) :   0.9340 B(  1-C ,  2-C ) :   1.1166 B(  1-C ,  3-C ) :   1.0742
B(  1-C , 10-H ) :   0.9071 B(  2-C , 11-H ) :   0.9485 B(  2-C , 12-H ) :   0.9497
B(  2-C , 13-H ) :   0.9369 B(  3-C ,  4-C ) :   1.0040 B(  3-C , 14-H ) :   0.9029
B(  3-C , 15-H ) :   0.9002 B(  4-C ,  5-O ) :   2.0716 B(  4-C ,  6-O ) :   1.2703
B(  6-O , 16-H ) :   0.8211

Dispersion correction           -0.013598256
FINAL SINGLE POINT ENERGY      -346.245273231765

DIPOLE MOMENT
-------------

Method             : SCF
Type of density    : Electron Density
Multiplicity       :   1
Irrep              :   0
Energy             :  -346.3105095788361041 Eh
Relativity type    :
Basis              : AO
                                X                 Y                 Z
Electronic contribution:     -8.434127342       1.162504316       1.111174834
Nuclear contribution   :      8.376838837      -1.705391026      -1.438022135
                        -----------------------------------------
Total Dipole Moment    :     -0.057288505      -0.542886710      -0.326847301
                        -----------------------------------------
Magnitude (a.u.)       :      0.636268113
Magnitude (Debye)      :      1.617265016

Rotational constants in cm-1:             0.131945             0.066201             0.055704
Rotational constants in MHz :          3955.623373          1984.642375          1669.970516

                             ****ORCA TERMINATED NORMALLY****
TOTAL RUN TIME: 0 days 0 hours 0 minutes 9 seconds 557 msec
