                         Program Version 6.0.0  -   RELEASE  -
|  1> ! r2scan-3c def2/J RI DEFGRID2 scfconv6 printgap
|  2> %output
|  3>     printlevel normal
|  4> end
|  5> * xyz 0 1
|  6> C 1.0330262549 -1.2649766559 0.66772485
|  7> C 1.0807696507 0.2412050927 0.424746899
|  8> C 1.6889778095 0.5444433025 -0.9439520767
|  9> C -0.2964818407 0.8973455898 0.6086314058
| 10> C -1.3684734164 0.5321138623 -0.4183764489
| 11> O -1.8411332147 -0.7844614992 -0.1996072629
| 12> H 0.3622779374 -1.7438625603 -0.0395262793
| 13> H 0.6703398408 -1.4774359133 1.6705371063
| 14> H 2.0252282686 -1.6969489055 0.558754142
| 15> H 1.7333427574 0.6855322952 1.186695617
| 16> H 2.7312598373 0.2351897682 -0.9635586577
| 17> H 1.6418016555 1.6095038324 -1.1591802913
| 18> H 1.1656446717 0.0043068387 -1.7287342037
| 19> H -0.1705431891 1.9814021534 0.5722164331
| 20> H -0.6808821259 0.6327348818 1.5956623123
| 21> H -2.1999333289 1.2429324594 -0.308628069
| 22> H -0.9691888109 0.6284270738 -1.435298134
| 23> H -2.5592837607 -0.9718210442 -0.8175039505
| 24> *
| 25>
| 26>                          ****END OF INPUT****

CARTESIAN COORDINATES (ANGSTROEM)
---------------------------------
  C      1.033026   -1.264977    0.667725
  C      1.080770    0.241205    0.424747
  C      1.688978    0.544443   -0.943952
  C     -0.296482    0.897346    0.608631
  C     -1.368473    0.532114   -0.418376
  O     -1.841133   -0.784461   -0.199607
  H      0.362278   -1.743863   -0.039526
  H      0.670340   -1.477436    1.670537
  H      2.025228   -1.696949    0.558754
  H      1.733343    0.685532    1.186696
  H      2.731260    0.235190   -0.963559
  H      1.641802    1.609504   -1.159180
  H      1.165645    0.004307   -1.728734
  H     -0.170543    1.981402    0.572216
  H     -0.680882    0.632735    1.595662
  H     -2.199933    1.242932   -0.308628
  H     -0.969189    0.628427   -1.435298
  H     -2.559284   -0.971821   -0.817504

 Total Charge           Charge          ....    0
 Multiplicity           Mult            ....    1
 Number of Electrons    NEL             ....   50
 Basis Dimension        Dim             ....  179

ORBITAL ENERGIES
----------------

  NO   OCC          E(Eh)            E(eV)
   0   2.0000     -18.947010      -515.5743
   1   2.0000     -10.073869      -274.1239
   2   2.0000     -10.028499      -272.8893
   3   2.0000     -10.022558      -272.7277
   4   2.0000     -10.011700      -272.4322
   5   2.0000     -10.000733      -272.1338
   6   2.0000      -0.983358       -26.7585
   7   2.0000      -0.770903       -20.9773
   8   2.0000      -0.689955       -18.7746
   9   2.0000      -0.642403       -17.4807
  10   2.0000      -0.591382       -16.0923
  11   2.0000      -0.507909       -13.8209
  12   2.0000      -0.485358       -13.2073
  13   2.0000      -0.444924       -12.1070
  14   2.0000      -0.405064       -11.0223
  15   2.0000      -0.392140       -10.6707
  16   2.0000      -0.376483       -10.2446
  17   2.0000      -0.360073        -9.7981
  18   2.0000      -0.342297        -9.3144
  19   2.0000      -0.330178        -8.9846
  20   2.0000      -0.313921        -8.5422
  21   2.0000      -0.290278        -7.8989
  22   2.0000      -0.288335        -7.8460
  23   2.0000      -0.269985        -7.3467
  24   2.0000      -0.233156        -6.3445
  25   0.0000       0.057911         1.5758
  26   0.0000       0.094014         2.5583
  27   0.0000       0.117672         3.2020
  28   0.0000       0.125279         3.4090
  29   0.0000       0.133661         3.6371

MULLIKEN ATOMIC CHARGES
-----------------------
   0 C :   -0.500889
   1 C :   -0.013480
   2 C :   -0.523055
   3 C :   -0.270159
   4 C :   -0.165583
   5 O :   -0.415740
   6 H :    0.180762
   7 H :    0.142900
   8 H :    0.135549
   9 H :    0.145904
  10 H :    0.147781
  11 H :    0.147343
  12 H :    0.153060
  13 H :    0.144141
  14 H :    0.151331
  15 H :    0.119435
  16 H :    0.128840
  17 H :    0.291859
Sum of atomic charges:   -0.0000000

LOEWDIN ATOMIC CHARGES
----------------------
   0 C :   -0.415614
   1 C :   -0.245314
   2 C :   -0.420884
   3 C :   -0.283121
   4 C :    0.004338
   5 O :   -0.632804
   6 H :    0.168952
   7 H :    0.154765
   8 H :    0.147855
   9 H :    0.154257
  10 H :    0.154213
  11 H :    0.152485
  12 H :    0.151863
  13 H :    0.162604
  14 H :    0.168669
  15 H :    0.156160
  16 H :    0.156371
  17 H :    0.265205

  Mayer bond orders larger than 0.100000
B(  0-C ,  1-C ) :   0.9229 B(  0-C ,  6-H ) :   0.9762 B(  0-C ,  7-H ) :   0.9707
B(  0-C ,  8-H ) :   0.9728 B(  1-C ,  2-C ) :   0.9018 B(  1-C ,  3-C ) :   0.9053
B(  1-C ,  9-H ) :   0.9661 B(  2-C , 10-H ) :   0.9688 B(  2-C , 11-H ) :   0.9770
B(  2-C , 12-H ) :   0.9811 B(  3-C ,  4-C ) :   0.9496 B(  3-C , 13-H ) :   0.9684
B(  3-C , 14-H ) :   0.9726 B(  4-C ,  5-O ) :   0.9259 B(  4-C , 15-H ) :   0.9567
B(  4-C , 16-H ) :   0.9719 B(  5-O , 17-H ) :   0.9013

Dispersion correction           -0.004476117
FINAL SINGLE POINT ENERGY      -272.895786848428

DIPOLE MOMENT
-------------

Method             : SCF
Type of density    : Electron Density
Multiplicity       :   1
Irrep              :   0
Energy             :  -272.9012809276262033 Eh
Relativity type    :
Basis              : AO
                                X                 Y                 Z
Electronic contribution:     -3.741672408      -0.698122391       0.454574754
Nuclear contribution   :      3.490850168       1.048446436      -0.817817391
                        -----------------------------------------
Total Dipole Moment    :     -0.250822240       0.350324045      -0.363242638
                        -----------------------------------------
Magnitude (a.u.)       :      0.563545869
Magnitude (Debye)      :      1.432419762

Rotational constants in cm-1:             0.160150             0.081195             0.069826
Rotational constants in MHz :          4801.181391          2434.167338          2093.324671

                             ****ORCA TERMINATED NORMALLY****
TOTAL RUN TIME: 0 days 0 hours 0 minutes 24 seconds 18 msec
