                         Program Version 6.0.0  -   RELEASE  -
|  1> ! r2scan-3c def2/J RI DEFGRID2 scfconv6 printgap
|  2> %output
|  3>     printlevel normal
|  4> end
|  5> %cpcm
|  6>     smd true
|  7>     smdsolvent "water"
|  8> end
|  9> * xyz 0 1
| 10> C 1.0330262549 -1.2649766559 0.66772485
| 11> C 1.0807696507 0.2412050927 0.424746899
| 12> C 1.6889778095 0.5444433025 -0.9439520767
| 13> C -0.2964818407 0.8973455898 0.6086314058
| 14> C -1.3684734164 0.5321138623 -0.4183764489
| 15> O -1.8411332147 -0.7844614992 -0.1996072629
| 16> H 0.3622779374 -1.7438625603 -0.0395262793
| 17> H 0.6703398408 -1.4774359133 1.6705371063
| 18> H 2.0252282686 -1.6969489055 0.558754142
| 19> H 1.7333427574 0.6855322952 1.186695617
| 20> H 2.7312598373 0.2351897682 -0.9635586577
| 21> H 1.6418016555 1.6095038324 -1.1591802913
| 22> H 1.1656446717 0.0043068387 -1.7287342037
| 23> H -0.1705431891 1.9814021534 0.5722164331
| 24> H -0.6808821259 0.6327348818 1.5956623123
| 25> H -2.1999333289 1.2429324594 -0.308628069
| 26> H -0.9691888109 0.6284270738 -1.435298134
| 27> H -2.5592837607 -0.9718210442 -0.8175039505
| 28> *
| 29>
| 30>                          ****END OF INPUT****

CARTESIAN COORDINATES (ANGSTROEM)
---------------------------------
  C      1.033026   -1.264977    0.667725
  C      1.080770    0.241205    0.424747
  C      1.688978    0.544443   -0.943952
  C     -0.296482    0.897346    0.608631
  C     -1.368473    0.532114   -0.418376
  O     -1.841133   -0.784461   -0.199607
  H      0.362278   -1.743863   -0.039526
  H      0.670340   -1.477436    1.670537
  H      2.025228   -1.696949    0.558754
  H      1.733343    0.685532    1.186696
  H      2.731260    0.235190   -0.963559
  H      1.641802    1.609504   -1.159180
  H      1.165645    0.004307   -1.728734
  H     -0.170543    1.981402    0.572216
  H     -0.680882    0.632735    1.595662
  H     -2.199933    1.242932   -0.308628
  H     -0.969189    0.628427   -1.435298
  H     -2.559284   -0.971821   -0.817504

 Total Charge           Charge          ....    0
 Multiplicity           Mult            ....    1
 Number of Electrons    NEL             ....   50
 Basis Dimension        Dim             ....  179

ORBITAL ENERGIES
----------------

  NO   OCC          E(Eh)            E(eV)
   0   2.0000     -18.947209      -515.5798
   1   2.0000     -10.066342      -273.9191
   2   2.0000     -10.024674      -272.7853
   3   2.0000     -10.016316      -272.5578
   4   2.0000     -10.005548      -272.2648
   5   2.0000     -10.002456      -272.1807
   6   2.0000      -0.982618       -26.7384
   7   2.0000      -0.766981       -20.8706
   8   2.0000      -0.685207       -18.6454
   9   2.0000      -0.640623       -17.4322
  10   2.0000      -0.586676       -15.9643
  11   2.0000      -0.504372       -13.7247
  12   2.0000      -0.480468       -13.0742
  13   2.0000      -0.440481       -11.9861
  14   2.0000      -0.401579       -10.9275
  15   2.0000      -0.388929       -10.5833
  16   2.0000      -0.371984       -10.1222
  17   2.0000      -0.358760        -9.7623
  18   2.0000      -0.341765        -9.2999
  19   2.0000      -0.326985        -8.8977
  20   2.0000      -0.312817        -8.5122
  21   2.0000      -0.287470        -7.8225
  22   2.0000      -0.285151        -7.7594
  23   2.0000      -0.267009        -7.2657
  24   2.0000      -0.233890        -6.3645
  25   0.0000       0.073354         1.9961
  26   0.0000       0.102374         2.7857
  27   0.0000       0.126351         3.4382
  28   0.0000       0.133069         3.6210
  29   0.0000       0.138294         3.7632

MULLIKEN ATOMIC CHARGES
-----------------------
   0 C :   -0.554466
   1 C :    0.013177
   2 C :   -0.559357
   3 C :   -0.291506
   4 C :   -0.175290
   5 O :   -0.493959
   6 H :    0.172364
   7 H :    0.157259
   8 H :    0.150938
   9 H :    0.154684
  10 H :    0.158351
  11 H :    0.160342
  12 H :    0.163891
  13 H :    0.162427
  14 H :    0.154948
  15 H :    0.136907
  16 H :    0.145204
  17 H :    0.344085
Sum of atomic charges:   -0.0000000

LOEWDIN ATOMIC CHARGES
----------------------
   0 C :   -0.426924
   1 C :   -0.243766
   2 C :   -0.427440
   3 C :   -0.287020
   4 C :    0.006485
   5 O :   -0.665361
   6 H :    0.163273
   7 H :    0.155841
   8 H :    0.152195
   9 H :    0.157447
  10 H :    0.156090
  11 H :    0.156936
  12 H :    0.154848
  13 H :    0.169395
  14 H :    0.167280
  15 H :    0.163780
  16 H :    0.163836
  17 H :    0.283107

  Mayer bond orders larger than 0.100000
B(  0-C ,  1-C ) :   0.9012 B(  0-C ,  6-H ) :   0.9784 B(  0-C ,  7-H ) :   0.9728
B(  0-C ,  8-H ) :   0.9703 B(  1-C ,  2-C ) :   0.8997 B(  1-C ,  3-C ) :   0.8959
B(  1-C ,  9-H ) :   0.9657 B(  2-C , 10-H ) :   0.9674 B(  2-C , 11-H ) :   0.9731
B(  2-C , 12-H ) :   0.9773 B(  3-C ,  4-C ) :   0.9353 B(  3-C , 13-H ) :   0.9645
B(  3-C , 14-H ) :   0.9763 B(  4-C ,  5-O ) :   0.9129 B(  4-C , 15-H ) :   0.9564
B(  4-C , 16-H ) :   0.9726 B(  5-O , 17-H ) :   0.8752

Dispersion correction           -0.004476117
FINAL SINGLE POINT ENERGY      -272.900904152804

DIPOLE MOMENT
-------------

Method             : SCF
Type of density    : Electron Density
Multiplicity       :   1
Irrep              :   0
Energy             :  -272.9063982320022319 Eh
Relativity type    :
Basis              : AO
                                X                 Y                 Z
Electronic contribution:     -3.778908902      -0.482815935       0.284131852
Nuclear contribution   :      3.490850168       1.048446436      -0.817817391
                        -----------------------------------------
Total Dipole Moment    :     -0.288058734       0.565630501      -0.533685539
                        -----------------------------------------
Magnitude (a.u.)       :      0.829298470
Magnitude (Debye)      :      2.107909192

Rotational constants in cm-1:             0.160150             0.081195             0.069826
Rotational constants in MHz :          4801.181391          2434.167338          2093.324671

                             ****ORCA TERMINATED NORMALLY****
TOTAL RUN TIME: 0 days 0 hours 0 minutes 28 seconds 277 msec
