                         Program Version 6.0.0  -   RELEASE  -
|  1> ! r2scan-3c def2/J RI DEFGRID2 scfconv6 printgap
|  2> %output
|  3>     printlevel normal
|  4> end
|  5> * xyz 0 1
|  6> C 1.8085070268 -0.9864641156 -0.0243149667
|  7> C 1.8036905059 0.5239128228 -0.2275277379
|  8> C 0.5488845265 1.2138826334 0.3100610229
|  9> C -0.7302254361 0.866220694 -0.4407107136
| 10> S -1.4902010321 -0.6882537635 0.1956894987
| 11> H 1.6540199048 -1.2304596492 1.0249896273
| 12> H 2.7615910486 -1.4052023492 -0.3386208701
| 13> H 1.021408871 -1.4641653825 -0.6017725968
| 14> H 1.9058988404 0.7472342746 -1.2921476989
| 15> H 2.6687603186 0.951313972 0.284450109
| 16> H 0.6937982339 2.2943409406 0.2349292216
| 17> H 0.4211834457 0.9698898599 1.3677713569
| 18> H -1.4771692406 1.6452154876 -0.2960607719
| 19> H -0.5374989237 0.7287833482 -1.5040579399
| 20> H -2.5879319522 -0.617034282 -0.5469663792
| 21> *
| 22>
| 23>                          ****END OF INPUT****

CARTESIAN COORDINATES (ANGSTROEM)
---------------------------------
  C      1.808507   -0.986464   -0.024315
  C      1.803691    0.523913   -0.227528
  C      0.548885    1.213883    0.310061
  C     -0.730225    0.866221   -0.440711
  S     -1.490201   -0.688254    0.195689
  H      1.654020   -1.230460    1.024990
  H      2.761591   -1.405202   -0.338621
  H      1.021409   -1.464165   -0.601773
  H      1.905899    0.747234   -1.292148
  H      2.668760    0.951314    0.284450
  H      0.693798    2.294341    0.234929
  H      0.421183    0.969890    1.367771
  H     -1.477169    1.645215   -0.296061
  H     -0.537499    0.728783   -1.504058
  H     -2.587932   -0.617034   -0.546966

 Total Charge           Charge          ....    0
 Multiplicity           Mult            ....    1
 Number of Electrons    NEL             ....   50
 Basis Dimension        Dim             ....  153

ORBITAL ENERGIES
----------------

  NO   OCC          E(Eh)            E(eV)
   0   2.0000     -88.547963     -2409.5126
   1   2.0000     -10.064960      -273.8815
   2   2.0000     -10.036902      -273.1180
   3   2.0000     -10.028673      -272.8941
   4   2.0000     -10.011579      -272.4289
   5   2.0000      -7.843175      -213.4236
   6   2.0000      -5.790296      -157.5620
   7   2.0000      -5.786766      -157.4659
   8   2.0000      -5.780115      -157.2849
   9   2.0000      -0.783337       -21.3157
  10   2.0000      -0.723361       -19.6837
  11   2.0000      -0.662227       -18.0201
  12   2.0000      -0.588912       -16.0251
  13   2.0000      -0.538262       -14.6469
  14   2.0000      -0.443519       -12.0688
  15   2.0000      -0.432916       -11.7802
  16   2.0000      -0.406062       -11.0495
  17   2.0000      -0.373569       -10.1653
  18   2.0000      -0.358365        -9.7516
  19   2.0000      -0.351148        -9.5552
  20   2.0000      -0.314453        -8.5567
  21   2.0000      -0.302306        -8.2262
  22   2.0000      -0.298443        -8.1210
  23   2.0000      -0.288777        -7.8580
  24   2.0000      -0.205303        -5.5866
  25   0.0000       0.008111         0.2207
  26   0.0000       0.056857         1.5471
  27   0.0000       0.093285         2.5384
  28   0.0000       0.112300         3.0558
  29   0.0000       0.124903         3.3988

MULLIKEN ATOMIC CHARGES
-----------------------
   0 C :   -0.488018
   1 C :   -0.248538
   2 C :   -0.260857
   3 C :   -0.223933
   4 S :   -0.266693
   5 H :    0.149095
   6 H :    0.142599
   7 H :    0.172899
   8 H :    0.135246
   9 H :    0.140957
  10 H :    0.146507
  11 H :    0.151917
  12 H :    0.159264
  13 H :    0.154777
  14 H :    0.134777
Sum of atomic charges:   -0.0000000

LOEWDIN ATOMIC CHARGES
----------------------
   0 C :   -0.434083
   1 C :   -0.316407
   2 C :   -0.317167
   3 C :   -0.349626
   4 S :   -0.112988
   5 H :    0.151688
   6 H :    0.148990
   7 H :    0.159295
   8 H :    0.150985
   9 H :    0.152472
  10 H :    0.160275
  11 H :    0.161372
  12 H :    0.161201
  13 H :    0.159068
  14 H :    0.124926

  Mayer bond orders larger than 0.100000
B(  0-C ,  1-C ) :   0.8914 B(  0-C ,  5-H ) :   0.9803 B(  0-C ,  6-H ) :   0.9654
B(  0-C ,  7-H ) :   0.9694 B(  1-C ,  2-C ) :   0.9122 B(  1-C ,  8-H ) :   0.9821
B(  1-C ,  9-H ) :   0.9702 B(  2-C ,  3-C ) :   0.9064 B(  2-C , 10-H ) :   0.9572
B(  2-C , 11-H ) :   0.9768 B(  3-C ,  4-S ) :   0.9774 B(  3-C , 12-H ) :   0.9542
B(  3-C , 13-H ) :   0.9668 B(  4-S , 14-H ) :   0.9577

Dispersion correction           -0.003808057
FINAL SINGLE POINT ENERGY      -556.551271509932

DIPOLE MOMENT
-------------

Method             : SCF
Type of density    : Electron Density
Multiplicity       :   1
Irrep              :   0
Energy             :  -556.5579013501119334 Eh
Relativity type    :
Basis              : AO
                                X                 Y                 Z
Electronic contribution:     -6.063124524      -1.924824082       1.213156328
Nuclear contribution   :      6.162986034       2.477465934      -1.569943171
                        -----------------------------------------
Total Dipole Moment    :      0.099861511       0.552641852      -0.356786843
                        -----------------------------------------
Magnitude (a.u.)       :      0.665343663
Magnitude (Debye)      :      1.691169191

Rotational constants in cm-1:             0.202156             0.080954             0.063277
Rotational constants in MHz :          6060.470576          2426.935951          1897.004228

                             ****ORCA TERMINATED NORMALLY****
TOTAL RUN TIME: 0 days 0 hours 0 minutes 14 seconds 258 msec
