                         Program Version 6.0.0  -   RELEASE  -
|  1> ! r2scan-3c def2/J RI DEFGRID2 scfconv6 printgap
|  2> %output
|  3>     printlevel normal
|  4> end
|  5> %cpcm
|  6>     smd true
|  7>     smdsolvent "water"
|  8> end
|  9> * xyz 0 1
| 10> C 1.8085070268 -0.9864641156 -0.0243149667
| 11> C 1.8036905059 0.5239128228 -0.2275277379
| 12> C 0.5488845265 1.2138826334 0.3100610229
| 13> C -0.7302254361 0.866220694 -0.4407107136
| 14> S -1.4902010321 -0.6882537635 0.1956894987
| 15> H 1.6540199048 -1.2304596492 1.0249896273
| 16> H 2.7615910486 -1.4052023492 -0.3386208701
| 17> H 1.021408871 -1.4641653825 -0.6017725968
| 18> H 1.9058988404 0.7472342746 -1.2921476989
| 19> H 2.6687603186 0.951313972 0.284450109
| 20> H 0.6937982339 2.2943409406 0.2349292216
| 21> H 0.4211834457 0.9698898599 1.3677713569
| 22> H -1.4771692406 1.6452154876 -0.2960607719
| 23> H -0.5374989237 0.7287833482 -1.5040579399
| 24> H -2.5879319522 -0.617034282 -0.5469663792
| 25> *
| 26>
| 27>                          ****END OF INPUT****

CARTESIAN COORDINATES (ANGSTROEM)
---------------------------------
  C      1.808507   -0.986464   -0.024315
  C      1.803691    0.523913   -0.227528
  C      0.548885    1.213883    0.310061
  C     -0.730225    0.866221   -0.440711
  S     -1.490201   -0.688254    0.195689
  H      1.654020   -1.230460    1.024990
  H      2.761591   -1.405202   -0.338621
  H      1.021409   -1.464165   -0.601773
  H      1.905899    0.747234   -1.292148
  H      2.668760    0.951314    0.284450
  H      0.693798    2.294341    0.234929
  H      0.421183    0.969890    1.367771
  H     -1.477169    1.645215   -0.296061
  H     -0.537499    0.728783   -1.504058
  H     -2.587932   -0.617034   -0.546966

 Total Charge           Charge          ....    0
 Multiplicity           Mult            ....    1
 Number of Electrons    NEL             ....   50
 Basis Dimension        Dim             ....  153

ORBITAL ENERGIES
----------------

  NO   OCC          E(Eh)            E(eV)
   0   2.0000     -88.545847     -2409.4550
   1   2.0000     -10.054045      -273.5845
   2   2.0000     -10.025037      -272.7951
   3   2.0000     -10.018291      -272.6116
   4   2.0000     -10.006015      -272.2775
   5   2.0000      -7.841188      -213.3696
   6   2.0000      -5.788071      -157.5014
   7   2.0000      -5.784644      -157.4082
   8   2.0000      -5.778535      -157.2419
   9   2.0000      -0.773886       -21.0585
  10   2.0000      -0.716474       -19.4962
  11   2.0000      -0.655505       -17.8372
  12   2.0000      -0.581015       -15.8102
  13   2.0000      -0.528149       -14.3717
  14   2.0000      -0.433629       -11.7996
  15   2.0000      -0.423597       -11.5266
  16   2.0000      -0.396804       -10.7976
  17   2.0000      -0.365377        -9.9424
  18   2.0000      -0.351237        -9.5576
  19   2.0000      -0.343057        -9.3350
  20   2.0000      -0.307878        -8.3778
  21   2.0000      -0.292588        -7.9617
  22   2.0000      -0.289672        -7.8824
  23   2.0000      -0.282243        -7.6802
  24   2.0000      -0.205126        -5.5818
  25   0.0000       0.012475         0.3395
  26   0.0000       0.063280         1.7219
  27   0.0000       0.103985         2.8296
  28   0.0000       0.120960         3.2915
  29   0.0000       0.130690         3.5563

MULLIKEN ATOMIC CHARGES
-----------------------
   0 C :   -0.523634
   1 C :   -0.255607
   2 C :   -0.266478
   3 C :   -0.237132
   4 S :   -0.342950
   5 H :    0.159239
   6 H :    0.153693
   7 H :    0.166774
   8 H :    0.148126
   9 H :    0.150685
  10 H :    0.164051
  11 H :    0.155386
  12 H :    0.181100
  13 H :    0.175831
  14 H :    0.170915
Sum of atomic charges:   -0.0000000

LOEWDIN ATOMIC CHARGES
----------------------
   0 C :   -0.443154
   1 C :   -0.317262
   2 C :   -0.317684
   3 C :   -0.343648
   4 S :   -0.148813
   5 H :    0.152971
   6 H :    0.151278
   7 H :    0.155442
   8 H :    0.155137
   9 H :    0.155170
  10 H :    0.166728
  11 H :    0.161635
  12 H :    0.168836
  13 H :    0.166768
  14 H :    0.136597

  Mayer bond orders larger than 0.100000
B(  0-C ,  1-C ) :   0.8810 B(  0-C ,  5-H ) :   0.9787 B(  0-C ,  6-H ) :   0.9639
B(  0-C ,  7-H ) :   0.9706 B(  1-C ,  2-C ) :   0.9043 B(  1-C ,  8-H ) :   0.9812
B(  1-C ,  9-H ) :   0.9709 B(  2-C ,  3-C ) :   0.8941 B(  2-C , 10-H ) :   0.9543
B(  2-C , 11-H ) :   0.9774 B(  3-C ,  4-S ) :   0.9616 B(  3-C , 12-H ) :   0.9515
B(  3-C , 13-H ) :   0.9650 B(  4-S , 14-H ) :   0.9518

Dispersion correction           -0.003808057
FINAL SINGLE POINT ENERGY      -556.552519957936

DIPOLE MOMENT
-------------

Method             : SCF
Type of density    : Electron Density
Multiplicity       :   1
Irrep              :   0
Energy             :  -556.5591497981152997 Eh
Relativity type    :
Basis              : AO
                                X                 Y                 Z
Electronic contribution:     -6.036307100      -1.679986553       1.070845362
Nuclear contribution   :      6.162986034       2.477465934      -1.569943171
                        -----------------------------------------
Total Dipole Moment    :      0.126678934       0.797479382      -0.499097809
                        -----------------------------------------
Magnitude (a.u.)       :      0.949273164
Magnitude (Debye)      :      2.412860630

Rotational constants in cm-1:             0.202156             0.080954             0.063277
Rotational constants in MHz :          6060.470576          2426.935951          1897.004228

                             ****ORCA TERMINATED NORMALLY****
TOTAL RUN TIME: 0 days 0 hours 0 minutes 16 seconds 613 msec
