                         Program Version 6.0.0  -   RELEASE  -
|  1> ! r2scan-3c def2/J RI DEFGRID2 scfconv6 printgap
|  2> %output
|  3>     printlevel normal
|  4> end
|  5> * xyz 0 1
|  6> C -1.9693503876 1.4542896091 0.074158467
|  7> C -1.4929372083 0.0747035426 -0.367600225
|  8> C -0.152050277 -0.3434248442 0.2452916652
|  9> H -0.1601260713 -0.1229658223 1.3179934564
| 10> C 0.0794468375 -1.8424410219 0.0602942658
| 11> C 1.0142847694 0.4357379373 -0.3692826074
| 12> O 2.1947276095 0.1468612191 0.3562940995
| 13> H -2.9544349218 1.6583593979 -0.3381183458
| 14> H -2.0338027164 1.5031781947 1.1585892234
| 15> H -1.2933248214 2.2347447646 -0.2647957689
| 16> H -1.4117696158 0.0458168361 -1.4565841435
| 17> H -2.2428013823 -0.6619548794 -0.0728207538
| 18> H -0.6765819244 -2.4143439852 0.5918501785
| 19> H 1.0586174178 -2.1131580375 0.4468312338
| 20> H 0.0362204263 -2.1034312138 -0.9951255813
| 21> H 0.8080944528 1.5125579028 -0.3266711495
| 22> H 1.1321468381 0.1424866257 -1.4217884742
| 23> H 2.9363702609 0.6226673746 -0.0392031929
| 24> *
| 25>
| 26>                          ****END OF INPUT****

CARTESIAN COORDINATES (ANGSTROEM)
---------------------------------
  C     -1.969350    1.454290    0.074158
  C     -1.492937    0.074704   -0.367600
  C     -0.152050   -0.343425    0.245292
  H     -0.160126   -0.122966    1.317993
  C      0.079447   -1.842441    0.060294
  C      1.014285    0.435738   -0.369283
  O      2.194728    0.146861    0.356294
  H     -2.954435    1.658359   -0.338118
  H     -2.033803    1.503178    1.158589
  H     -1.293325    2.234745   -0.264796
  H     -1.411770    0.045817   -1.456584
  H     -2.242801   -0.661955   -0.072821
  H     -0.676582   -2.414344    0.591850
  H      1.058617   -2.113158    0.446831
  H      0.036220   -2.103431   -0.995126
  H      0.808094    1.512558   -0.326671
  H      1.132147    0.142487   -1.421788
  H      2.936370    0.622667   -0.039203

 Total Charge           Charge          ....    0
 Multiplicity           Mult            ....    1
 Number of Electrons    NEL             ....   50
 Basis Dimension        Dim             ....  179

ORBITAL ENERGIES
----------------

  NO   OCC          E(Eh)            E(eV)
   0   2.0000     -18.946272      -515.5543
   1   2.0000     -10.071353      -274.0555
   2   2.0000     -10.029444      -272.9151
   3   2.0000     -10.025405      -272.8051
   4   2.0000     -10.016484      -272.5624
   5   2.0000     -10.007961      -272.3305
   6   2.0000      -0.982553       -26.7366
   7   2.0000      -0.773993       -21.0614
   8   2.0000      -0.697554       -18.9814
   9   2.0000      -0.638322       -17.3696
  10   2.0000      -0.588841       -16.0232
  11   2.0000      -0.524919       -14.2838
  12   2.0000      -0.480468       -13.0742
  13   2.0000      -0.437231       -11.8977
  14   2.0000      -0.418016       -11.3748
  15   2.0000      -0.388186       -10.5631
  16   2.0000      -0.380049       -10.3416
  17   2.0000      -0.370880       -10.0922
  18   2.0000      -0.334756        -9.1092
  19   2.0000      -0.332454        -9.0465
  20   2.0000      -0.314357        -8.5541
  21   2.0000      -0.295227        -8.0335
  22   2.0000      -0.289316        -7.8727
  23   2.0000      -0.278190        -7.5699
  24   2.0000      -0.233806        -6.3622
  25   0.0000       0.060503         1.6464
  26   0.0000       0.088167         2.3991
  27   0.0000       0.112318         3.0563
  28   0.0000       0.124531         3.3887
  29   0.0000       0.133221         3.6251

MULLIKEN ATOMIC CHARGES
-----------------------
   0 C :   -0.490025
   1 C :   -0.251296
   2 C :   -0.007332
   3 H :    0.149593
   4 C :   -0.508104
   5 C :   -0.176047
   6 O :   -0.433144
   7 H :    0.147127
   8 H :    0.148537
   9 H :    0.139200
  10 H :    0.137056
  11 H :    0.142782
  12 H :    0.146207
  13 H :    0.175025
  14 H :    0.140954
  15 H :    0.121023
  16 H :    0.127766
  17 H :    0.290678
Sum of atomic charges:   -0.0000000

LOEWDIN ATOMIC CHARGES
----------------------
   0 C :   -0.424329
   1 C :   -0.307717
   2 C :   -0.217930
   3 H :    0.165627
   4 C :   -0.411061
   5 C :    0.012428
   6 O :   -0.632469
   7 H :    0.150878
   8 H :    0.151586
   9 H :    0.147088
  10 H :    0.155864
  11 H :    0.157000
  12 H :    0.151761
  13 H :    0.167181
  14 H :    0.153266
  15 H :    0.157850
  16 H :    0.156989
  17 H :    0.265986

  Mayer bond orders larger than 0.100000
B(  0-C ,  1-C ) :   0.9062 B(  0-C ,  7-H ) :   0.9734 B(  0-C ,  8-H ) :   0.9896
B(  0-C ,  9-H ) :   0.9796 B(  1-C ,  2-C ) :   0.8801 B(  1-C , 10-H ) :   0.9647
B(  1-C , 11-H ) :   0.9700 B(  2-C ,  3-H ) :   0.9647 B(  2-C ,  4-C ) :   0.9057
B(  2-C ,  5-C ) :   0.9285 B(  4-C , 12-H ) :   0.9794 B(  4-C , 13-H ) :   0.9718
B(  4-C , 14-H ) :   0.9812 B(  5-C ,  6-O ) :   0.9267 B(  5-C , 15-H ) :   0.9657
B(  5-C , 16-H ) :   0.9753 B(  6-O , 17-H ) :   0.9013

Dispersion correction           -0.004317556
FINAL SINGLE POINT ENERGY      -272.897658393767

DIPOLE MOMENT
-------------

Method             : SCF
Type of density    : Electron Density
Multiplicity       :   1
Irrep              :   0
Energy             :  -272.9031855678251191 Eh
Relativity type    :
Basis              : AO
                                X                 Y                 Z
Electronic contribution:      4.446891647       0.055567666       0.890164955
Nuclear contribution   :     -4.471920644       0.287341037      -1.307994520
                        -----------------------------------------
Total Dipole Moment    :     -0.025028997       0.342908703      -0.417829566
                        -----------------------------------------
Magnitude (a.u.)       :      0.541104773
Magnitude (Debye)      :      1.375379030

Rotational constants in cm-1:             0.164136             0.075739             0.056906
Rotational constants in MHz :          4920.663495          2270.584969          1705.989986

                             ****ORCA TERMINATED NORMALLY****
TOTAL RUN TIME: 0 days 0 hours 0 minutes 23 seconds 51 msec
