                         Program Version 6.0.0  -   RELEASE  -
|  1> ! r2scan-3c def2/J RI DEFGRID2 scfconv6 printgap
|  2> %output
|  3>     printlevel normal
|  4> end
|  5> %cpcm
|  6>     smd true
|  7>     smdsolvent "water"
|  8> end
|  9> * xyz 0 1
| 10> C -1.9693503876 1.4542896091 0.074158467
| 11> C -1.4929372083 0.0747035426 -0.367600225
| 12> C -0.152050277 -0.3434248442 0.2452916652
| 13> H -0.1601260713 -0.1229658223 1.3179934564
| 14> C 0.0794468375 -1.8424410219 0.0602942658
| 15> C 1.0142847694 0.4357379373 -0.3692826074
| 16> O 2.1947276095 0.1468612191 0.3562940995
| 17> H -2.9544349218 1.6583593979 -0.3381183458
| 18> H -2.0338027164 1.5031781947 1.1585892234
| 19> H -1.2933248214 2.2347447646 -0.2647957689
| 20> H -1.4117696158 0.0458168361 -1.4565841435
| 21> H -2.2428013823 -0.6619548794 -0.0728207538
| 22> H -0.6765819244 -2.4143439852 0.5918501785
| 23> H 1.0586174178 -2.1131580375 0.4468312338
| 24> H 0.0362204263 -2.1034312138 -0.9951255813
| 25> H 0.8080944528 1.5125579028 -0.3266711495
| 26> H 1.1321468381 0.1424866257 -1.4217884742
| 27> H 2.9363702609 0.6226673746 -0.0392031929
| 28> *
| 29>
| 30>                          ****END OF INPUT****

CARTESIAN COORDINATES (ANGSTROEM)
---------------------------------
  C     -1.969350    1.454290    0.074158
  C     -1.492937    0.074704   -0.367600
  C     -0.152050   -0.343425    0.245292
  H     -0.160126   -0.122966    1.317993
  C      0.079447   -1.842441    0.060294
  C      1.014285    0.435738   -0.369283
  O      2.194728    0.146861    0.356294
  H     -2.954435    1.658359   -0.338118
  H     -2.033803    1.503178    1.158589
  H     -1.293325    2.234745   -0.264796
  H     -1.411770    0.045817   -1.456584
  H     -2.242801   -0.661955   -0.072821
  H     -0.676582   -2.414344    0.591850
  H      1.058617   -2.113158    0.446831
  H      0.036220   -2.103431   -0.995126
  H      0.808094    1.512558   -0.326671
  H      1.132147    0.142487   -1.421788
  H      2.936370    0.622667   -0.039203

 Total Charge           Charge          ....    0
 Multiplicity           Mult            ....    1
 Number of Electrons    NEL             ....   50
 Basis Dimension        Dim             ....  179

ORBITAL ENERGIES
----------------

  NO   OCC          E(Eh)            E(eV)
   0   2.0000     -18.948539      -515.6160
   1   2.0000     -10.064686      -273.8740
   2   2.0000     -10.024900      -272.7914
   3   2.0000     -10.017394      -272.5871
   4   2.0000     -10.007647      -272.3219
   5   2.0000     -10.006091      -272.2796
   6   2.0000      -0.983739       -26.7689
   7   2.0000      -0.768424       -20.9099
   8   2.0000      -0.691599       -18.8194
   9   2.0000      -0.634618       -17.2688
  10   2.0000      -0.582587       -15.8530
  11   2.0000      -0.519732       -14.1426
  12   2.0000      -0.476815       -12.9748
  13   2.0000      -0.432468       -11.7681
  14   2.0000      -0.411935       -11.2093
  15   2.0000      -0.383602       -10.4383
  16   2.0000      -0.375666       -10.2224
  17   2.0000      -0.366318        -9.9680
  18   2.0000      -0.336043        -9.1442
  19   2.0000      -0.327274        -8.9056
  20   2.0000      -0.308257        -8.3881
  21   2.0000      -0.290518        -7.9054
  22   2.0000      -0.284671        -7.7463
  23   2.0000      -0.274310        -7.4644
  24   2.0000      -0.236731        -6.4418
  25   0.0000       0.076049         2.0694
  26   0.0000       0.097775         2.6606
  27   0.0000       0.118220         3.2169
  28   0.0000       0.132360         3.6017
  29   0.0000       0.138007         3.7554

MULLIKEN ATOMIC CHARGES
-----------------------
   0 C :   -0.533370
   1 C :   -0.263703
   2 C :   -0.000570
   3 H :    0.154520
   4 C :   -0.543603
   5 C :   -0.186738
   6 O :   -0.516070
   7 H :    0.157195
   8 H :    0.157894
   9 H :    0.155197
  10 H :    0.150845
  11 H :    0.152004
  12 H :    0.162043
  13 H :    0.163134
  14 H :    0.159557
  15 H :    0.140745
  16 H :    0.146615
  17 H :    0.344304
Sum of atomic charges:   -0.0000000

LOEWDIN ATOMIC CHARGES
----------------------
   0 C :   -0.431990
   1 C :   -0.307890
   2 C :   -0.219997
   3 H :    0.165006
   4 C :   -0.420180
   5 C :    0.014176
   6 O :   -0.667697
   7 H :    0.153335
   8 H :    0.153392
   9 H :    0.151478
  10 H :    0.159964
  11 H :    0.159259
  12 H :    0.156175
  13 H :    0.160648
  14 H :    0.158246
  15 H :    0.166323
  16 H :    0.165336
  17 H :    0.284416

  Mayer bond orders larger than 0.100000
B(  0-C ,  1-C ) :   0.8973 B(  0-C ,  7-H ) :   0.9708 B(  0-C ,  8-H ) :   0.9875
B(  0-C ,  9-H ) :   0.9765 B(  1-C ,  2-C ) :   0.8814 B(  1-C , 10-H ) :   0.9657
B(  1-C , 11-H ) :   0.9696 B(  2-C ,  3-H ) :   0.9635 B(  2-C ,  4-C ) :   0.8907
B(  2-C ,  5-C ) :   0.9146 B(  4-C , 12-H ) :   0.9759 B(  4-C , 13-H ) :   0.9740
B(  4-C , 14-H ) :   0.9791 B(  5-C ,  6-O ) :   0.9086 B(  5-C , 15-H ) :   0.9651
B(  5-C , 16-H ) :   0.9753 B(  6-O , 17-H ) :   0.8748

Dispersion correction           -0.004317556
FINAL SINGLE POINT ENERGY      -272.903190525999

DIPOLE MOMENT
-------------

Method             : SCF
Type of density    : Electron Density
Multiplicity       :   1
Irrep              :   0
Energy             :  -272.9087177000563997 Eh
Relativity type    :
Basis              : AO
                                X                 Y                 Z
Electronic contribution:      4.389077304       0.218665033       0.667160430
Nuclear contribution   :     -4.471920644       0.287341037      -1.307994520
                        -----------------------------------------
Total Dipole Moment    :     -0.082843340       0.506006070      -0.640834090
                        -----------------------------------------
Magnitude (a.u.)       :      0.820715233
Magnitude (Debye)      :      2.086092337

Rotational constants in cm-1:             0.164136             0.075739             0.056906
Rotational constants in MHz :          4920.663495          2270.584969          1705.989986

                             ****ORCA TERMINATED NORMALLY****
TOTAL RUN TIME: 0 days 0 hours 0 minutes 27 seconds 453 msec
