                         Program Version 6.0.0  -   RELEASE  -
|  1> ! pbe def2-sv(p) def2/J RI DEFGRID1 loosescf d4 GCP(DFT/SV(P)) printgap
|  2> %output
|  3>     printlevel normal
|  4> end
|  5> * xyz 0 1
|  6> C 3.6424354881 0.6289536196 -0.4664529303
|  7> C 2.527783264 -0.0993558839 0.2180998791
|  8> C 2.7289381199 -0.8619942166 1.2812833299
|  9> C 1.150636617 0.1174016934 -0.3744014643
| 10> H 1.2718046855 0.6339384363 -1.3303146171
| 11> C 0.3928831386 -1.2015993918 -0.6353106849
| 12> C -0.8993769343 -1.331145804 0.1838220965
| 13> C -1.7162260183 -0.0880857336 0.0131185524
| 14> C -1.0831633487 1.087100813 0.185320301
| 15> C 0.3515910758 1.0725410978 0.5494313928
| 16> C -3.1150055442 -0.1582204549 -0.3519874772
| 17> O -3.8605603088 0.7941702078 -0.5062546967
| 18> H 3.4353500376 1.6979376869 -0.4879517375
| 19> H 4.5884262866 0.4649507578 0.0416334276
| 20> H 3.7338708552 0.2879180169 -1.4968959711
| 21> H 1.927849821 -1.3841591246 1.7757745062
| 22> H 3.7105038473 -1.0008821439 1.7005810865
| 23> H 0.1260428856 -1.2544977946 -1.6919029976
| 24> H 1.0409885574 -2.0499624891 -0.4167167532
| 25> H -1.4545585363 -2.2137221007 -0.1339875827
| 26> H -0.6460469406 -1.4497402532 1.2400132307
| 27> H -1.6101517963 2.0202601036 0.0545603837
| 28> H 0.7861153508 2.0702458257 0.5139191564
| 29> H 0.4434096033 0.6987405614 1.5735126189
| 30> H -3.5060871894 -1.1842056194 -0.4908870164
| 31> *
| 32>
| 33>                          ****END OF INPUT****

CARTESIAN COORDINATES (ANGSTROEM)
---------------------------------
  C      3.642435    0.628954   -0.466453
  C      2.527783   -0.099356    0.218100
  C      2.728938   -0.861994    1.281283
  C      1.150637    0.117402   -0.374401
  H      1.271805    0.633938   -1.330315
  C      0.392883   -1.201599   -0.635311
  C     -0.899377   -1.331146    0.183822
  C     -1.716226   -0.088086    0.013119
  C     -1.083163    1.087101    0.185320
  C      0.351591    1.072541    0.549431
  C     -3.115006   -0.158220   -0.351987
  O     -3.860560    0.794170   -0.506255
  H      3.435350    1.697938   -0.487952
  H      4.588426    0.464951    0.041633
  H      3.733871    0.287918   -1.496896
  H      1.927850   -1.384159    1.775775
  H      3.710504   -1.000882    1.700581
  H      0.126043   -1.254498   -1.691903
  H      1.040989   -2.049962   -0.416717
  H     -1.454559   -2.213722   -0.133988
  H     -0.646047   -1.449740    1.240013
  H     -1.610152    2.020260    0.054560
  H      0.786115    2.070246    0.513919
  H      0.443410    0.698741    1.573513
  H     -3.506087   -1.184206   -0.490887

 Total Charge           Charge          ....    0
 Multiplicity           Mult            ....    1
 Number of Electrons    NEL             ....   82
 Basis Dimension        Dim             ....  182

ORBITAL ENERGIES
----------------

  NO   OCC          E(Eh)            E(eV)
   0   2.0000     -18.739842      -509.9370
   1   2.0000      -9.961562      -271.0679
   2   2.0000      -9.910203      -269.6703
   3   2.0000      -9.910130      -269.6684
   4   2.0000      -9.906361      -269.5658
   5   2.0000      -9.904821      -269.5239
   6   2.0000      -9.900018      -269.3932
   7   2.0000      -9.899821      -269.3878
   8   2.0000      -9.895046      -269.2579
   9   2.0000      -9.889058      -269.0949
  10   2.0000      -9.878643      -268.8115
  11   2.0000      -0.929250       -25.2862
  12   2.0000      -0.784307       -21.3421
  13   2.0000      -0.734937       -19.9987
  14   2.0000      -0.682624       -18.5752
  15   2.0000      -0.673658       -18.3312
  16   2.0000      -0.620905       -16.8957
  17   2.0000      -0.589174       -16.0322
  18   2.0000      -0.570003       -15.5106
  19   2.0000      -0.523643       -14.2491
  20   2.0000      -0.480739       -13.0816
  21   2.0000      -0.461405       -12.5555
  22   2.0000      -0.446353       -12.1459
  23   2.0000      -0.441645       -12.0178
  24   2.0000      -0.405007       -11.0208
  25   2.0000      -0.397186       -10.8080
  26   2.0000      -0.390974       -10.6389
  27   2.0000      -0.374960       -10.2032
  28   2.0000      -0.366192        -9.9646
  29   2.0000      -0.362949        -9.8763
  30   2.0000      -0.357454        -9.7268
  31   2.0000      -0.352062        -9.5801
  32   2.0000      -0.342743        -9.3265
  33   2.0000      -0.332737        -9.0542
  34   2.0000      -0.327123        -8.9015
  35   2.0000      -0.301417        -8.2020
  36   2.0000      -0.289402        -7.8750
  37   2.0000      -0.278120        -7.5680
  38   2.0000      -0.232051        -6.3144
  39   2.0000      -0.222066        -6.0427
  40   2.0000      -0.199128        -5.4185
  41   0.0000      -0.094870        -2.5816
  42   0.0000      -0.022624        -0.6156
  43   0.0000       0.022914         0.6235
  44   0.0000       0.028872         0.7856
  45   0.0000       0.046227         1.2579

MULLIKEN ATOMIC CHARGES
-----------------------
   0 C :   -0.210608
   1 C :   -0.046934
   2 C :   -0.246523
   3 C :   -0.160300
   4 H :    0.060795
   5 C :   -0.103510
   6 C :   -0.080552
   7 C :   -0.063982
   8 C :   -0.148151
   9 C :   -0.025136
  10 C :    0.039305
  11 O :   -0.172470
  12 H :    0.109444
  13 H :    0.098449
  14 H :    0.113090
  15 H :    0.090180
  16 H :    0.087483
  17 H :    0.084879
  18 H :    0.096094
  19 H :    0.084420
  20 H :    0.096815
  21 H :    0.073716
  22 H :    0.092334
  23 H :    0.102589
  24 H :    0.028573
Sum of atomic charges:   -0.0000000

LOEWDIN ATOMIC CHARGES
----------------------
   0 C :   -0.320989
   1 C :   -0.046831
   2 C :   -0.270415
   3 C :   -0.124389
   4 H :    0.122041
   5 C :   -0.208590
   6 C :   -0.212074
   7 C :   -0.115621
   8 C :   -0.067264
   9 C :   -0.207195
  10 C :   -0.003967
  11 O :   -0.136915
  12 H :    0.128089
  13 H :    0.124014
  14 H :    0.130251
  15 H :    0.115432
  16 H :    0.120761
  17 H :    0.123147
  18 H :    0.124651
  19 H :    0.122820
  20 H :    0.128444
  21 H :    0.131022
  22 H :    0.127399
  23 H :    0.140718
  24 H :    0.075461

  Mayer bond orders larger than 0.100000
B(  0-C ,  1-C ) :   1.1353 B(  0-C , 12-H ) :   0.9290 B(  0-C , 13-H ) :   0.9406
B(  0-C , 14-H ) :   0.9268 B(  1-C ,  2-C ) :   2.0403 B(  1-C ,  3-C ) :   0.9825
B(  2-C , 15-H ) :   0.9043 B(  2-C , 16-H ) :   0.9038 B(  3-C ,  4-H ) :   0.8882
B(  3-C ,  5-C ) :   1.0774 B(  3-C ,  9-C ) :   1.0960 B(  5-C ,  6-C ) :   1.1517
B(  5-C , 17-H ) :   0.9117 B(  5-C , 18-H ) :   0.9102 B(  6-C ,  7-C ) :   1.0938
B(  6-C , 19-H ) :   0.8970 B(  6-C , 20-H ) :   0.8738 B(  7-C ,  8-C ) :   1.7527
B(  7-C , 10-C ) :   1.0355 B(  8-C ,  9-C ) :   1.0865 B(  8-C , 11-O ) :   0.1155
B(  8-C , 21-H ) :   0.9484 B(  9-C , 22-H ) :   0.9148 B(  9-C , 23-H ) :   0.8545
B( 10-C , 11-O ) :   2.1348 B( 10-C , 24-H ) :   0.9126

Dispersion correction           -0.026563670
FINAL SINGLE POINT ENERGY      -463.616072252946

DIPOLE MOMENT
-------------

Method             : SCF
Type of density    : Electron Density
Multiplicity       :   1
Irrep              :   0
Energy             :  -463.6916475440398244 Eh
Relativity type    :
Basis              : AO
                                X                 Y                 Z
Electronic contribution:    -11.703286997       2.130773433      -0.704463048
Nuclear contribution   :     12.934062955      -2.486734583       0.791192656
                        -----------------------------------------
Total Dipole Moment    :      1.230775958      -0.355961150       0.086729608
                        -----------------------------------------
Magnitude (a.u.)       :      1.284149456
Magnitude (Debye)      :      3.264048518

Rotational constants in cm-1:             0.098454             0.018657             0.017350
Rotational constants in MHz :          2951.570852           559.313062           520.128962

                             ****ORCA TERMINATED NORMALLY****
TOTAL RUN TIME: 0 days 0 hours 0 minutes 18 seconds 341 msec
