                         Program Version 6.0.0  -   RELEASE  -
|  1> ! r2scan-3c def2/J RI DEFGRID2 scfconv6 printgap
|  2> %output
|  3>     printlevel normal
|  4> end
|  5> * xyz 0 1
|  6> C -3.1184343503 0.6567355062 0.1329691143
|  7> C -1.7264429975 0.1589235352 0.500052188
|  8> C -0.7941440771 0.1697852566 -0.7210628782
|  9> C 0.5541096657 -0.3612254768 -0.3174450092
| 10> O 0.8675087056 -1.5340650584 -0.3240212615
| 11> O 1.3541014804 0.6150753498 0.0914459461
| 12> C 2.6646483959 0.2926249358 0.5677756683
| 13> H -3.0706318659 1.673745188 -0.2472646368
| 14> H -3.5609209969 0.0223996835 -0.630677405
| 15> H -3.7626224862 0.6441628144 1.0077979478
| 16> H -1.7869788047 -0.8592408344 0.8901202243
| 17> H -1.3004300608 0.7949525686 1.2782310627
| 18> H -0.6820428848 1.1882066778 -1.0901793593
| 19> H -1.2042540793 -0.4724441428 -1.4999569555
| 20> H 3.3888178302 0.7270238131 -0.1193381967
| 21> H 2.7860351043 -0.7901881884 0.6123546734
| 22> H 2.7691302851 0.733525073 1.5568363719
| 23> *
| 24>
| 25>                          ****END OF INPUT****

CARTESIAN COORDINATES (ANGSTROEM)
---------------------------------
  C     -3.118434    0.656736    0.132969
  C     -1.726443    0.158924    0.500052
  C     -0.794144    0.169785   -0.721063
  C      0.554110   -0.361225   -0.317445
  O      0.867509   -1.534065   -0.324021
  O      1.354101    0.615075    0.091446
  C      2.664648    0.292625    0.567776
  H     -3.070632    1.673745   -0.247265
  H     -3.560921    0.022400   -0.630677
  H     -3.762622    0.644163    1.007798
  H     -1.786979   -0.859241    0.890120
  H     -1.300430    0.794953    1.278231
  H     -0.682043    1.188207   -1.090179
  H     -1.204254   -0.472444   -1.499957
  H      3.388818    0.727024   -0.119338
  H      2.786035   -0.790188    0.612355
  H      2.769130    0.733525    1.556836

 Total Charge           Charge          ....    0
 Multiplicity           Mult            ....    1
 Number of Electrons    NEL             ....   56
 Basis Dimension        Dim             ....  193

ORBITAL ENERGIES
----------------

  NO   OCC          E(Eh)            E(eV)
   0   2.0000     -18.999035      -516.9900
   1   2.0000     -18.927239      -515.0364
   2   2.0000     -10.152204      -276.2555
   3   2.0000     -10.084843      -274.4225
   4   2.0000     -10.041438      -273.2414
   5   2.0000     -10.039598      -273.1913
   6   2.0000     -10.024080      -272.7691
   7   2.0000      -1.072176       -29.1754
   8   2.0000      -0.975276       -26.5386
   9   2.0000      -0.774301       -21.0698
  10   2.0000      -0.713276       -19.4092
  11   2.0000      -0.661584       -18.0026
  12   2.0000      -0.572211       -15.5707
  13   2.0000      -0.533719       -14.5232
  14   2.0000      -0.470067       -12.7912
  15   2.0000      -0.453217       -12.3327
  16   2.0000      -0.451207       -12.2780
  17   2.0000      -0.425306       -11.5732
  18   2.0000      -0.399669       -10.8756
  19   2.0000      -0.392099       -10.6696
  20   2.0000      -0.364752        -9.9254
  21   2.0000      -0.356985        -9.7140
  22   2.0000      -0.334637        -9.1059
  23   2.0000      -0.317140        -8.6298
  24   2.0000      -0.311424        -8.4743
  25   2.0000      -0.309279        -8.4159
  26   2.0000      -0.270801        -7.3689
  27   2.0000      -0.235437        -6.4066
  28   0.0000      -0.014213        -0.3868
  29   0.0000       0.066949         1.8218
  30   0.0000       0.096580         2.6281
  31   0.0000       0.103103         2.8056
  32   0.0000       0.130085         3.5398

MULLIKEN ATOMIC CHARGES
-----------------------
   0 C :   -0.472605
   1 C :   -0.231935
   2 C :   -0.330699
   3 C :    0.430706
   4 O :   -0.438014
   5 O :   -0.198999
   6 C :   -0.304156
   7 H :    0.144484
   8 H :    0.146488
   9 H :    0.151004
  10 H :    0.156549
  11 H :    0.145630
  12 H :    0.154740
  13 H :    0.161056
  14 H :    0.148377
  15 H :    0.189880
  16 H :    0.147493
Sum of atomic charges:    0.0000000

LOEWDIN ATOMIC CHARGES
----------------------
   0 C :   -0.419196
   1 C :   -0.287130
   2 C :   -0.228888
   3 C :    0.355280
   4 O :   -0.438856
   5 O :   -0.602879
   6 C :   -0.046312
   7 H :    0.150680
   8 H :    0.151543
   9 H :    0.153269
  10 H :    0.161478
  11 H :    0.157626
  12 H :    0.176370
  13 H :    0.177325
  14 H :    0.172978
  15 H :    0.193450
  16 H :    0.173264

  Mayer bond orders larger than 0.100000
B(  0-C ,  1-C ) :   0.8952 B(  0-C ,  7-H ) :   0.9843 B(  0-C ,  8-H ) :   0.9841
B(  0-C ,  9-H ) :   0.9719 B(  1-C ,  2-C ) :   0.9292 B(  1-C , 10-H ) :   0.9604
B(  1-C , 11-H ) :   0.9617 B(  2-C ,  3-C ) :   0.9757 B(  2-C , 12-H ) :   0.9745
B(  2-C , 13-H ) :   0.9735 B(  3-C ,  4-O ) :   1.8490 B(  3-C ,  5-O ) :   1.0387
B(  5-O ,  6-C ) :   0.8414 B(  6-C , 14-H ) :   0.9640 B(  6-C , 15-H ) :   0.9675
B(  6-C , 16-H ) :   0.9650

Dispersion correction           -0.003946038
FINAL SINGLE POINT ENERGY      -346.929732043327

DIPOLE MOMENT
-------------

Method             : SCF
Type of density    : Electron Density
Multiplicity       :   1
Irrep              :   0
Energy             :  -346.9365275948087515 Eh
Relativity type    :
Basis              : AO
                                X                 Y                 Z
Electronic contribution:      5.965729126      -2.628577979      -1.431229312
Nuclear contribution   :     -5.993752430       3.422077038       1.645778185
                        -----------------------------------------
Total Dipole Moment    :     -0.028023304       0.793499059       0.214548873
                        -----------------------------------------
Magnitude (a.u.)       :      0.822470232
Magnitude (Debye)      :      2.090553190

Rotational constants in cm-1:             0.204685             0.043661             0.039474
Rotational constants in MHz :          6136.308365          1308.934983          1183.389704

                             ****ORCA TERMINATED NORMALLY****
TOTAL RUN TIME: 0 days 0 hours 0 minutes 22 seconds 679 msec
