                         Program Version 6.0.0  -   RELEASE  -
|  1> ! r2scan-3c def2/J RI DEFGRID2 scfconv6 printgap
|  2> %output
|  3>     printlevel normal
|  4> end
|  5> %cpcm
|  6>     smd true
|  7>     smdsolvent "water"
|  8> end
|  9> * xyz 0 1
| 10> C -3.1184343503 0.6567355062 0.1329691143
| 11> C -1.7264429975 0.1589235352 0.500052188
| 12> C -0.7941440771 0.1697852566 -0.7210628782
| 13> C 0.5541096657 -0.3612254768 -0.3174450092
| 14> O 0.8675087056 -1.5340650584 -0.3240212615
| 15> O 1.3541014804 0.6150753498 0.0914459461
| 16> C 2.6646483959 0.2926249358 0.5677756683
| 17> H -3.0706318659 1.673745188 -0.2472646368
| 18> H -3.5609209969 0.0223996835 -0.630677405
| 19> H -3.7626224862 0.6441628144 1.0077979478
| 20> H -1.7869788047 -0.8592408344 0.8901202243
| 21> H -1.3004300608 0.7949525686 1.2782310627
| 22> H -0.6820428848 1.1882066778 -1.0901793593
| 23> H -1.2042540793 -0.4724441428 -1.4999569555
| 24> H 3.3888178302 0.7270238131 -0.1193381967
| 25> H 2.7860351043 -0.7901881884 0.6123546734
| 26> H 2.7691302851 0.733525073 1.5568363719
| 27> *
| 28>
| 29>                          ****END OF INPUT****

CARTESIAN COORDINATES (ANGSTROEM)
---------------------------------
  C     -3.118434    0.656736    0.132969
  C     -1.726443    0.158924    0.500052
  C     -0.794144    0.169785   -0.721063
  C      0.554110   -0.361225   -0.317445
  O      0.867509   -1.534065   -0.324021
  O      1.354101    0.615075    0.091446
  C      2.664648    0.292625    0.567776
  H     -3.070632    1.673745   -0.247265
  H     -3.560921    0.022400   -0.630677
  H     -3.762622    0.644163    1.007798
  H     -1.786979   -0.859241    0.890120
  H     -1.300430    0.794953    1.278231
  H     -0.682043    1.188207   -1.090179
  H     -1.204254   -0.472444   -1.499957
  H      3.388818    0.727024   -0.119338
  H      2.786035   -0.790188    0.612355
  H      2.769130    0.733525    1.556836

 Total Charge           Charge          ....    0
 Multiplicity           Mult            ....    1
 Number of Electrons    NEL             ....   56
 Basis Dimension        Dim             ....  193

ORBITAL ENERGIES
----------------

  NO   OCC          E(Eh)            E(eV)
   0   2.0000     -19.004347      -517.1346
   1   2.0000     -18.942778      -515.4592
   2   2.0000     -10.162333      -276.5311
   3   2.0000     -10.074872      -274.1512
   4   2.0000     -10.035087      -273.0686
   5   2.0000     -10.030581      -272.9460
   6   2.0000     -10.012046      -272.4416
   7   2.0000      -1.078924       -29.3590
   8   2.0000      -0.988827       -26.9073
   9   2.0000      -0.767789       -20.8926
  10   2.0000      -0.707529       -19.2528
  11   2.0000      -0.653794       -17.7907
  12   2.0000      -0.563615       -15.3367
  13   2.0000      -0.531564       -14.4646
  14   2.0000      -0.470715       -12.8088
  15   2.0000      -0.458076       -12.4649
  16   2.0000      -0.449913       -12.2428
  17   2.0000      -0.424894       -11.5619
  18   2.0000      -0.392869       -10.6905
  19   2.0000      -0.389179       -10.5901
  20   2.0000      -0.359892        -9.7932
  21   2.0000      -0.351120        -9.5545
  22   2.0000      -0.329610        -8.9691
  23   2.0000      -0.315058        -8.5732
  24   2.0000      -0.305490        -8.3128
  25   2.0000      -0.300932        -8.1888
  26   2.0000      -0.277464        -7.5502
  27   2.0000      -0.250987        -6.8297
  28   0.0000      -0.022042        -0.5998
  29   0.0000       0.071929         1.9573
  30   0.0000       0.104219         2.8359
  31   0.0000       0.114537         3.1167
  32   0.0000       0.137996         3.7551

MULLIKEN ATOMIC CHARGES
-----------------------
   0 C :   -0.516862
   1 C :   -0.220624
   2 C :   -0.354998
   3 C :    0.464035
   4 O :   -0.522030
   5 O :   -0.214718
   6 C :   -0.317772
   7 H :    0.158823
   8 H :    0.159234
   9 H :    0.162608
  10 H :    0.158212
  11 H :    0.157096
  12 H :    0.175020
  13 H :    0.176832
  14 H :    0.175855
  15 H :    0.184251
  16 H :    0.175038
Sum of atomic charges:    0.0000000

LOEWDIN ATOMIC CHARGES
----------------------
   0 C :   -0.424692
   1 C :   -0.285017
   2 C :   -0.227254
   3 C :    0.363876
   4 O :   -0.500592
   5 O :   -0.604127
   6 C :   -0.040599
   7 H :    0.154883
   8 H :    0.154884
   9 H :    0.156494
  10 H :    0.161450
  11 H :    0.161442
  12 H :    0.185267
  13 H :    0.183007
  14 H :    0.184122
  15 H :    0.191830
  16 H :    0.185026

  Mayer bond orders larger than 0.100000
B(  0-C ,  1-C ) :   0.8874 B(  0-C ,  7-H ) :   0.9815 B(  0-C ,  8-H ) :   0.9817
B(  0-C ,  9-H ) :   0.9687 B(  1-C ,  2-C ) :   0.9192 B(  1-C , 10-H ) :   0.9600
B(  1-C , 11-H ) :   0.9589 B(  2-C ,  3-C ) :   0.9747 B(  2-C , 12-H ) :   0.9644
B(  2-C , 13-H ) :   0.9704 B(  3-C ,  4-O ) :   1.7807 B(  3-C ,  5-O ) :   1.0647
B(  5-O ,  6-C ) :   0.8289 B(  6-C , 14-H ) :   0.9548 B(  6-C , 15-H ) :   0.9640
B(  6-C , 16-H ) :   0.9556

Dispersion correction           -0.003946038
FINAL SINGLE POINT ENERGY      -346.934141327290

DIPOLE MOMENT
-------------

Method             : SCF
Type of density    : Electron Density
Multiplicity       :   1
Irrep              :   0
Energy             :  -346.9409368787708559 Eh
Relativity type    :
Basis              : AO
                                X                 Y                 Z
Electronic contribution:      5.960074935      -2.282145488      -1.379600410
Nuclear contribution   :     -5.993752430       3.422077038       1.645778185
                        -----------------------------------------
Total Dipole Moment    :     -0.033677494       1.139931550       0.266177775
                        -----------------------------------------
Magnitude (a.u.)       :      1.171080151
Magnitude (Debye)      :      2.976649187

Rotational constants in cm-1:             0.204685             0.043661             0.039474
Rotational constants in MHz :          6136.308365          1308.934983          1183.389704

                             ****ORCA TERMINATED NORMALLY****
TOTAL RUN TIME: 0 days 0 hours 0 minutes 31 seconds 534 msec
