                         Program Version 6.0.0  -   RELEASE  -
|  1> ! pbe def2-sv(p) def2/J RI DEFGRID1 loosescf d4 GCP(DFT/SV(P)) printgap
|  2> %output
|  3>     printlevel normal
|  4> end
|  5> * xyz 0 1
|  6> C -2.1004888663 -0.4083912231 -0.4609259076
|  7> C -1.2758633173 0.235324108 0.6499085339
|  8> N 0.0422304963 0.6326771948 0.1806994213
|  9> C 0.9552663921 -0.4776051737 -0.0382740735
| 10> C 2.354114866 0.0360585687 -0.3473038614
| 11> H -1.6988633706 -1.3804682267 -0.7333022994
| 12> H -3.125587394 -0.5412514899 -0.1263350011
| 13> H -2.0927294076 0.2316215369 -1.3381954065
| 14> H -1.2150146966 -0.4615435721 1.5072943864
| 15> H -1.7849283883 1.1412476093 0.9876038383
| 16> H 0.4591333304 1.2617154613 0.8605324971
| 17> H 0.9915670595 -1.1558923406 0.8360091735
| 18> H 0.5840916451 -1.0539297904 -0.8896774805
| 19> H 2.759509462 0.5774970327 0.5048894965
| 20> H 3.0150728108 -0.7948538405 -0.5772248606
| 21> H 2.3189320685 0.707756817 -1.2000058634
| 22> *
| 23>
| 24>                          ****END OF INPUT****

CARTESIAN COORDINATES (ANGSTROEM)
---------------------------------
  C     -2.100489   -0.408391   -0.460926
  C     -1.275863    0.235324    0.649909
  N      0.042230    0.632677    0.180699
  C      0.955266   -0.477605   -0.038274
  C      2.354115    0.036059   -0.347304
  H     -1.698863   -1.380468   -0.733302
  H     -3.125587   -0.541251   -0.126335
  H     -2.092729    0.231622   -1.338195
  H     -1.215015   -0.461544    1.507294
  H     -1.784928    1.141248    0.987604
  H      0.459133    1.261715    0.860532
  H      0.991567   -1.155892    0.836009
  H      0.584092   -1.053930   -0.889677
  H      2.759509    0.577497    0.504889
  H      3.015073   -0.794854   -0.577225
  H      2.318932    0.707757   -1.200006

 Total Charge           Charge          ....    0
 Multiplicity           Mult            ....    1
 Number of Electrons    NEL             ....   42
 Basis Dimension        Dim             ....   92

ORBITAL ENERGIES
----------------

  NO   OCC          E(Eh)            E(eV)
   0   2.0000     -13.962579      -379.9411
   1   2.0000      -9.904338      -269.5107
   2   2.0000      -9.904187      -269.5066
   3   2.0000      -9.873551      -268.6730
   4   2.0000      -9.868019      -268.5224
   5   2.0000      -0.813573       -22.1385
   6   2.0000      -0.680742       -18.5239
   7   2.0000      -0.636039       -17.3075
   8   2.0000      -0.552150       -15.0248
   9   2.0000      -0.516410       -14.0522
  10   2.0000      -0.435329       -11.8459
  11   2.0000      -0.410038       -11.1577
  12   2.0000      -0.403432       -10.9780
  13   2.0000      -0.377411       -10.2699
  14   2.0000      -0.340755        -9.2724
  15   2.0000      -0.329355        -8.9622
  16   2.0000      -0.317287        -8.6338
  17   2.0000      -0.305365        -8.3094
  18   2.0000      -0.301587        -8.2066
  19   2.0000      -0.284280        -7.7356
  20   2.0000      -0.171872        -4.6769
  21   0.0000       0.036738         0.9997
  22   0.0000       0.060314         1.6412
  23   0.0000       0.061699         1.6789
  24   0.0000       0.082288         2.2392
  25   0.0000       0.111987         3.0473

MULLIKEN ATOMIC CHARGES
-----------------------
   0 C :   -0.287579
   1 C :   -0.084271
   2 N :   -0.359617
   3 C :   -0.092986
   4 C :   -0.279173
   5 H :    0.108064
   6 H :    0.098583
   7 H :    0.104534
   8 H :    0.058322
   9 H :    0.079365
  10 H :    0.196596
  11 H :    0.058171
  12 H :    0.091435
  13 H :    0.096733
  14 H :    0.103166
  15 H :    0.108655
Sum of atomic charges:   -0.0000000

LOEWDIN ATOMIC CHARGES
----------------------
   0 C :   -0.351987
   1 C :   -0.172906
   2 N :   -0.271464
   3 C :   -0.172638
   4 C :   -0.347230
   5 H :    0.116664
   6 H :    0.120618
   7 H :    0.121836
   8 H :    0.086218
   9 H :    0.110170
  10 H :    0.204588
  11 H :    0.085672
  12 H :    0.110274
  13 H :    0.114456
  14 H :    0.122820
  15 H :    0.122909

  Mayer bond orders larger than 0.100000
B(  0-C ,  1-C ) :   1.1581 B(  0-C ,  5-H ) :   0.9512 B(  0-C ,  6-H ) :   0.9492
B(  0-C ,  7-H ) :   0.9485 B(  1-C ,  2-N ) :   1.0865 B(  1-C ,  8-H ) :   0.9090
B(  1-C ,  9-H ) :   0.9362 B(  2-N ,  3-C ) :   1.0540 B(  2-N , 10-H ) :   0.8784
B(  3-C ,  4-C ) :   1.1567 B(  3-C , 11-H ) :   0.9066 B(  3-C , 12-H ) :   0.9247
B(  4-C , 13-H ) :   0.9541 B(  4-C , 14-H ) :   0.9502 B(  4-C , 15-H ) :   0.9493

Dispersion correction           -0.010078003
FINAL SINGLE POINT ENERGY      -213.244082373940

DIPOLE MOMENT
-------------

Method             : SCF
Type of density    : Electron Density
Multiplicity       :   1
Irrep              :   0
Energy             :  -213.3041086295398259 Eh
Relativity type    :
Basis              : AO
                                X                 Y                 Z
Electronic contribution:     -0.099437001       1.313528545       0.476388611
Nuclear contribution   :      0.198358532      -1.373844929      -0.157003500
                        -----------------------------------------
Total Dipole Moment    :      0.098921530      -0.060316384       0.319385111
                        -----------------------------------------
Magnitude (a.u.)       :      0.339750474
Magnitude (Debye)      :      0.863577076

Rotational constants in cm-1:             0.430091             0.081116             0.075178
Rotational constants in MHz :         12893.818244          2431.796579          2253.766219

                             ****ORCA TERMINATED NORMALLY****
TOTAL RUN TIME: 0 days 0 hours 0 minutes 6 seconds 443 msec
