                         Program Version 6.0.0  -   RELEASE  -
|  1> ! pbe def2-sv(p) def2/J RI DEFGRID1 loosescf d4 GCP(DFT/SV(P)) printgap
|  2> %output
|  3>     printlevel normal
|  4> end
|  5> * xyz 0 1
|  6> C -2.2727227962 0.9334930604 -0.6852002969
|  7> C -2.0959317736 -0.3207565597 0.1623589419
|  8> C -0.8105400431 -0.264580261 0.9901435077
|  9> C 0.4158942373 -0.3394147415 0.1184627075
| 10> O 0.5507324479 -1.0609934959 -0.8469413938
| 11> O 1.3686045948 0.4852582169 0.5446109397
| 12> C 2.6056495411 0.4948427449 -0.1725924055
| 13> H -3.2004969659 0.8824688103 -1.2485376883
| 14> H -2.2971165603 1.8206118024 -0.0567163017
| 15> H -1.4498532308 1.0319334171 -1.3906892963
| 16> H -2.0546474991 -1.1971844912 -0.4869081006
| 17> H -2.9457014158 -0.4304792953 0.8363998645
| 18> H -0.7716802927 -1.1228598146 1.6645864371
| 19> H -0.7580016036 0.6476403662 1.5836996988
| 20> H 3.0555825134 -0.4984318393 -0.1536654721
| 21> H 3.2339233744 1.2184906092 0.3366839114
| 22> H 2.4328603112 0.7858882996 -1.2093777928
| 23> *
| 24>
| 25>                          ****END OF INPUT****

CARTESIAN COORDINATES (ANGSTROEM)
---------------------------------
  C     -2.272723    0.933493   -0.685200
  C     -2.095932   -0.320757    0.162359
  C     -0.810540   -0.264580    0.990144
  C      0.415894   -0.339415    0.118463
  O      0.550732   -1.060993   -0.846941
  O      1.368605    0.485258    0.544611
  C      2.605650    0.494843   -0.172592
  H     -3.200497    0.882469   -1.248538
  H     -2.297117    1.820612   -0.056716
  H     -1.449853    1.031933   -1.390689
  H     -2.054647   -1.197184   -0.486908
  H     -2.945701   -0.430479    0.836400
  H     -0.771680   -1.122860    1.664586
  H     -0.758002    0.647640    1.583700
  H      3.055583   -0.498432   -0.153665
  H      3.233923    1.218491    0.336684
  H      2.432860    0.785888   -1.209378

 Total Charge           Charge          ....    0
 Multiplicity           Mult            ....    1
 Number of Electrons    NEL             ....   56
 Basis Dimension        Dim             ....  118

ORBITAL ENERGIES
----------------

  NO   OCC          E(Eh)            E(eV)
   0   2.0000     -18.799822      -511.5692
   1   2.0000     -18.732964      -509.7499
   2   2.0000     -10.005016      -272.2503
   3   2.0000      -9.941955      -270.5343
   4   2.0000      -9.897219      -269.3170
   5   2.0000      -9.889082      -269.0956
   6   2.0000      -9.875452      -268.7247
   7   2.0000      -1.005428       -27.3591
   8   2.0000      -0.909417       -24.7465
   9   2.0000      -0.724254       -19.7080
  10   2.0000      -0.671767       -18.2797
  11   2.0000      -0.619511       -16.8578
  12   2.0000      -0.539331       -14.6759
  13   2.0000      -0.498983       -13.5780
  14   2.0000      -0.450140       -12.2489
  15   2.0000      -0.440503       -11.9867
  16   2.0000      -0.418945       -11.4001
  17   2.0000      -0.403381       -10.9766
  18   2.0000      -0.389480       -10.5983
  19   2.0000      -0.361224        -9.8294
  20   2.0000      -0.356083        -9.6895
  21   2.0000      -0.340815        -9.2740
  22   2.0000      -0.310766        -8.4564
  23   2.0000      -0.298366        -8.1190
  24   2.0000      -0.296678        -8.0730
  25   2.0000      -0.293556        -7.9881
  26   2.0000      -0.258704        -7.0397
  27   2.0000      -0.219153        -5.9634
  28   0.0000      -0.020621        -0.5611
  29   0.0000       0.040204         1.0940
  30   0.0000       0.060349         1.6422
  31   0.0000       0.079266         2.1569
  32   0.0000       0.083092         2.2611

MULLIKEN ATOMIC CHARGES
-----------------------
   0 C :   -0.291555
   1 C :   -0.186258
   2 C :   -0.139259
   3 C :    0.087309
   4 O :   -0.211551
   5 O :   -0.236645
   6 C :   -0.109682
   7 H :    0.107097
   8 H :    0.097499
   9 H :    0.115540
  10 H :    0.107210
  11 H :    0.088390
  12 H :    0.116550
  13 H :    0.096065
  14 H :    0.118727
  15 H :    0.121278
  16 H :    0.119286
Sum of atomic charges:    0.0000000

LOEWDIN ATOMIC CHARGES
----------------------
   0 C :   -0.342541
   1 C :   -0.229337
   2 C :   -0.248798
   3 C :    0.035057
   4 O :   -0.169843
   5 O :   -0.074500
   6 C :   -0.203792
   7 H :    0.121522
   8 H :    0.116212
   9 H :    0.120828
  10 H :    0.125303
  11 H :    0.117629
  12 H :    0.144321
  13 H :    0.128529
  14 H :    0.119474
  15 H :    0.120404
  16 H :    0.119531

  Mayer bond orders larger than 0.100000
B(  0-C ,  1-C ) :   1.1548 B(  0-C ,  7-H ) :   0.9527 B(  0-C ,  8-H ) :   0.9539
B(  0-C ,  9-H ) :   0.9508 B(  1-C ,  2-C ) :   1.1139 B(  1-C , 10-H ) :   0.9171
B(  1-C , 11-H ) :   0.9269 B(  2-C ,  3-C ) :   1.0210 B(  2-C , 12-H ) :   0.8893
B(  2-C , 13-H ) :   0.9112 B(  3-C ,  4-O ) :   2.0450 B(  3-C ,  5-O ) :   1.2225
B(  5-O ,  6-C ) :   0.9400 B(  6-C , 14-H ) :   0.9519 B(  6-C , 15-H ) :   0.9595
B(  6-C , 16-H ) :   0.9522

Dispersion correction           -0.012279672
FINAL SINGLE POINT ENERGY      -346.240897030978

DIPOLE MOMENT
-------------

Method             : SCF
Type of density    : Electron Density
Multiplicity       :   1
Irrep              :   0
Energy             :  -346.3055431990304101 Eh
Relativity type    :
Basis              : AO
                                X                 Y                 Z
Electronic contribution:      4.634526969      -2.493908492       0.551712154
Nuclear contribution   :     -4.432651897       2.935505787      -0.121307426
                        -----------------------------------------
Total Dipole Moment    :      0.201875072       0.441597295       0.430404729
                        -----------------------------------------
Magnitude (a.u.)       :      0.648852792
Magnitude (Debye)      :      1.649252730

Rotational constants in cm-1:             0.176815             0.048991             0.048246
Rotational constants in MHz :          5300.790773          1468.701822          1446.388989

                             ****ORCA TERMINATED NORMALLY****
TOTAL RUN TIME: 0 days 0 hours 0 minutes 10 seconds 355 msec
