                         Program Version 6.0.0  -   RELEASE  -
|  1> ! r2scan-3c def2/J RI DEFGRID2 scfconv6 printgap
|  2> %output
|  3>     printlevel normal
|  4> end
|  5> * xyz 0 1
|  6> C -3.2569141644 0.4678806305 0.0913947789
|  7> C -1.9487368912 -0.2166412523 -0.2829739357
|  8> C -0.7471174866 0.5209087381 0.3012216991
|  9> C 0.5578104229 -0.1383057976 -0.0549391637
| 10> O 0.6849619461 -1.1402751381 -0.7253177652
| 11> O 1.5914404076 0.5220021369 0.4643659332
| 12> C 2.9002036419 0.0064856726 0.2059707655
| 13> H -4.0990061296 -0.0714338505 -0.3331243428
| 14> H -3.3761371678 0.4974220995 1.1715377472
| 15> H -3.2753072426 1.4872336655 -0.285930714
| 16> H -1.8463647593 -0.2600394958 -1.3687807783
| 17> H -1.9467905533 -1.2453580489 0.0818318637
| 18> H -0.8111913743 0.5649377776 1.3902778274
| 19> H -0.7099211159 1.5500426311 -0.0615043861
| 20> H 3.584866426 0.6844353349 0.7053499263
| 21> H 3.085802414 -0.0186805829 -0.868419572
| 22> H 2.9880808667 -1.0047937293 0.6046941625
| 23> *
| 24>
| 25>                          ****END OF INPUT****

CARTESIAN COORDINATES (ANGSTROEM)
---------------------------------
  C     -3.256914    0.467881    0.091395
  C     -1.948737   -0.216641   -0.282974
  C     -0.747117    0.520909    0.301222
  C      0.557810   -0.138306   -0.054939
  O      0.684962   -1.140275   -0.725318
  O      1.591440    0.522002    0.464366
  C      2.900204    0.006486    0.205971
  H     -4.099006   -0.071434   -0.333124
  H     -3.376137    0.497422    1.171538
  H     -3.275307    1.487234   -0.285931
  H     -1.846365   -0.260039   -1.368781
  H     -1.946791   -1.245358    0.081832
  H     -0.811191    0.564938    1.390278
  H     -0.709921    1.550043   -0.061504
  H      3.584866    0.684435    0.705350
  H      3.085802   -0.018681   -0.868420
  H      2.988081   -1.004794    0.604694

 Total Charge           Charge          ....    0
 Multiplicity           Mult            ....    1
 Number of Electrons    NEL             ....   56
 Basis Dimension        Dim             ....  193

ORBITAL ENERGIES
----------------

  NO   OCC          E(Eh)            E(eV)
   0   2.0000     -18.997699      -516.9537
   1   2.0000     -18.931252      -515.1456
   2   2.0000     -10.153027      -276.2779
   3   2.0000     -10.086420      -274.4654
   4   2.0000     -10.043600      -273.3003
   5   2.0000     -10.029470      -272.9158
   6   2.0000     -10.019950      -272.6567
   7   2.0000      -1.072311       -29.1791
   8   2.0000      -0.977199       -26.5909
   9   2.0000      -0.770264       -20.9599
  10   2.0000      -0.713308       -19.4101
  11   2.0000      -0.660130       -17.9630
  12   2.0000      -0.569916       -15.5082
  13   2.0000      -0.526726       -14.3329
  14   2.0000      -0.470948       -12.8151
  15   2.0000      -0.464271       -12.6335
  16   2.0000      -0.439598       -11.9621
  17   2.0000      -0.432144       -11.7592
  18   2.0000      -0.396564       -10.7911
  19   2.0000      -0.381849       -10.3906
  20   2.0000      -0.381351       -10.3771
  21   2.0000      -0.338879        -9.2214
  22   2.0000      -0.333858        -9.0848
  23   2.0000      -0.316043        -8.6000
  24   2.0000      -0.312653        -8.5077
  25   2.0000      -0.304593        -8.2884
  26   2.0000      -0.273848        -7.4518
  27   2.0000      -0.238326        -6.4852
  28   0.0000      -0.014133        -0.3846
  29   0.0000       0.068951         1.8763
  30   0.0000       0.086059         2.3418
  31   0.0000       0.106268         2.8917
  32   0.0000       0.126881         3.4526

MULLIKEN ATOMIC CHARGES
-----------------------
   0 C :   -0.464023
   1 C :   -0.231058
   2 C :   -0.285287
   3 C :    0.358095
   4 O :   -0.420093
   5 O :   -0.183648
   6 C :   -0.295527
   7 H :    0.150673
   8 H :    0.140031
   9 H :    0.140017
  10 H :    0.149362
  11 H :    0.149457
  12 H :    0.160119
  13 H :    0.160194
  14 H :    0.150674
  15 H :    0.160698
  16 H :    0.160317
Sum of atomic charges:    0.0000000

LOEWDIN ATOMIC CHARGES
----------------------
   0 C :   -0.421801
   1 C :   -0.296872
   2 C :   -0.232844
   3 C :    0.358425
   4 O :   -0.425206
   5 O :   -0.604722
   6 C :   -0.045418
   7 H :    0.152776
   8 H :    0.149637
   9 H :    0.149637
  10 H :    0.162257
  11 H :    0.162292
  12 H :    0.181784
  13 H :    0.181787
  14 H :    0.175971
  15 H :    0.176248
  16 H :    0.176049

  Mayer bond orders larger than 0.100000
B(  0-C ,  1-C ) :   0.8776 B(  0-C ,  7-H ) :   0.9759 B(  0-C ,  8-H ) :   0.9826
B(  0-C ,  9-H ) :   0.9825 B(  1-C ,  2-C ) :   0.9688 B(  1-C , 10-H ) :   0.9636
B(  1-C , 11-H ) :   0.9637 B(  2-C ,  3-C ) :   1.0059 B(  2-C , 12-H ) :   0.9443
B(  2-C , 13-H ) :   0.9444 B(  3-C ,  4-O ) :   1.8250 B(  3-C ,  5-O ) :   1.0773
B(  5-O ,  6-C ) :   0.8496 B(  6-C , 14-H ) :   0.9697 B(  6-C , 15-H ) :   0.9634
B(  6-C , 16-H ) :   0.9632

Dispersion correction           -0.003890421
FINAL SINGLE POINT ENERGY      -346.932706142577

DIPOLE MOMENT
-------------

Method             : SCF
Type of density    : Electron Density
Multiplicity       :   1
Irrep              :   0
Energy             :  -346.9394346153841298 Eh
Relativity type    :
Basis              : AO
                                X                 Y                 Z
Electronic contribution:      6.131933124      -1.476823144      -0.575860853
Nuclear contribution   :     -5.976119370       2.039570838       0.968008263
                        -----------------------------------------
Total Dipole Moment    :      0.155813755       0.562747694       0.392147411
                        -----------------------------------------
Magnitude (a.u.)       :      0.703379332
Magnitude (Debye)      :      1.787848180

Rotational constants in cm-1:             0.280768             0.040159             0.036076
Rotational constants in MHz :          8417.207250          1203.926623          1081.539298

                             ****ORCA TERMINATED NORMALLY****
TOTAL RUN TIME: 0 days 0 hours 0 minutes 22 seconds 10 msec
