                         Program Version 6.0.0  -   RELEASE  -
|  1> ! r2scan-3c def2/J RI DEFGRID2 scfconv6 printgap
|  2> %output
|  3>     printlevel normal
|  4> end
|  5> %cpcm
|  6>     smd true
|  7>     smdsolvent "water"
|  8> end
|  9> * xyz 0 1
| 10> C -3.2569141644 0.4678806305 0.0913947789
| 11> C -1.9487368912 -0.2166412523 -0.2829739357
| 12> C -0.7471174866 0.5209087381 0.3012216991
| 13> C 0.5578104229 -0.1383057976 -0.0549391637
| 14> O 0.6849619461 -1.1402751381 -0.7253177652
| 15> O 1.5914404076 0.5220021369 0.4643659332
| 16> C 2.9002036419 0.0064856726 0.2059707655
| 17> H -4.0990061296 -0.0714338505 -0.3331243428
| 18> H -3.3761371678 0.4974220995 1.1715377472
| 19> H -3.2753072426 1.4872336655 -0.285930714
| 20> H -1.8463647593 -0.2600394958 -1.3687807783
| 21> H -1.9467905533 -1.2453580489 0.0818318637
| 22> H -0.8111913743 0.5649377776 1.3902778274
| 23> H -0.7099211159 1.5500426311 -0.0615043861
| 24> H 3.584866426 0.6844353349 0.7053499263
| 25> H 3.085802414 -0.0186805829 -0.868419572
| 26> H 2.9880808667 -1.0047937293 0.6046941625
| 27> *
| 28>
| 29>                          ****END OF INPUT****

CARTESIAN COORDINATES (ANGSTROEM)
---------------------------------
  C     -3.256914    0.467881    0.091395
  C     -1.948737   -0.216641   -0.282974
  C     -0.747117    0.520909    0.301222
  C      0.557810   -0.138306   -0.054939
  O      0.684962   -1.140275   -0.725318
  O      1.591440    0.522002    0.464366
  C      2.900204    0.006486    0.205971
  H     -4.099006   -0.071434   -0.333124
  H     -3.376137    0.497422    1.171538
  H     -3.275307    1.487234   -0.285931
  H     -1.846365   -0.260039   -1.368781
  H     -1.946791   -1.245358    0.081832
  H     -0.811191    0.564938    1.390278
  H     -0.709921    1.550043   -0.061504
  H      3.584866    0.684435    0.705350
  H      3.085802   -0.018681   -0.868420
  H      2.988081   -1.004794    0.604694

 Total Charge           Charge          ....    0
 Multiplicity           Mult            ....    1
 Number of Electrons    NEL             ....   56
 Basis Dimension        Dim             ....  193

ORBITAL ENERGIES
----------------

  NO   OCC          E(Eh)            E(eV)
   0   2.0000     -19.002618      -517.0875
   1   2.0000     -18.945771      -515.5406
   2   2.0000     -10.162390      -276.5327
   3   2.0000     -10.076160      -274.1863
   4   2.0000     -10.036146      -273.0974
   5   2.0000     -10.024137      -272.7706
   6   2.0000     -10.010644      -272.4035
   7   2.0000      -1.078794       -29.3555
   8   2.0000      -0.989542       -26.9268
   9   2.0000      -0.764824       -20.8119
  10   2.0000      -0.708450       -19.2779
  11   2.0000      -0.652775       -17.7629
  12   2.0000      -0.563990       -15.3469
  13   2.0000      -0.524994       -14.2858
  14   2.0000      -0.471515       -12.8306
  15   2.0000      -0.462657       -12.5895
  16   2.0000      -0.452103       -12.3023
  17   2.0000      -0.424895       -11.5620
  18   2.0000      -0.392870       -10.6905
  19   2.0000      -0.376694       -10.2504
  20   2.0000      -0.375674       -10.2226
  21   2.0000      -0.337738        -9.1903
  22   2.0000      -0.330990        -9.0067
  23   2.0000      -0.314867        -8.5680
  24   2.0000      -0.306181        -8.3316
  25   2.0000      -0.298758        -8.1296
  26   2.0000      -0.278789        -7.5862
  27   2.0000      -0.254032        -6.9126
  28   0.0000      -0.021077        -0.5735
  29   0.0000       0.073909         2.0112
  30   0.0000       0.093631         2.5478
  31   0.0000       0.116283         3.1642
  32   0.0000       0.137816         3.7502

MULLIKEN ATOMIC CHARGES
-----------------------
   0 C :   -0.514331
   1 C :   -0.251280
   2 C :   -0.286726
   3 C :    0.400208
   4 O :   -0.504332
   5 O :   -0.200931
   6 C :   -0.330785
   7 H :    0.160159
   8 H :    0.156084
   9 H :    0.156008
  10 H :    0.154064
  11 H :    0.154169
  12 H :    0.187384
  13 H :    0.187422
  14 H :    0.178329
  15 H :    0.177288
  16 H :    0.177272
Sum of atomic charges:    0.0000000

LOEWDIN ATOMIC CHARGES
----------------------
   0 C :   -0.426772
   1 C :   -0.300091
   2 C :   -0.229664
   3 C :    0.370913
   4 O :   -0.486082
   5 O :   -0.608039
   6 C :   -0.043490
   7 H :    0.154936
   8 H :    0.154456
   9 H :    0.154440
  10 H :    0.160862
  11 H :    0.160907
  12 H :    0.193177
  13 H :    0.193168
  14 H :    0.188016
  15 H :    0.181675
  16 H :    0.181588

  Mayer bond orders larger than 0.100000
B(  0-C ,  1-C ) :   0.8797 B(  0-C ,  7-H ) :   0.9728 B(  0-C ,  8-H ) :   0.9801
B(  0-C ,  9-H ) :   0.9801 B(  1-C ,  2-C ) :   0.9430 B(  1-C , 10-H ) :   0.9659
B(  1-C , 11-H ) :   0.9660 B(  2-C ,  3-C ) :   1.0145 B(  2-C , 12-H ) :   0.9308
B(  2-C , 13-H ) :   0.9309 B(  3-C ,  4-O ) :   1.7651 B(  3-C ,  5-O ) :   1.1006
B(  5-O ,  6-C ) :   0.8295 B(  6-C , 14-H ) :   0.9596 B(  6-C , 15-H ) :   0.9581
B(  6-C , 16-H ) :   0.9579

Dispersion correction           -0.003890421
FINAL SINGLE POINT ENERGY      -346.937872963461

DIPOLE MOMENT
-------------

Method             : SCF
Type of density    : Electron Density
Multiplicity       :   1
Irrep              :   0
Energy             :  -346.9446014362679307 Eh
Relativity type    :
Basis              : AO
                                X                 Y                 Z
Electronic contribution:      6.169796524      -1.173356170      -0.367062958
Nuclear contribution   :     -5.976119370       2.039570838       0.968008263
                        -----------------------------------------
Total Dipole Moment    :      0.193677155       0.866214668       0.600945305
                        -----------------------------------------
Magnitude (a.u.)       :      1.071902025
Magnitude (Debye)      :      2.724558423

Rotational constants in cm-1:             0.280768             0.040159             0.036076
Rotational constants in MHz :          8417.207250          1203.926623          1081.539298

                             ****ORCA TERMINATED NORMALLY****
TOTAL RUN TIME: 0 days 0 hours 0 minutes 29 seconds 457 msec
