                         Program Version 6.0.0  -   RELEASE  -
|  1> ! r2scan-3c def2/J RI DEFGRID2 scfconv6 printgap
|  2> %output
|  3>     printlevel normal
|  4> end
|  5> * xyz 0 1
|  6> C -3.0786917312 0.0318925231 -0.7115067434
|  7> C -1.5611637005 0.103352387 -0.5773739061
|  8> C -1.1149127085 -0.3009696634 0.8246317822
|  9> C 0.3969526777 -0.3011654594 1.0853739225
| 10> C 1.1897425627 -1.2532269554 0.1792575124
| 11> C 1.7248495778 -0.4155689487 -0.9906074142
| 12> C 1.6170502164 1.0582198735 -0.564309295
| 13> C 1.074454982 1.0583936271 0.8699880908
| 14> H -3.4320424182 -0.9800010824 -0.5243364209
| 15> H -3.5572442126 0.6974190196 0.0039661675
| 16> H -3.3883259496 0.3239645746 -1.712205693
| 17> H -1.1079740235 -0.5590945235 -1.3150521564
| 18> H -1.2351685526 1.1217674476 -0.7894845251
| 19> H -1.5824317687 0.3745460662 1.5467434243
| 20> H -1.4920899602 -1.3063749434 1.032924806
| 21> H 0.5181480448 -0.6071022967 2.1300004605
| 22> H 2.0254635784 -1.6679374022 0.7444966539
| 23> H 0.5765043777 -2.0857022611 -0.1629877488
| 24> H 2.756312029 -0.68624562 -1.2148036365
| 25> H 1.1411069632 -0.5922314625 -1.8933430962
| 26> H 2.5850469168 1.556415108 -0.6107445563
| 27> H 0.9441013287 1.5956924792 -1.2312174312
| 28> H 1.9023591617 1.1572745984 1.5735815005
| 29> H 0.3874949109 1.8848959364 1.046614069
| 30> *
| 31>
| 32>                          ****END OF INPUT****

CARTESIAN COORDINATES (ANGSTROEM)
---------------------------------
  C     -3.078692    0.031893   -0.711507
  C     -1.561164    0.103352   -0.577374
  C     -1.114913   -0.300970    0.824632
  C      0.396953   -0.301165    1.085374
  C      1.189743   -1.253227    0.179258
  C      1.724850   -0.415569   -0.990607
  C      1.617050    1.058220   -0.564309
  C      1.074455    1.058394    0.869988
  H     -3.432042   -0.980001   -0.524336
  H     -3.557244    0.697419    0.003966
  H     -3.388326    0.323965   -1.712206
  H     -1.107974   -0.559095   -1.315052
  H     -1.235169    1.121767   -0.789485
  H     -1.582432    0.374546    1.546743
  H     -1.492090   -1.306375    1.032925
  H      0.518148   -0.607102    2.130000
  H      2.025464   -1.667937    0.744497
  H      0.576504   -2.085702   -0.162988
  H      2.756312   -0.686246   -1.214804
  H      1.141107   -0.592231   -1.893343
  H      2.585047    1.556415   -0.610745
  H      0.944101    1.595692   -1.231217
  H      1.902359    1.157275    1.573582
  H      0.387495    1.884896    1.046614

 Total Charge           Charge          ....    0
 Multiplicity           Mult            ....    1
 Number of Electrons    NEL             ....   64
 Basis Dimension        Dim             ....  232

ORBITAL ENERGIES
----------------

  NO   OCC          E(Eh)            E(eV)
   0   2.0000     -10.023945      -272.7654
   1   2.0000     -10.020776      -272.6792
   2   2.0000     -10.018125      -272.6070
   3   2.0000     -10.016914      -272.5741
   4   2.0000     -10.016693      -272.5681
   5   2.0000     -10.016370      -272.5593
   6   2.0000     -10.016298      -272.5573
   7   2.0000     -10.013809      -272.4896
   8   2.0000      -0.802520       -21.8377
   9   2.0000      -0.745817       -20.2947
  10   2.0000      -0.688359       -18.7312
  11   2.0000      -0.672096       -18.2887
  12   2.0000      -0.623541       -16.9674
  13   2.0000      -0.557428       -15.1684
  14   2.0000      -0.525908       -14.3107
  15   2.0000      -0.501239       -13.6394
  16   2.0000      -0.449317       -12.2265
  17   2.0000      -0.439100       -11.9485
  18   2.0000      -0.434021       -11.8103
  19   2.0000      -0.386315       -10.5122
  20   2.0000      -0.380358       -10.3501
  21   2.0000      -0.372125       -10.1260
  22   2.0000      -0.349232        -9.5031
  23   2.0000      -0.333197        -9.0667
  24   2.0000      -0.317373        -8.6362
  25   2.0000      -0.307782        -8.3752
  26   2.0000      -0.303598        -8.2613
  27   2.0000      -0.298210        -8.1147
  28   2.0000      -0.287380        -7.8200
  29   2.0000      -0.277609        -7.5541
  30   2.0000      -0.267652        -7.2832
  31   2.0000      -0.267073        -7.2674
  32   0.0000       0.071936         1.9575
  33   0.0000       0.086833         2.3629
  34   0.0000       0.111379         3.0308
  35   0.0000       0.113821         3.0972
  36   0.0000       0.126614         3.4453

MULLIKEN ATOMIC CHARGES
-----------------------
   0 C :   -0.489926
   1 C :   -0.258193
   2 C :   -0.400010
   3 C :    0.128487
   4 C :   -0.425129
   5 C :   -0.289144
   6 C :   -0.279218
   7 C :   -0.418392
   8 H :    0.143978
   9 H :    0.143519
  10 H :    0.145093
  11 H :    0.149062
  12 H :    0.148612
  13 H :    0.152791
  14 H :    0.151662
  15 H :    0.153150
  16 H :    0.156332
  17 H :    0.158269
  18 H :    0.152524
  19 H :    0.155020
  20 H :    0.153744
  21 H :    0.154486
  22 H :    0.155841
  23 H :    0.157442
Sum of atomic charges:   -0.0000000

LOEWDIN ATOMIC CHARGES
----------------------
   0 C :   -0.423828
   1 C :   -0.311454
   2 C :   -0.299131
   3 C :   -0.227730
   4 C :   -0.301343
   5 C :   -0.310163
   6 C :   -0.309648
   7 C :   -0.300523
   8 H :    0.149957
   9 H :    0.150118
  10 H :    0.149416
  11 H :    0.154408
  12 H :    0.153808
  13 H :    0.156175
  14 H :    0.156186
  15 H :    0.160567
  16 H :    0.158265
  17 H :    0.159708
  18 H :    0.154687
  19 H :    0.154052
  20 H :    0.154561
  21 H :    0.153843
  22 H :    0.158261
  23 H :    0.159809

  Mayer bond orders larger than 0.100000
B(  0-C ,  1-C ) :   0.9095 B(  0-C ,  8-H ) :   0.9866 B(  0-C ,  9-H ) :   0.9857
B(  0-C , 10-H ) :   0.9744 B(  1-C ,  2-C ) :   0.8610 B(  1-C , 11-H ) :   0.9646
B(  1-C , 12-H ) :   0.9646 B(  2-C ,  3-C ) :   0.9012 B(  2-C , 13-H ) :   0.9937
B(  2-C , 14-H ) :   0.9927 B(  3-C ,  4-C ) :   0.8594 B(  3-C ,  7-C ) :   0.8606
B(  3-C , 15-H ) :   0.9600 B(  4-C ,  5-C ) :   0.8937 B(  4-C , 16-H ) :   0.9702
B(  4-C , 17-H ) :   0.9842 B(  5-C ,  6-C ) :   0.8942 B(  5-C , 18-H ) :   0.9610
B(  5-C , 19-H ) :   1.0004 B(  6-C ,  7-C ) :   0.8924 B(  6-C , 20-H ) :   0.9574
B(  6-C , 21-H ) :   0.9986 B(  7-C , 22-H ) :   0.9711 B(  7-C , 23-H ) :   0.9814

Dispersion correction           -0.007297610
FINAL SINGLE POINT ENERGY      -314.378627086652

DIPOLE MOMENT
-------------

Method             : SCF
Type of density    : Electron Density
Multiplicity       :   1
Irrep              :   0
Energy             :  -314.3817353759453681 Eh
Relativity type    :
Basis              : AO
                                X                 Y                 Z
Electronic contribution:      2.795748310      -0.218342312       1.316286896
Nuclear contribution   :     -2.775780112       0.213230985      -1.290769913
                        -----------------------------------------
Total Dipole Moment    :      0.019968197      -0.005111327       0.025516982
                        -----------------------------------------
Magnitude (a.u.)       :      0.032801996
Magnitude (Debye)      :      0.083376048

Rotational constants in cm-1:             0.109218             0.042067             0.041088
Rotational constants in MHz :          3274.261851          1261.136478          1231.784729

                             ****ORCA TERMINATED NORMALLY****
TOTAL RUN TIME: 0 days 0 hours 0 minutes 25 seconds 562 msec
