                         Program Version 6.0.0  -   RELEASE  -
|  1> ! r2scan-3c def2/J RI DEFGRID2 scfconv6 printgap
|  2> %output
|  3>     printlevel normal
|  4> end
|  5> %cpcm
|  6>     smd true
|  7>     smdsolvent "water"
|  8> end
|  9> * xyz 0 1
| 10> C -3.0786917312 0.0318925231 -0.7115067434
| 11> C -1.5611637005 0.103352387 -0.5773739061
| 12> C -1.1149127085 -0.3009696634 0.8246317822
| 13> C 0.3969526777 -0.3011654594 1.0853739225
| 14> C 1.1897425627 -1.2532269554 0.1792575124
| 15> C 1.7248495778 -0.4155689487 -0.9906074142
| 16> C 1.6170502164 1.0582198735 -0.564309295
| 17> C 1.074454982 1.0583936271 0.8699880908
| 18> H -3.4320424182 -0.9800010824 -0.5243364209
| 19> H -3.5572442126 0.6974190196 0.0039661675
| 20> H -3.3883259496 0.3239645746 -1.712205693
| 21> H -1.1079740235 -0.5590945235 -1.3150521564
| 22> H -1.2351685526 1.1217674476 -0.7894845251
| 23> H -1.5824317687 0.3745460662 1.5467434243
| 24> H -1.4920899602 -1.3063749434 1.032924806
| 25> H 0.5181480448 -0.6071022967 2.1300004605
| 26> H 2.0254635784 -1.6679374022 0.7444966539
| 27> H 0.5765043777 -2.0857022611 -0.1629877488
| 28> H 2.756312029 -0.68624562 -1.2148036365
| 29> H 1.1411069632 -0.5922314625 -1.8933430962
| 30> H 2.5850469168 1.556415108 -0.6107445563
| 31> H 0.9441013287 1.5956924792 -1.2312174312
| 32> H 1.9023591617 1.1572745984 1.5735815005
| 33> H 0.3874949109 1.8848959364 1.046614069
| 34> *
| 35>
| 36>                          ****END OF INPUT****

CARTESIAN COORDINATES (ANGSTROEM)
---------------------------------
  C     -3.078692    0.031893   -0.711507
  C     -1.561164    0.103352   -0.577374
  C     -1.114913   -0.300970    0.824632
  C      0.396953   -0.301165    1.085374
  C      1.189743   -1.253227    0.179258
  C      1.724850   -0.415569   -0.990607
  C      1.617050    1.058220   -0.564309
  C      1.074455    1.058394    0.869988
  H     -3.432042   -0.980001   -0.524336
  H     -3.557244    0.697419    0.003966
  H     -3.388326    0.323965   -1.712206
  H     -1.107974   -0.559095   -1.315052
  H     -1.235169    1.121767   -0.789485
  H     -1.582432    0.374546    1.546743
  H     -1.492090   -1.306375    1.032925
  H      0.518148   -0.607102    2.130000
  H      2.025464   -1.667937    0.744497
  H      0.576504   -2.085702   -0.162988
  H      2.756312   -0.686246   -1.214804
  H      1.141107   -0.592231   -1.893343
  H      2.585047    1.556415   -0.610745
  H      0.944101    1.595692   -1.231217
  H      1.902359    1.157275    1.573582
  H      0.387495    1.884896    1.046614

 Total Charge           Charge          ....    0
 Multiplicity           Mult            ....    1
 Number of Electrons    NEL             ....   64
 Basis Dimension        Dim             ....  232

ORBITAL ENERGIES
----------------

  NO   OCC          E(Eh)            E(eV)
   0   2.0000     -10.016956      -272.5752
   1   2.0000     -10.012541      -272.4551
   2   2.0000     -10.010385      -272.3964
   3   2.0000     -10.010211      -272.3917
   4   2.0000     -10.010007      -272.3861
   5   2.0000     -10.009281      -272.3664
   6   2.0000     -10.009183      -272.3637
   7   2.0000     -10.006662      -272.2951
   8   2.0000      -0.795580       -21.6488
   9   2.0000      -0.738541       -20.0967
  10   2.0000      -0.681654       -18.5487
  11   2.0000      -0.665478       -18.1086
  12   2.0000      -0.616784       -16.7836
  13   2.0000      -0.550265       -14.9735
  14   2.0000      -0.519572       -14.1383
  15   2.0000      -0.494356       -13.4521
  16   2.0000      -0.442233       -12.0338
  17   2.0000      -0.432413       -11.7666
  18   2.0000      -0.426102       -11.5948
  19   2.0000      -0.379393       -10.3238
  20   2.0000      -0.373116       -10.1530
  21   2.0000      -0.365192        -9.9374
  22   2.0000      -0.341915        -9.3040
  23   2.0000      -0.326026        -8.8716
  24   2.0000      -0.310394        -8.4463
  25   2.0000      -0.300193        -8.1687
  26   2.0000      -0.297248        -8.0885
  27   2.0000      -0.291652        -7.9363
  28   2.0000      -0.280098        -7.6219
  29   2.0000      -0.270475        -7.3600
  30   2.0000      -0.260296        -7.0830
  31   2.0000      -0.259732        -7.0677
  32   0.0000       0.080543         2.1917
  33   0.0000       0.094686         2.5765
  34   0.0000       0.117771         3.2047
  35   0.0000       0.120543         3.2801
  36   0.0000       0.131160         3.5690

MULLIKEN ATOMIC CHARGES
-----------------------
   0 C :   -0.532403
   1 C :   -0.267210
   2 C :   -0.405423
   3 C :    0.114938
   4 C :   -0.438924
   5 C :   -0.308485
   6 C :   -0.299747
   7 C :   -0.432288
   8 H :    0.154949
   9 H :    0.154367
  10 H :    0.154442
  11 H :    0.158872
  12 H :    0.158963
  13 H :    0.159469
  14 H :    0.158302
  15 H :    0.159763
  16 H :    0.164504
  17 H :    0.166446
  18 H :    0.160092
  19 H :    0.164392
  20 H :    0.161203
  21 H :    0.164095
  22 H :    0.164064
  23 H :    0.165621
Sum of atomic charges:    0.0000000

LOEWDIN ATOMIC CHARGES
----------------------
   0 C :   -0.433076
   1 C :   -0.313269
   2 C :   -0.301952
   3 C :   -0.228038
   4 C :   -0.305110
   5 C :   -0.314707
   6 C :   -0.314177
   7 C :   -0.304323
   8 H :    0.152101
   9 H :    0.152225
  10 H :    0.151443
  11 H :    0.157021
  12 H :    0.156548
  13 H :    0.157517
  14 H :    0.157552
  15 H :    0.162053
  16 H :    0.159946
  17 H :    0.161928
  18 H :    0.156131
  19 H :    0.156229
  20 H :    0.156015
  21 H :    0.155968
  22 H :    0.159978
  23 H :    0.161996

  Mayer bond orders larger than 0.100000
B(  0-C ,  1-C ) :   0.8980 B(  0-C ,  8-H ) :   0.9845 B(  0-C ,  9-H ) :   0.9837
B(  0-C , 10-H ) :   0.9718 B(  1-C ,  2-C ) :   0.8556 B(  1-C , 11-H ) :   0.9639
B(  1-C , 12-H ) :   0.9639 B(  2-C ,  3-C ) :   0.9022 B(  2-C , 13-H ) :   0.9916
B(  2-C , 14-H ) :   0.9905 B(  3-C ,  4-C ) :   0.8619 B(  3-C ,  7-C ) :   0.8628
B(  3-C , 15-H ) :   0.9622 B(  4-C ,  5-C ) :   0.8891 B(  4-C , 16-H ) :   0.9701
B(  4-C , 17-H ) :   0.9821 B(  5-C ,  6-C ) :   0.8949 B(  5-C , 18-H ) :   0.9605
B(  5-C , 19-H ) :   0.9982 B(  6-C ,  7-C ) :   0.8878 B(  6-C , 20-H ) :   0.9566
B(  6-C , 21-H ) :   0.9971 B(  7-C , 22-H ) :   0.9709 B(  7-C , 23-H ) :   0.9795

Dispersion correction           -0.007297610
FINAL SINGLE POINT ENERGY      -314.376002739511

DIPOLE MOMENT
-------------

Method             : SCF
Type of density    : Electron Density
Multiplicity       :   1
Irrep              :   0
Energy             :  -314.3791110288044024 Eh
Relativity type    :
Basis              : AO
                                X                 Y                 Z
Electronic contribution:      2.798464294      -0.218901405       1.319618653
Nuclear contribution   :     -2.775780112       0.213230985      -1.290769913
                        -----------------------------------------
Total Dipole Moment    :      0.022684181      -0.005670420       0.028848740
                        -----------------------------------------
Magnitude (a.u.)       :      0.037134560
Magnitude (Debye)      :      0.094388551

Rotational constants in cm-1:             0.109218             0.042067             0.041088
Rotational constants in MHz :          3274.261851          1261.136478          1231.784729

                             ****ORCA TERMINATED NORMALLY****
TOTAL RUN TIME: 0 days 0 hours 0 minutes 30 seconds 880 msec
