                         Program Version 6.0.0  -   RELEASE  -
|  1> ! pbe def2-sv(p) def2/J RI DEFGRID1 loosescf d4 GCP(DFT/SV(P)) printgap
|  2> %output
|  3>     printlevel normal
|  4> end
|  5> * xyz 0 1
|  6> C -1.2446124561 0.241090126 -0.2575067672
|  7> C 0.1264383008 0.6661543636 0.292537171
|  8> C 1.2508307614 -0.2090086971 -0.2963523981
|  9> O 1.125984776 -1.5677543646 0.0582045284
| 10> O 0.305235872 2.0203493168 -0.0551026397
| 11> O -1.6460578725 -1.0275238534 0.1911382373
| 12> H -1.212721409 0.2831569446 -1.3545697356
| 13> H -1.9986061673 0.9507202651 0.0912242846
| 14> H 0.1042975508 0.5467348006 1.3877595864
| 15> H 2.2263346729 0.1857735071 0.0137060394
| 16> H 1.1966448954 -0.1711801814 -1.3875997135
| 17> H 1.3382802308 -1.6784865833 0.9957784323
| 18> H 1.1266135763 2.3544463435 0.333041146
| 19> H -0.9514061674 -1.6653691301 -0.0486407854
| 20> *
| 21>
| 22>                          ****END OF INPUT****

CARTESIAN COORDINATES (ANGSTROEM)
---------------------------------
  C     -1.244612    0.241090   -0.257507
  C      0.126438    0.666154    0.292537
  C      1.250831   -0.209009   -0.296352
  O      1.125985   -1.567754    0.058205
  O      0.305236    2.020349   -0.055103
  O     -1.646058   -1.027524    0.191138
  H     -1.212721    0.283157   -1.354570
  H     -1.998606    0.950720    0.091224
  H      0.104298    0.546735    1.387760
  H      2.226335    0.185774    0.013706
  H      1.196645   -0.171180   -1.387600
  H      1.338280   -1.678487    0.995778
  H      1.126614    2.354446    0.333041
  H     -0.951406   -1.665369   -0.048641

 Total Charge           Charge          ....    0
 Multiplicity           Mult            ....    1
 Number of Electrons    NEL             ....   50
 Basis Dimension        Dim             ....  100

ORBITAL ENERGIES
----------------

  NO   OCC          E(Eh)            E(eV)
   0   2.0000     -18.773566      -510.8547
   1   2.0000     -18.757034      -510.4049
   2   2.0000     -18.729515      -509.6560
   3   2.0000      -9.943310      -270.5712
   4   2.0000      -9.940581      -270.4970
   5   2.0000      -9.921817      -269.9864
   6   2.0000      -0.950151       -25.8549
   7   2.0000      -0.931375       -25.3440
   8   2.0000      -0.905479       -24.6393
   9   2.0000      -0.679396       -18.4873
  10   2.0000      -0.611286       -16.6339
  11   2.0000      -0.543153       -14.7799
  12   2.0000      -0.490364       -13.3435
  13   2.0000      -0.470708       -12.8086
  14   2.0000      -0.450179       -12.2500
  15   2.0000      -0.403717       -10.9857
  16   2.0000      -0.385800       -10.4982
  17   2.0000      -0.368245       -10.0205
  18   2.0000      -0.350216        -9.5299
  19   2.0000      -0.310130        -8.4391
  20   2.0000      -0.295356        -8.0371
  21   2.0000      -0.281811        -7.6685
  22   2.0000      -0.243564        -6.6277
  23   2.0000      -0.220260        -5.9936
  24   2.0000      -0.201694        -5.4884
  25   0.0000       0.008744         0.2379
  26   0.0000       0.014156         0.3852
  27   0.0000       0.060827         1.6552
  28   0.0000       0.085136         2.3167
  29   0.0000       0.092735         2.5235

MULLIKEN ATOMIC CHARGES
-----------------------
   0 C :    0.053870
   1 C :   -0.041749
   2 C :    0.005403
   3 O :   -0.432709
   4 O :   -0.417998
   5 O :   -0.450700
   6 H :    0.068452
   7 H :    0.093671
   8 H :    0.055207
   9 H :    0.071890
  10 H :    0.095587
  11 H :    0.306965
  12 H :    0.299506
  13 H :    0.292605
Sum of atomic charges:    0.0000000

LOEWDIN ATOMIC CHARGES
----------------------
   0 C :   -0.121679
   1 C :   -0.102745
   2 C :   -0.143478
   3 O :   -0.322436
   4 O :   -0.320476
   5 O :   -0.346477
   6 H :    0.096014
   7 H :    0.115368
   8 H :    0.091949
   9 H :    0.093751
  10 H :    0.118196
  11 H :    0.289381
  12 H :    0.285153
  13 H :    0.267479

  Mayer bond orders larger than 0.100000
B(  0-C ,  1-C ) :   1.0307 B(  0-C ,  5-O ) :   1.0908 B(  0-C ,  6-H ) :   0.9148
B(  0-C ,  7-H ) :   0.9256 B(  1-C ,  2-C ) :   1.0140 B(  1-C ,  4-O ) :   1.0493
B(  1-C ,  8-H ) :   0.9019 B(  2-C ,  3-O ) :   1.0335 B(  2-C ,  9-H ) :   0.9269
B(  2-C , 10-H ) :   0.9182 B(  3-O , 11-H ) :   0.8434 B(  4-O , 12-H ) :   0.8479
B(  5-O , 13-H ) :   0.8168

Dispersion correction           -0.009319155
FINAL SINGLE POINT ENERGY      -344.008833216304

DIPOLE MOMENT
-------------

Method             : SCF
Type of density    : Electron Density
Multiplicity       :   1
Irrep              :   0
Energy             :  -344.0832641356428780 Eh
Relativity type    :
Basis              : AO
                                X                 Y                 Z
Electronic contribution:     -0.451569223      -0.561681687       0.482929275
Nuclear contribution   :      1.713138638       0.747437861       0.031685948
                        -----------------------------------------
Total Dipole Moment    :      1.261569415       0.185756174       0.514615223
                        -----------------------------------------
Magnitude (a.u.)       :      1.375096932
Magnitude (Debye)      :      3.495218632

Rotational constants in cm-1:             0.131141             0.111326             0.064958
Rotational constants in MHz :          3931.514628          3337.464847          1947.380989

                             ****ORCA TERMINATED NORMALLY****
TOTAL RUN TIME: 0 days 0 hours 0 minutes 6 seconds 531 msec
