                         Program Version 6.0.0  -   RELEASE  -
|  1> ! pbe def2-sv(p) def2/J RI DEFGRID1 loosescf d4 GCP(DFT/SV(P)) printgap
|  2> %output
|  3>     printlevel normal
|  4> end
|  5> * xyz 0 1
|  6> C 1.8361112897 -0.8331837654 0.8614871505
|  7> C 1.1792398726 0.4144686958 0.2747831438
|  8> H 0.8404965098 1.0664178429 1.0951986944
|  9> C -0.0063189114 0.0797920573 -0.6364972065
| 10> C -1.2431058915 -0.4957224609 0.0596580136
| 11> C -1.9106823962 0.5278745001 0.9757956978
| 12> C -2.2397414492 -0.9713373209 -0.9972693602
| 13> O 2.0962272509 1.1440365981 -0.5318777707
| 14> H 1.1269505417 -1.3782947273 1.4761259951
| 15> H 2.1817154011 -1.4802686763 0.0586613506
| 16> H 2.6868218931 -0.5594817091 1.4820084119
| 17> H -0.2815413875 0.9991495599 -1.1587824846
| 18> H 0.3492180674 -0.626408495 -1.3900250228
| 19> H -0.9450473955 -1.3612034633 0.6598246619
| 20> H -1.252436715 0.8174757789 1.790317244
| 21> H -2.817557649 0.1100013099 1.4065904576
| 22> H -2.1768030869 1.4199252865 0.4131139998
| 23> H -1.7917330742 -1.7295847236 -1.6348260264
| 24> H -3.1216128954 -1.3970844308 -0.5247179525
| 25> H -2.5526160028 -0.1382344002 -1.6226305769
| 26> H 2.8943591349 1.3281926647 -0.0185952293
| 27> *
| 28>
| 29>                          ****END OF INPUT****

CARTESIAN COORDINATES (ANGSTROEM)
---------------------------------
  C      1.836111   -0.833184    0.861487
  C      1.179240    0.414469    0.274783
  H      0.840497    1.066418    1.095199
  C     -0.006319    0.079792   -0.636497
  C     -1.243106   -0.495722    0.059658
  C     -1.910682    0.527875    0.975796
  C     -2.239741   -0.971337   -0.997269
  O      2.096227    1.144037   -0.531878
  H      1.126951   -1.378295    1.476126
  H      2.181715   -1.480269    0.058661
  H      2.686822   -0.559482    1.482008
  H     -0.281541    0.999150   -1.158782
  H      0.349218   -0.626408   -1.390025
  H     -0.945047   -1.361203    0.659825
  H     -1.252437    0.817476    1.790317
  H     -2.817558    0.110001    1.406590
  H     -2.176803    1.419925    0.413114
  H     -1.791733   -1.729585   -1.634826
  H     -3.121613   -1.397084   -0.524718
  H     -2.552616   -0.138234   -1.622631
  H      2.894359    1.328193   -0.018595

 Total Charge           Charge          ....    0
 Multiplicity           Mult            ....    1
 Number of Electrons    NEL             ....   58
 Basis Dimension        Dim             ....  126

ORBITAL ENERGIES
----------------

  NO   OCC          E(Eh)            E(eV)
   0   2.0000     -18.734524      -509.7923
   1   2.0000      -9.933755      -270.3112
   2   2.0000      -9.894412      -269.2406
   3   2.0000      -9.875542      -268.7272
   4   2.0000      -9.875209      -268.7181
   5   2.0000      -9.871348      -268.6130
   6   2.0000      -9.870128      -268.5798
   7   2.0000      -0.911831       -24.8122
   8   2.0000      -0.731616       -19.9083
   9   2.0000      -0.673783       -18.3346
  10   2.0000      -0.611349       -16.6356
  11   2.0000      -0.608502       -16.5582
  12   2.0000      -0.534872       -14.5546
  13   2.0000      -0.489371       -13.3165
  14   2.0000      -0.451859       -12.2957
  15   2.0000      -0.422217       -11.4891
  16   2.0000      -0.394201       -10.7268
  17   2.0000      -0.385535       -10.4910
  18   2.0000      -0.376662       -10.2495
  19   2.0000      -0.359612        -9.7855
  20   2.0000      -0.340093        -9.2544
  21   2.0000      -0.332154        -9.0384
  22   2.0000      -0.313770        -8.5381
  23   2.0000      -0.310629        -8.4527
  24   2.0000      -0.293886        -7.9971
  25   2.0000      -0.282991        -7.7006
  26   2.0000      -0.279802        -7.6138
  27   2.0000      -0.260045        -7.0762
  28   2.0000      -0.208840        -5.6828
  29   0.0000       0.026702         0.7266
  30   0.0000       0.042706         1.1621
  31   0.0000       0.065529         1.7831
  32   0.0000       0.070490         1.9181
  33   0.0000       0.079329         2.1587

MULLIKEN ATOMIC CHARGES
-----------------------
   0 C :   -0.274835
   1 C :    0.025925
   2 H :    0.060133
   3 C :   -0.111936
   4 C :   -0.197802
   5 C :   -0.251202
   6 C :   -0.232666
   7 O :   -0.427419
   8 H :    0.105432
   9 H :    0.102145
  10 H :    0.090837
  11 H :    0.084283
  12 H :    0.076946
  13 H :    0.076238
  14 H :    0.105543
  15 H :    0.096648
  16 H :    0.094473
  17 H :    0.097441
  18 H :    0.096281
  19 H :    0.093171
  20 H :    0.290363
Sum of atomic charges:   -0.0000000

LOEWDIN ATOMIC CHARGES
----------------------
   0 C :   -0.353673
   1 C :   -0.056756
   2 H :    0.094392
   3 C :   -0.218026
   4 C :   -0.158354
   5 C :   -0.330976
   6 C :   -0.326612
   7 O :   -0.336491
   8 H :    0.122241
   9 H :    0.122180
  10 H :    0.113743
  11 H :    0.120710
  12 H :    0.116765
  13 H :    0.112396
  14 H :    0.114020
  15 H :    0.117444
  16 H :    0.118180
  17 H :    0.116745
  18 H :    0.115730
  19 H :    0.117186
  20 H :    0.279156

  Mayer bond orders larger than 0.100000
B(  0-C ,  1-C ) :   1.1051 B(  0-C ,  8-H ) :   0.9308 B(  0-C ,  9-H ) :   0.9415
B(  0-C , 10-H ) :   0.9445 B(  1-C ,  2-H ) :   0.9055 B(  1-C ,  3-C ) :   1.0808
B(  1-C ,  7-O ) :   1.0612 B(  3-C ,  4-C ) :   1.0684 B(  3-C , 11-H ) :   0.9069
B(  3-C , 12-H ) :   0.9123 B(  4-C ,  5-C ) :   1.1023 B(  4-C ,  6-C ) :   1.1138
B(  4-C , 13-H ) :   0.8973 B(  5-C , 14-H ) :   0.9448 B(  5-C , 15-H ) :   0.9490
B(  5-C , 16-H ) :   0.9497 B(  6-C , 17-H ) :   0.9496 B(  6-C , 18-H ) :   0.9512
B(  6-C , 19-H ) :   0.9501 B(  7-O , 20-H ) :   0.8535

Dispersion correction           -0.016193897
FINAL SINGLE POINT ENERGY      -311.518122633576

DIPOLE MOMENT
-------------

Method             : SCF
Type of density    : Electron Density
Multiplicity       :   1
Irrep              :   0
Energy             :  -311.5975894829610979 Eh
Relativity type    :
Basis              : AO
                                X                 Y                 Z
Electronic contribution:      4.679762005       2.572461387      -1.348292850
Nuclear contribution   :     -4.528165055      -2.731276202       1.898702078
                        -----------------------------------------
Total Dipole Moment    :      0.151596950      -0.158814815       0.550409228
                        -----------------------------------------
Magnitude (a.u.)       :      0.592582567
Magnitude (Debye)      :      1.506225183

Rotational constants in cm-1:             0.141170             0.044811             0.044273
Rotational constants in MHz :          4232.173081          1343.405767          1327.271555

                             ****ORCA TERMINATED NORMALLY****
TOTAL RUN TIME: 0 days 0 hours 0 minutes 10 seconds 214 msec
