                         Program Version 6.0.0  -   RELEASE  -
|  1> ! r2scan-3c def2/J RI DEFGRID2 scfconv6 printgap
|  2> %output
|  3>     printlevel normal
|  4> end
|  5> * xyz 0 1
|  6> C -3.2389833815 1.2796170498 0.1361846554
|  7> C -1.9070789396 0.7833164456 -0.3241178606
|  8> O -1.7025151862 0.1357270539 -1.3271627605
|  9> O -0.9302700192 1.1979226015 0.4945187158
| 10> C 0.3890004607 0.8257960069 0.2643564822
| 11> C 1.3308369423 1.8401085275 0.1827241502
| 12> C 2.6620975409 1.5290649234 -0.0318947577
| 13> C 3.0533813172 0.2079990232 -0.1862725367
| 14> C 2.1164185131 -0.8038228135 -0.1069539693
| 15> C 0.7737015844 -0.5115046859 0.1313668988
| 16> C -0.2086899425 -1.6095066326 0.2751478777
| 17> O -1.2308551674 -1.5387969498 0.9328727389
| 18> O 0.1501240374 -2.7117166136 -0.3602506085
| 19> H -4.0033234829 0.5574373028 -0.1326229286
| 20> H -3.4518050801 2.2171083703 -0.3740889305
| 21> H -3.2189203028 1.4492083475 1.2073032602
| 22> H 1.0019549808 2.8611390292 0.2901540924
| 23> H 3.3905173138 2.3219261999 -0.0874917795
| 24> H 4.0882676549 -0.0336082835 -0.3659440799
| 25> H 2.4068704333 -1.8363971531 -0.2157046565
| 26> H -0.5001508699 -3.4329279789 -0.252195925
| 27> *
| 28>
| 29>                          ****END OF INPUT****

CARTESIAN COORDINATES (ANGSTROEM)
---------------------------------
  C     -3.238983    1.279617    0.136185
  C     -1.907079    0.783316   -0.324118
  O     -1.702515    0.135727   -1.327163
  O     -0.930270    1.197923    0.494519
  C      0.389000    0.825796    0.264356
  C      1.330837    1.840109    0.182724
  C      2.662098    1.529065   -0.031895
  C      3.053381    0.207999   -0.186273
  C      2.116419   -0.803823   -0.106954
  C      0.773702   -0.511505    0.131367
  C     -0.208690   -1.609507    0.275148
  O     -1.230855   -1.538797    0.932873
  O      0.150124   -2.711717   -0.360251
  H     -4.003323    0.557437   -0.132623
  H     -3.451805    2.217108   -0.374089
  H     -3.218920    1.449208    1.207303
  H      1.001955    2.861139    0.290154
  H      3.390517    2.321926   -0.087492
  H      4.088268   -0.033608   -0.365944
  H      2.406870   -1.836397   -0.215705
  H     -0.500151   -3.432928   -0.252196

 Total Charge           Charge          ....    0
 Multiplicity           Mult            ....    1
 Number of Electrons    NEL             ....   94
 Basis Dimension        Dim             ....  307

ORBITAL ENERGIES
----------------

  NO   OCC          E(Eh)            E(eV)
   0   2.0000     -19.014946      -517.4230
   1   2.0000     -19.006825      -517.2020
   2   2.0000     -18.934422      -515.2318
   3   2.0000     -18.934110      -515.2233
   4   2.0000     -10.169034      -276.7135
   5   2.0000     -10.165237      -276.6101
   6   2.0000     -10.120265      -275.3864
   7   2.0000     -10.066839      -273.9326
   8   2.0000     -10.057246      -273.6716
   9   2.0000     -10.056766      -273.6585
  10   2.0000     -10.054171      -273.5879
  11   2.0000     -10.049924      -273.4723
  12   2.0000     -10.040347      -273.2117
  13   2.0000      -1.090144       -29.6643
  14   2.0000      -1.079901       -29.3856
  15   2.0000      -0.987736       -26.8777
  16   2.0000      -0.979939       -26.6655
  17   2.0000      -0.848620       -23.0921
  18   2.0000      -0.756553       -20.5869
  19   2.0000      -0.752553       -20.4780
  20   2.0000      -0.712008       -19.3747
  21   2.0000      -0.651134       -17.7182
  22   2.0000      -0.612721       -16.6730
  23   2.0000      -0.600218       -16.3328
  24   2.0000      -0.546598       -14.8737
  25   2.0000      -0.503796       -13.7090
  26   2.0000      -0.470388       -12.7999
  27   2.0000      -0.462982       -12.5984
  28   2.0000      -0.457601       -12.4520
  29   2.0000      -0.451003       -12.2724
  30   2.0000      -0.441346       -12.0096
  31   2.0000      -0.424776       -11.5588
  32   2.0000      -0.420107       -11.4317
  33   2.0000      -0.417880       -11.3711
  34   2.0000      -0.381598       -10.3838
  35   2.0000      -0.378597       -10.3021
  36   2.0000      -0.369505       -10.0548
  37   2.0000      -0.363141        -9.8816
  38   2.0000      -0.352180        -9.5833
  39   2.0000      -0.342647        -9.3239
  40   2.0000      -0.333466        -9.0741
  41   2.0000      -0.302907        -8.2425
  42   2.0000      -0.285894        -7.7796
  43   2.0000      -0.260783        -7.0963
  44   2.0000      -0.243401        -6.6233
  45   2.0000      -0.242181        -6.5901
  46   2.0000      -0.240062        -6.5324
  47   0.0000      -0.080001        -2.1769
  48   0.0000      -0.049040        -1.3345
  49   0.0000      -0.014998        -0.4081
  50   0.0000       0.014160         0.3853
  51   0.0000       0.055161         1.5010

MULLIKEN ATOMIC CHARGES
-----------------------
   0 C :   -0.543442
   1 C :    0.419982
   2 O :   -0.392939
   3 O :   -0.130020
   4 C :    0.191936
   5 C :   -0.265002
   6 C :   -0.104025
   7 C :   -0.147511
   8 C :   -0.188025
   9 C :    0.062276
  10 C :    0.333004
  11 O :   -0.386888
  12 O :   -0.347865
  13 H :    0.178727
  14 H :    0.174559
  15 H :    0.177240
  16 H :    0.160828
  17 H :    0.151404
  18 H :    0.149349
  19 H :    0.170249
  20 H :    0.336162
Sum of atomic charges:    0.0000000

LOEWDIN ATOMIC CHARGES
----------------------
   0 C :   -0.327611
   1 C :    0.380418
   2 O :   -0.399504
   3 O :   -0.519014
   4 C :    0.237978
   5 C :   -0.113524
   6 C :   -0.136431
   7 C :   -0.163120
   8 C :   -0.103545
   9 C :   -0.000564
  10 C :    0.377080
  11 O :   -0.403634
  12 O :   -0.390164
  13 H :    0.181037
  14 H :    0.182430
  15 H :    0.179482
  16 H :    0.183865
  17 H :    0.171537
  18 H :    0.170754
  19 H :    0.188806
  20 H :    0.303722

  Mayer bond orders larger than 0.100000
B(  0-C ,  1-C ) :   0.9260 B(  0-C , 13-H ) :   0.9757 B(  0-C , 14-H ) :   0.9377
B(  0-C , 15-H ) :   0.9800 B(  1-C ,  2-O ) :   1.8843 B(  1-C ,  3-O ) :   0.9611
B(  3-O ,  4-C ) :   0.9254 B(  4-C ,  5-C ) :   1.3923 B(  4-C ,  9-C ) :   1.4838
B(  5-C ,  6-C ) :   1.3560 B(  5-C , 16-H ) :   0.9467 B(  6-C ,  7-C ) :   1.3970
B(  6-C , 17-H ) :   0.9465 B(  7-C ,  8-C ) :   1.3787 B(  7-C , 18-H ) :   0.9486
B(  8-C ,  9-C ) :   1.2934 B(  8-C , 19-H ) :   0.9481 B(  9-C , 10-C ) :   0.9835
B( 10-C , 11-O ) :   1.9257 B( 10-C , 12-O ) :   1.0685 B( 12-O , 20-H ) :   0.8570

Dispersion correction           -0.008118946
FINAL SINGLE POINT ENERGY      -648.584750516157

DIPOLE MOMENT
-------------

Method             : SCF
Type of density    : Electron Density
Multiplicity       :   1
Irrep              :   0
Energy             :  -648.5868508901237419 Eh
Relativity type    :
Basis              : AO
                                X                 Y                 Z
Electronic contribution:      0.908200683      -3.504268149       0.105841441
Nuclear contribution   :     -0.323852838       3.806964315       0.061267736
                        -----------------------------------------
Total Dipole Moment    :      0.584347846       0.302696165       0.167109177
                        -----------------------------------------
Magnitude (a.u.)       :      0.678979271
Magnitude (Debye)      :      1.725828153

Rotational constants in cm-1:             0.040517             0.025355             0.017343
Rotational constants in MHz :          1214.670460           760.119127           519.923261

                             ****ORCA TERMINATED NORMALLY****
TOTAL RUN TIME: 0 days 0 hours 0 minutes 46 seconds 614 msec
