                         Program Version 6.0.0  -   RELEASE  -
|  1> ! r2scan-3c def2/J RI DEFGRID2 scfconv6 printgap
|  2> %output
|  3>     printlevel normal
|  4> end
|  5> %cpcm
|  6>     smd true
|  7>     smdsolvent "water"
|  8> end
|  9> * xyz 0 1
| 10> C -3.2389833815 1.2796170498 0.1361846554
| 11> C -1.9070789396 0.7833164456 -0.3241178606
| 12> O -1.7025151862 0.1357270539 -1.3271627605
| 13> O -0.9302700192 1.1979226015 0.4945187158
| 14> C 0.3890004607 0.8257960069 0.2643564822
| 15> C 1.3308369423 1.8401085275 0.1827241502
| 16> C 2.6620975409 1.5290649234 -0.0318947577
| 17> C 3.0533813172 0.2079990232 -0.1862725367
| 18> C 2.1164185131 -0.8038228135 -0.1069539693
| 19> C 0.7737015844 -0.5115046859 0.1313668988
| 20> C -0.2086899425 -1.6095066326 0.2751478777
| 21> O -1.2308551674 -1.5387969498 0.9328727389
| 22> O 0.1501240374 -2.7117166136 -0.3602506085
| 23> H -4.0033234829 0.5574373028 -0.1326229286
| 24> H -3.4518050801 2.2171083703 -0.3740889305
| 25> H -3.2189203028 1.4492083475 1.2073032602
| 26> H 1.0019549808 2.8611390292 0.2901540924
| 27> H 3.3905173138 2.3219261999 -0.0874917795
| 28> H 4.0882676549 -0.0336082835 -0.3659440799
| 29> H 2.4068704333 -1.8363971531 -0.2157046565
| 30> H -0.5001508699 -3.4329279789 -0.252195925
| 31> *
| 32>
| 33>                          ****END OF INPUT****

CARTESIAN COORDINATES (ANGSTROEM)
---------------------------------
  C     -3.238983    1.279617    0.136185
  C     -1.907079    0.783316   -0.324118
  O     -1.702515    0.135727   -1.327163
  O     -0.930270    1.197923    0.494519
  C      0.389000    0.825796    0.264356
  C      1.330837    1.840109    0.182724
  C      2.662098    1.529065   -0.031895
  C      3.053381    0.207999   -0.186273
  C      2.116419   -0.803823   -0.106954
  C      0.773702   -0.511505    0.131367
  C     -0.208690   -1.609507    0.275148
  O     -1.230855   -1.538797    0.932873
  O      0.150124   -2.711717   -0.360251
  H     -4.003323    0.557437   -0.132623
  H     -3.451805    2.217108   -0.374089
  H     -3.218920    1.449208    1.207303
  H      1.001955    2.861139    0.290154
  H      3.390517    2.321926   -0.087492
  H      4.088268   -0.033608   -0.365944
  H      2.406870   -1.836397   -0.215705
  H     -0.500151   -3.432928   -0.252196

 Total Charge           Charge          ....    0
 Multiplicity           Mult            ....    1
 Number of Electrons    NEL             ....   94
 Basis Dimension        Dim             ....  307

ORBITAL ENERGIES
----------------

  NO   OCC          E(Eh)            E(eV)
   0   2.0000     -19.024157      -517.6736
   1   2.0000     -19.006419      -517.1909
   2   2.0000     -18.952318      -515.7188
   3   2.0000     -18.948475      -515.6142
   4   2.0000     -10.179491      -276.9980
   5   2.0000     -10.179060      -276.9863
   6   2.0000     -10.121258      -275.4134
   7   2.0000     -10.068124      -273.9676
   8   2.0000     -10.053883      -273.5801
   9   2.0000     -10.051249      -273.5084
  10   2.0000     -10.049754      -273.4677
  11   2.0000     -10.044162      -273.3155
  12   2.0000     -10.034480      -273.0521
  13   2.0000      -1.100535       -29.9471
  14   2.0000      -1.084122       -29.5005
  15   2.0000      -1.005161       -27.3518
  16   2.0000      -0.991093       -26.9690
  17   2.0000      -0.848066       -23.0770
  18   2.0000      -0.756619       -20.5886
  19   2.0000      -0.751723       -20.4554
  20   2.0000      -0.709510       -19.3068
  21   2.0000      -0.649743       -17.6804
  22   2.0000      -0.612841       -16.6763
  23   2.0000      -0.597986       -16.2720
  24   2.0000      -0.544171       -14.8077
  25   2.0000      -0.502560       -13.6754
  26   2.0000      -0.475658       -12.9433
  27   2.0000      -0.472916       -12.8687
  28   2.0000      -0.465153       -12.6575
  29   2.0000      -0.462037       -12.5727
  30   2.0000      -0.441371       -12.0103
  31   2.0000      -0.429500       -11.6873
  32   2.0000      -0.422774       -11.5043
  33   2.0000      -0.415433       -11.3045
  34   2.0000      -0.384490       -10.4625
  35   2.0000      -0.375507       -10.2181
  36   2.0000      -0.371050       -10.0968
  37   2.0000      -0.363609        -9.8943
  38   2.0000      -0.352676        -9.5968
  39   2.0000      -0.342754        -9.3268
  40   2.0000      -0.332638        -9.0516
  41   2.0000      -0.312578        -8.5057
  42   2.0000      -0.298459        -8.1215
  43   2.0000      -0.268491        -7.3060
  44   2.0000      -0.258945        -7.0462
  45   2.0000      -0.252407        -6.8683
  46   2.0000      -0.243432        -6.6241
  47   0.0000      -0.084472        -2.2986
  48   0.0000      -0.049643        -1.3508
  49   0.0000      -0.023914        -0.6507
  50   0.0000       0.009392         0.2556
  51   0.0000       0.069801         1.8994

MULLIKEN ATOMIC CHARGES
-----------------------
   0 C :   -0.570156
   1 C :    0.444124
   2 O :   -0.468303
   3 O :   -0.137616
   4 C :    0.181132
   5 C :   -0.274873
   6 C :   -0.126826
   7 C :   -0.181504
   8 C :   -0.205711
   9 C :    0.039373
  10 C :    0.360155
  11 O :   -0.456180
  12 O :   -0.364882
  13 H :    0.194289
  14 H :    0.211556
  15 H :    0.194937
  16 H :    0.196886
  17 H :    0.190937
  18 H :    0.186386
  19 H :    0.198916
  20 H :    0.387358
Sum of atomic charges:    0.0000000

LOEWDIN ATOMIC CHARGES
----------------------
   0 C :   -0.325348
   1 C :    0.386042
   2 O :   -0.455059
   3 O :   -0.521488
   4 C :    0.225111
   5 C :   -0.109829
   6 C :   -0.129525
   7 C :   -0.159903
   8 C :   -0.103481
   9 C :   -0.016021
  10 C :    0.380382
  11 O :   -0.456859
  12 O :   -0.378634
  13 H :    0.187052
  14 H :    0.198615
  15 H :    0.187576
  16 H :    0.197420
  17 H :    0.186018
  18 H :    0.184288
  19 H :    0.198717
  20 H :    0.324923

  Mayer bond orders larger than 0.100000
B(  0-C ,  1-C ) :   0.9400 B(  0-C , 13-H ) :   0.9646 B(  0-C , 14-H ) :   0.9196
B(  0-C , 15-H ) :   0.9680 B(  1-C ,  2-O ) :   1.8161 B(  1-C ,  3-O ) :   0.9786
B(  3-O ,  4-C ) :   0.9036 B(  4-C ,  5-C ) :   1.3708 B(  4-C ,  9-C ) :   1.4337
B(  5-C ,  6-C ) :   1.3357 B(  5-C , 16-H ) :   0.9559 B(  6-C ,  7-C ) :   1.3656
B(  6-C , 17-H ) :   0.9488 B(  7-C ,  8-C ) :   1.3643 B(  7-C , 18-H ) :   0.9546
B(  8-C ,  9-C ) :   1.2601 B(  8-C , 19-H ) :   0.9569 B(  9-C , 10-C ) :   0.9908
B( 10-C , 11-O ) :   1.8648 B( 10-C , 12-O ) :   1.1033 B( 12-O , 20-H ) :   0.8303

Dispersion correction           -0.008118946
FINAL SINGLE POINT ENERGY      -648.600771011927

DIPOLE MOMENT
-------------

Method             : SCF
Type of density    : Electron Density
Multiplicity       :   1
Irrep              :   0
Energy             :  -648.6028713858939909 Eh
Relativity type    :
Basis              : AO
                                X                 Y                 Z
Electronic contribution:      1.313944964      -3.279533617       0.189567262
Nuclear contribution   :     -0.323852838       3.806964315       0.061267736
                        -----------------------------------------
Total Dipole Moment    :      0.990092126       0.527430698       0.250834998
                        -----------------------------------------
Magnitude (a.u.)       :      1.149514574
Magnitude (Debye)      :      2.921833845

Rotational constants in cm-1:             0.040517             0.025355             0.017343
Rotational constants in MHz :          1214.670460           760.119127           519.923261

                             ****ORCA TERMINATED NORMALLY****
TOTAL RUN TIME: 0 days 0 hours 1 minutes 8 seconds 50 msec
