                         Program Version 6.0.0  -   RELEASE  -
|  1> ! pbe def2-sv(p) def2/J RI DEFGRID1 loosescf d4 GCP(DFT/SV(P)) printgap
|  2> %output
|  3>     printlevel normal
|  4> end
|  5> * xyz 0 1
|  6> C -1.949180844 0.6956767751 1.7025206911
|  7> O -1.8115044654 0.7643763195 0.2667777648
|  8> C -0.85148839 0.0528608747 -0.330427105
|  9> C 0.609354844 0.4885566927 -0.0662423149
| 10> Cl 1.1472959108 -0.0697166185 1.5216005713
| 11> Cl 1.6719153806 -0.1942544942 -1.3228936072
| 12> F -0.9760521834 -1.2915524519 -0.074755824
| 13> F -1.0905849072 0.1648099484 -1.6651417978
| 14> H -2.926452011 1.129937352 1.8902950138
| 15> H -1.169504194 1.2792956453 2.189107027
| 16> H -1.9217770352 -0.3395360392 2.039986374
| 17> H 0.6759257602 1.5782159211 -0.1091039248
| 18> *
| 19>
| 20>                          ****END OF INPUT****

CARTESIAN COORDINATES (ANGSTROEM)
---------------------------------
  C     -1.949181    0.695677    1.702521
  O     -1.811504    0.764376    0.266778
  C     -0.851488    0.052861   -0.330427
  C      0.609355    0.488557   -0.066242
  Cl     1.147296   -0.069717    1.521601
  Cl     1.671915   -0.194254   -1.322894
  F     -0.976052   -1.291552   -0.074756
  F     -1.090585    0.164810   -1.665142
  H     -2.926452    1.129937    1.890295
  H     -1.169504    1.279296    2.189107
  H     -1.921777   -0.339536    2.039986
  H      0.675926    1.578216   -0.109104

 Total Charge           Charge          ....    0
 Multiplicity           Mult            ....    1
 Number of Electrons    NEL             ....   82
 Basis Dimension        Dim             ....  128

ORBITAL ENERGIES
----------------

  NO   OCC          E(Eh)            E(eV)
   0   2.0000    -100.659340     -2739.0799
   1   2.0000    -100.647087     -2738.7465
   2   2.0000     -24.274967      -660.5554
   3   2.0000     -24.273428      -660.5136
   4   2.0000     -18.809727      -511.8387
   5   2.0000     -10.111405      -275.1453
   6   2.0000     -10.021172      -272.6900
   7   2.0000      -9.957761      -270.9644
   8   2.0000      -9.195579      -250.2244
   9   2.0000      -9.183249      -249.8889
  10   2.0000      -7.027452      -191.2267
  11   2.0000      -7.015414      -190.8991
  12   2.0000      -7.015253      -190.8947
  13   2.0000      -7.014655      -190.8785
  14   2.0000      -7.002638      -190.5515
  15   2.0000      -7.002404      -190.5451
  16   2.0000      -1.153408       -31.3858
  17   2.0000      -1.078657       -29.3517
  18   2.0000      -0.988636       -26.9021
  19   2.0000      -0.843139       -22.9430
  20   2.0000      -0.759615       -20.6702
  21   2.0000      -0.694373       -18.8948
  22   2.0000      -0.638190       -17.3660
  23   2.0000      -0.563329       -15.3290
  24   2.0000      -0.518686       -14.1142
  25   2.0000      -0.509585       -13.8665
  26   2.0000      -0.495067       -13.4715
  27   2.0000      -0.441629       -12.0173
  28   2.0000      -0.428222       -11.6525
  29   2.0000      -0.413760       -11.2590
  30   2.0000      -0.410086       -11.1590
  31   2.0000      -0.377065       -10.2605
  32   2.0000      -0.358618        -9.7585
  33   2.0000      -0.346158        -9.4194
  34   2.0000      -0.333901        -9.0859
  35   2.0000      -0.327267        -8.9054
  36   2.0000      -0.300377        -8.1737
  37   2.0000      -0.285866        -7.7788
  38   2.0000      -0.278571        -7.5803
  39   2.0000      -0.266582        -7.2541
  40   2.0000      -0.259793        -7.0693
  41   0.0000      -0.030624        -0.8333
  42   0.0000      -0.020343        -0.5536
  43   0.0000       0.034287         0.9330
  44   0.0000       0.060924         1.6578
  45   0.0000       0.062898         1.7115

MULLIKEN ATOMIC CHARGES
-----------------------
   0 C :   -0.122317
   1 O :   -0.254977
   2 C :    0.398378
   3 C :   -0.175499
   4 Cl:   -0.051914
   5 Cl:   -0.046308
   6 F :   -0.165235
   7 F :   -0.144882
   8 H :    0.134489
   9 H :    0.119369
  10 H :    0.129297
  11 H :    0.179601
Sum of atomic charges:    0.0000000

LOEWDIN ATOMIC CHARGES
----------------------
   0 C :   -0.204402
   1 O :   -0.105355
   2 C :    0.065418
   3 C :   -0.318167
   4 Cl:    0.111841
   5 Cl:    0.094892
   6 F :   -0.081159
   7 F :   -0.057367
   8 H :    0.127549
   9 H :    0.106759
  10 H :    0.119224
  11 H :    0.140766

  Mayer bond orders larger than 0.100000
B(  0-C ,  1-O ) :   0.9310 B(  0-C ,  8-H ) :   0.9584 B(  0-C ,  9-H ) :   0.9449
B(  0-C , 10-H ) :   0.9413 B(  1-O ,  2-C ) :   1.2078 B(  2-C ,  3-C ) :   0.8735
B(  2-C ,  6-F ) :   1.1263 B(  2-C ,  7-F ) :   1.1530 B(  3-C ,  4-Cl) :   1.0565
B(  3-C ,  5-Cl) :   1.0811 B(  3-C , 11-H ) :   0.8891

Dispersion correction           -0.012609288
FINAL SINGLE POINT ENERGY     -1310.581037181000

DIPOLE MOMENT
-------------

Method             : SCF
Type of density    : Electron Density
Multiplicity       :   1
Irrep              :   0
Energy             : -1310.6355132450162273 Eh
Relativity type    :
Basis              : AO
                                X                 Y                 Z
Electronic contribution:      6.744400159      -4.185242501      -6.079353464
Nuclear contribution   :     -6.907502042       4.831962535       6.988026669
                        -----------------------------------------
Total Dipole Moment    :     -0.163101883       0.646720034       0.908673204
                        -----------------------------------------
Magnitude (a.u.)       :      1.127180562
Magnitude (Debye)      :      2.865065298

Rotational constants in cm-1:             0.059862             0.043659             0.029857
Rotational constants in MHz :          1794.624968          1308.852217           895.102064

                             ****ORCA TERMINATED NORMALLY****
TOTAL RUN TIME: 0 days 0 hours 0 minutes 6 seconds 636 msec
