                         Program Version 6.0.0  -   RELEASE  -
|  1> ! wb97x-v def2-tzvp def2/J RIJCOSX DEFGRID2 scfconv7 GCP(DFT/TZ) printgap
|  2> %output
|  3>     printlevel normal
|  4> end
|  5> * xyz 0 1
|  6> C 3.0945874916169194 -0.4284856327972114 0.16637071660512223
|  7> C 1.8905696135408425 0.31127677307825163 -0.40926694379715267
|  8> C 0.5674365133978828 -0.21627475762000875 0.14931669496355648
|  9> C -0.6245251248218705 0.5194589006600188 -0.4427254433419011
| 10> S -2.2538156072863678 -0.03822283827459945 0.2348798151783531
| 11> H 3.1307530901644562 -0.32928326342691316 1.256838570626473
| 12> H 4.033516825226001 -0.03663720728039173 -0.23732195168419834
| 13> H 3.0474582829642722 -1.4971242374302807 -0.07036378830780861
| 14> H 1.8863948160777029 0.21699814129140652 -1.5026755041148956
| 15> H 1.9733419618908261 1.3829654003076712 -0.18713379462151686
| 16> H 0.5591266826783304 -0.11033248848422238 1.2408219397676405
| 17> H 0.480069369691156 -1.288441408443721 -0.06967254279015798
| 18> H -0.579019484913534 1.5880960440218685 -0.2072705615067928
| 19> H -0.6495284765136629 0.4194267136819758 -1.5318486479586753
| 20> H -2.158242647032017 -1.317385908545395 -0.17536772170448334
| 21> *
| 22>
| 23>                          ****END OF INPUT****

CARTESIAN COORDINATES (ANGSTROEM)
---------------------------------
  C      3.094587   -0.428486    0.166371
  C      1.890570    0.311277   -0.409267
  C      0.567437   -0.216275    0.149317
  C     -0.624525    0.519459   -0.442725
  S     -2.253816   -0.038223    0.234880
  H      3.130753   -0.329283    1.256839
  H      4.033517   -0.036637   -0.237322
  H      3.047458   -1.497124   -0.070364
  H      1.886395    0.216998   -1.502676
  H      1.973342    1.382965   -0.187134
  H      0.559127   -0.110332    1.240822
  H      0.480069   -1.288441   -0.069673
  H     -0.579019    1.588096   -0.207271
  H     -0.649528    0.419427   -1.531849
  H     -2.158243   -1.317386   -0.175368

 Total Charge           Charge          ....    0
 Multiplicity           Mult            ....    1
 Number of Electrons    NEL             ....   50
 Basis Dimension        Dim             ....  221

ORBITAL ENERGIES
----------------

  NO   OCC          E(Eh)            E(eV)
   0   2.0000     -94.118157     -2561.0852
   1   2.0000     -12.080623      -328.7305
   2   2.0000     -12.049741      -327.8901
   3   2.0000     -12.048029      -327.8435
   4   2.0000     -12.038674      -327.5890
   5   2.0000      -9.629384      -262.0289
   6   2.0000      -7.607064      -206.9987
   7   2.0000      -7.605868      -206.9662
   8   2.0000      -7.605380      -206.9529
   9   2.0000      -1.320325       -35.9279
  10   2.0000      -1.263074       -34.3700
  11   2.0000      -1.190921       -32.4066
  12   2.0000      -1.105122       -30.0719
  13   2.0000      -1.054132       -28.6844
  14   2.0000      -0.909297       -24.7432
  15   2.0000      -0.879723       -23.9385
  16   2.0000      -0.867488       -23.6055
  17   2.0000      -0.855720       -23.2853
  18   2.0000      -0.815075       -22.1793
  19   2.0000      -0.810373       -22.0514
  20   2.0000      -0.793319       -21.5873
  21   2.0000      -0.773378       -21.0447
  22   2.0000      -0.753297       -20.4983
  23   2.0000      -0.744852       -20.2685
  24   2.0000      -0.643080       -17.4991
  25   0.0000      -0.201515        -5.4835
  26   0.0000      -0.105397        -2.8680
  27   0.0000      -0.032940        -0.8964
  28   0.0000      -0.017813        -0.4847
  29   0.0000      -0.008305        -0.2260

MULLIKEN ATOMIC CHARGES
-----------------------
   0 C :   -0.333031
   1 C :   -0.160054
   2 C :   -0.189681
   3 C :   -0.165056
   4 S :   -0.217558
   5 H :    0.107094
   6 H :    0.115765
   7 H :    0.105485
   8 H :    0.088117
   9 H :    0.090083
  10 H :    0.104403
  11 H :    0.085799
  12 H :    0.117194
  13 H :    0.122216
  14 H :    0.129223
Sum of atomic charges:   -0.0000000

LOEWDIN ATOMIC CHARGES
----------------------
   0 C :   -0.306992
   1 C :   -0.291113
   2 C :   -0.302414
   3 C :   -0.468885
   4 S :    0.214587
   5 H :    0.117036
   6 H :    0.116417
   7 H :    0.116435
   8 H :    0.130353
   9 H :    0.131090
  10 H :    0.134921
  11 H :    0.131047
  12 H :    0.126443
  13 H :    0.120362
  14 H :    0.030710

  Mayer bond orders larger than 0.100000
B(  0-C ,  1-C ) :   0.9872 B(  0-C ,  5-H ) :   0.9806 B(  0-C ,  6-H ) :   0.9840
B(  0-C ,  7-H ) :   0.9809 B(  1-C ,  2-C ) :   0.9769 B(  1-C ,  8-H ) :   0.9714
B(  1-C ,  9-H ) :   0.9739 B(  2-C ,  3-C ) :   0.9761 B(  2-C , 10-H ) :   0.9689
B(  2-C , 11-H ) :   0.9691 B(  3-C ,  4-S ) :   1.0396 B(  3-C , 12-H ) :   0.9623
B(  3-C , 13-H ) :   0.9709 B(  4-S , 14-H ) :   0.9724

FINAL SINGLE POINT ENERGY      -556.595883658569

DIPOLE MOMENT
-------------

Method             : SCF
Type of density    : Electron Density
Multiplicity       :   1
Irrep              :   0
Energy             :  -556.6063144806693117 Eh
Relativity type    :
Basis              : AO
                                X                 Y                 Z
Electronic contribution:    -10.539776259       0.808871310       1.063911749
Nuclear contribution   :     11.193798788      -0.913526803      -1.356820085
                        -----------------------------------------
Total Dipole Moment    :      0.654022529      -0.104655493      -0.292908336
                        -----------------------------------------
Magnitude (a.u.)       :      0.724219258
Magnitude (Debye)      :      1.840819062

Rotational constants in cm-1:             0.536525             0.043554             0.041793
Rotational constants in MHz :         16084.614960          1305.714813          1252.928630

                             ****ORCA TERMINATED NORMALLY****
TOTAL RUN TIME: 0 days 0 hours 1 minutes 8 seconds 211 msec
