                         Program Version 6.0.0  -   RELEASE  -
|  1> ! wb97x-v def2-tzvp def2/J RIJCOSX DEFGRID2 scfconv7 GCP(DFT/TZ) printgap
|  2> %output
|  3>     printlevel normal
|  4> end
|  5> %cpcm
|  6>     smd true
|  7>     smdsolvent "water"
|  8> end
|  9> * xyz 0 1
| 10> C 3.0945874916169194 -0.4284856327972114 0.16637071660512223
| 11> C 1.8905696135408425 0.31127677307825163 -0.40926694379715267
| 12> C 0.5674365133978828 -0.21627475762000875 0.14931669496355648
| 13> C -0.6245251248218705 0.5194589006600188 -0.4427254433419011
| 14> S -2.2538156072863678 -0.03822283827459945 0.2348798151783531
| 15> H 3.1307530901644562 -0.32928326342691316 1.256838570626473
| 16> H 4.033516825226001 -0.03663720728039173 -0.23732195168419834
| 17> H 3.0474582829642722 -1.4971242374302807 -0.07036378830780861
| 18> H 1.8863948160777029 0.21699814129140652 -1.5026755041148956
| 19> H 1.9733419618908261 1.3829654003076712 -0.18713379462151686
| 20> H 0.5591266826783304 -0.11033248848422238 1.2408219397676405
| 21> H 0.480069369691156 -1.288441408443721 -0.06967254279015798
| 22> H -0.579019484913534 1.5880960440218685 -0.2072705615067928
| 23> H -0.6495284765136629 0.4194267136819758 -1.5318486479586753
| 24> H -2.158242647032017 -1.317385908545395 -0.17536772170448334
| 25> *
| 26>
| 27>                          ****END OF INPUT****

CARTESIAN COORDINATES (ANGSTROEM)
---------------------------------
  C      3.094587   -0.428486    0.166371
  C      1.890570    0.311277   -0.409267
  C      0.567437   -0.216275    0.149317
  C     -0.624525    0.519459   -0.442725
  S     -2.253816   -0.038223    0.234880
  H      3.130753   -0.329283    1.256839
  H      4.033517   -0.036637   -0.237322
  H      3.047458   -1.497124   -0.070364
  H      1.886395    0.216998   -1.502676
  H      1.973342    1.382965   -0.187134
  H      0.559127   -0.110332    1.240822
  H      0.480069   -1.288441   -0.069673
  H     -0.579019    1.588096   -0.207271
  H     -0.649528    0.419427   -1.531849
  H     -2.158243   -1.317386   -0.175368

 Total Charge           Charge          ....    0
 Multiplicity           Mult            ....    1
 Number of Electrons    NEL             ....   50
 Basis Dimension        Dim             ....  221

ORBITAL ENERGIES
----------------

  NO   OCC          E(Eh)            E(eV)
   0   2.0000     -94.116078     -2561.0287
   1   2.0000     -12.069403      -328.4251
   2   2.0000     -12.036317      -327.5248
   3   2.0000     -12.033459      -327.4471
   4   2.0000     -12.025210      -327.2226
   5   2.0000      -9.627447      -261.9762
   6   2.0000      -7.605148      -206.9466
   7   2.0000      -7.603964      -206.9144
   8   2.0000      -7.603693      -206.9070
   9   2.0000      -1.308245       -35.5991
  10   2.0000      -1.253443       -34.1079
  11   2.0000      -1.182005       -32.1640
  12   2.0000      -1.094197       -29.7746
  13   2.0000      -1.040981       -28.3265
  14   2.0000      -0.895941       -24.3798
  15   2.0000      -0.867296       -23.6003
  16   2.0000      -0.856111       -23.2960
  17   2.0000      -0.842842       -22.9349
  18   2.0000      -0.805331       -21.9142
  19   2.0000      -0.798183       -21.7197
  20   2.0000      -0.780669       -21.2431
  21   2.0000      -0.761429       -20.7195
  22   2.0000      -0.741940       -20.1892
  23   2.0000      -0.736235       -20.0340
  24   2.0000      -0.642061       -17.4714
  25   0.0000      -0.196329        -5.3424
  26   0.0000      -0.097181        -2.6444
  27   0.0000      -0.020062        -0.5459
  28   0.0000      -0.004579        -0.1246
  29   0.0000       0.005406         0.1471

MULLIKEN ATOMIC CHARGES
-----------------------
   0 C :   -0.384220
   1 C :   -0.178177
   2 C :   -0.204104
   3 C :   -0.174164
   4 S :   -0.298001
   5 H :    0.119979
   6 H :    0.129095
   7 H :    0.120101
   8 H :    0.102695
   9 H :    0.103059
  10 H :    0.105928
  11 H :    0.106788
  12 H :    0.143336
  13 H :    0.142833
  14 H :    0.164850
Sum of atomic charges:    0.0000000

LOEWDIN ATOMIC CHARGES
----------------------
   0 C :   -0.314402
   1 C :   -0.290614
   2 C :   -0.302488
   3 C :   -0.463560
   4 S :    0.177051
   5 H :    0.118434
   6 H :    0.117905
   7 H :    0.118401
   8 H :    0.133596
   9 H :    0.133833
  10 H :    0.134104
  11 H :    0.135376
  12 H :    0.132629
  13 H :    0.126441
  14 H :    0.043295

  Mayer bond orders larger than 0.100000
B(  0-C ,  1-C ) :   0.9791 B(  0-C ,  5-H ) :   0.9788 B(  0-C ,  6-H ) :   0.9815
B(  0-C ,  7-H ) :   0.9790 B(  1-C ,  2-C ) :   0.9830 B(  1-C ,  8-H ) :   0.9717
B(  1-C ,  9-H ) :   0.9733 B(  2-C ,  3-C ) :   0.9784 B(  2-C , 10-H ) :   0.9668
B(  2-C , 11-H ) :   0.9668 B(  3-C ,  4-S ) :   1.0128 B(  3-C , 12-H ) :   0.9567
B(  3-C , 13-H ) :   0.9678 B(  4-S , 14-H ) :   0.9670

FINAL SINGLE POINT ENERGY      -556.597688276407

DIPOLE MOMENT
-------------

Method             : SCF
Type of density    : Electron Density
Multiplicity       :   1
Irrep              :   0
Energy             :  -556.6081190985067906 Eh
Relativity type    :
Basis              : AO
                                X                 Y                 Z
Electronic contribution:    -10.362753327       0.788309158       0.929300361
Nuclear contribution   :     11.193798788      -0.913526803      -1.356820085
                        -----------------------------------------
Total Dipole Moment    :      0.831045461      -0.125217645      -0.427519724
                        -----------------------------------------
Magnitude (a.u.)       :      0.942915230
Magnitude (Debye)      :      2.396700045

Rotational constants in cm-1:             0.536525             0.043554             0.041793
Rotational constants in MHz :         16084.614960          1305.714813          1252.928630

                             ****ORCA TERMINATED NORMALLY****
TOTAL RUN TIME: 0 days 0 hours 1 minutes 10 seconds 571 msec
