                         Program Version 6.0.0  -   RELEASE  -
|  1> ! r2scan-3c def2/J RI DEFGRID2 scfconv6 printgap
|  2> %output
|  3>     printlevel normal
|  4> end
|  5> * xyz 0 1
|  6> C -2.1689069716 0.9382658272 -0.8534386835
|  7> C -1.8953424095 0.0267860492 0.3425218165
|  8> C -0.4562390258 -0.4213891811 0.3865489149
|  9> O -0.099469944 -1.5805477452 0.4504529359
| 10> O 0.3830151813 0.6048524884 0.3684353147
| 11> C 1.7941695066 0.33646205 0.3885589439
| 12> C 2.3275238891 0.0873988193 -1.0140434413
| 13> H -1.5309877101 1.8163160996 -0.8099452342
| 14> H -1.9765037416 0.4113894135 -1.7848011579
| 15> H -3.2074998404 1.2550051793 -0.8421156087
| 16> H -2.5223116821 -0.8640290654 0.3081999249
| 17> H -2.0989362195 0.5689392669 1.2675490382
| 18> H 2.2364851446 1.2306219688 0.828728765
| 19> H 1.9752497171 -0.5326730074 1.0282994261
| 20> H 2.1009218461 0.9331553266 -1.6574065811
| 21> H 3.4026921919 -0.0522454082 -0.9702968999
| 22> H 1.8722775446 -0.8081375204 -1.4313557384
| 23> *
| 24>
| 25>                          ****END OF INPUT****

CARTESIAN COORDINATES (ANGSTROEM)
---------------------------------
  C     -2.168907    0.938266   -0.853439
  C     -1.895342    0.026786    0.342522
  C     -0.456239   -0.421389    0.386549
  O     -0.099470   -1.580548    0.450453
  O      0.383015    0.604852    0.368435
  C      1.794170    0.336462    0.388559
  C      2.327524    0.087399   -1.014043
  H     -1.530988    1.816316   -0.809945
  H     -1.976504    0.411389   -1.784801
  H     -3.207500    1.255005   -0.842116
  H     -2.522312   -0.864029    0.308200
  H     -2.098936    0.568939    1.267549
  H      2.236485    1.230622    0.828729
  H      1.975250   -0.532673    1.028299
  H      2.100922    0.933155   -1.657407
  H      3.402692   -0.052245   -0.970297
  H      1.872278   -0.808138   -1.431356

 Total Charge           Charge          ....    0
 Multiplicity           Mult            ....    1
 Number of Electrons    NEL             ....   56
 Basis Dimension        Dim             ....  193

ORBITAL ENERGIES
----------------

  NO   OCC          E(Eh)            E(eV)
   0   2.0000     -18.996458      -516.9199
   1   2.0000     -18.926858      -515.0260
   2   2.0000     -10.151356      -276.2324
   3   2.0000     -10.091629      -274.6072
   4   2.0000     -10.043704      -273.3031
   5   2.0000     -10.029374      -272.9132
   6   2.0000     -10.028877      -272.8996
   7   2.0000      -1.071725       -29.1631
   8   2.0000      -0.974216       -26.5098
   9   2.0000      -0.766155       -20.8481
  10   2.0000      -0.729166       -19.8416
  11   2.0000      -0.640291       -17.4232
  12   2.0000      -0.602908       -16.4060
  13   2.0000      -0.522271       -14.2117
  14   2.0000      -0.472150       -12.8479
  15   2.0000      -0.456933       -12.4338
  16   2.0000      -0.430072       -11.7029
  17   2.0000      -0.414678       -11.2840
  18   2.0000      -0.409662       -11.1475
  19   2.0000      -0.374914       -10.2019
  20   2.0000      -0.373054       -10.1513
  21   2.0000      -0.354923        -9.6579
  22   2.0000      -0.336094        -9.1456
  23   2.0000      -0.333660        -9.0793
  24   2.0000      -0.323003        -8.7893
  25   2.0000      -0.305497        -8.3130
  26   2.0000      -0.271021        -7.3749
  27   2.0000      -0.232238        -6.3195
  28   0.0000      -0.014309        -0.3894
  29   0.0000       0.076148         2.0721
  30   0.0000       0.090026         2.4497
  31   0.0000       0.116202         3.1620
  32   0.0000       0.123399         3.3579

MULLIKEN ATOMIC CHARGES
-----------------------
   0 C :   -0.468012
   1 C :   -0.303663
   2 C :    0.404398
   3 O :   -0.430065
   4 O :   -0.176713
   5 C :   -0.136711
   6 C :   -0.466149
   7 H :    0.163515
   8 H :    0.149661
   9 H :    0.149910
  10 H :    0.168436
  11 H :    0.158346
  12 H :    0.147451
  13 H :    0.168494
  14 H :    0.151038
  15 H :    0.146863
  16 H :    0.173202
Sum of atomic charges:    0.0000000

LOEWDIN ATOMIC CHARGES
----------------------
   0 C :   -0.396918
   1 C :   -0.235539
   2 C :    0.358084
   3 O :   -0.433142
   4 O :   -0.600205
   5 C :    0.027976
   6 C :   -0.390612
   7 H :    0.163031
   8 H :    0.155887
   9 H :    0.152012
  10 H :    0.175005
  11 H :    0.176958
  12 H :    0.177572
  13 H :    0.188246
  14 H :    0.156638
  15 H :    0.159324
  16 H :    0.165684

  Mayer bond orders larger than 0.100000
B(  0-C ,  1-C ) :   0.8893 B(  0-C ,  7-H ) :   0.9740 B(  0-C ,  8-H ) :   0.9740
B(  0-C ,  9-H ) :   0.9717 B(  1-C ,  2-C ) :   0.9843 B(  1-C , 10-H ) :   0.9873
B(  1-C , 11-H ) :   0.9482 B(  2-C ,  3-O ) :   1.8477 B(  2-C ,  4-O ) :   1.0419
B(  4-O ,  5-C ) :   0.8224 B(  5-C ,  6-C ) :   0.9341 B(  5-C , 12-H ) :   0.9619
B(  5-C , 13-H ) :   0.9698 B(  6-C , 14-H ) :   0.9731 B(  6-C , 15-H ) :   0.9648
B(  6-C , 16-H ) :   0.9719

Dispersion correction           -0.004063368
FINAL SINGLE POINT ENERGY      -346.935974437247

DIPOLE MOMENT
-------------

Method             : SCF
Type of density    : Electron Density
Multiplicity       :   1
Irrep              :   0
Energy             :  -346.9423423852597352 Eh
Relativity type    :
Basis              : AO
                                X                 Y                 Z
Electronic contribution:     -0.132463905      -2.876636477       3.663364572
Nuclear contribution   :      0.240047160       3.699121063      -3.799767532
                        -----------------------------------------
Total Dipole Moment    :      0.107583255       0.822484587      -0.136402961
                        -----------------------------------------
Magnitude (a.u.)       :      0.840631203
Magnitude (Debye)      :      2.136714711

Rotational constants in cm-1:             0.147859             0.056656             0.048542
Rotational constants in MHz :          4432.694891          1698.508999          1455.240678

                             ****ORCA TERMINATED NORMALLY****
TOTAL RUN TIME: 0 days 0 hours 0 minutes 21 seconds 327 msec
