                         Program Version 6.0.0  -   RELEASE  -
|  1> ! r2scan-3c def2/J RI DEFGRID2 scfconv6 printgap
|  2> %output
|  3>     printlevel normal
|  4> end
|  5> %cpcm
|  6>     smd true
|  7>     smdsolvent "water"
|  8> end
|  9> * xyz 0 1
| 10> C -2.1689069716 0.9382658272 -0.8534386835
| 11> C -1.8953424095 0.0267860492 0.3425218165
| 12> C -0.4562390258 -0.4213891811 0.3865489149
| 13> O -0.099469944 -1.5805477452 0.4504529359
| 14> O 0.3830151813 0.6048524884 0.3684353147
| 15> C 1.7941695066 0.33646205 0.3885589439
| 16> C 2.3275238891 0.0873988193 -1.0140434413
| 17> H -1.5309877101 1.8163160996 -0.8099452342
| 18> H -1.9765037416 0.4113894135 -1.7848011579
| 19> H -3.2074998404 1.2550051793 -0.8421156087
| 20> H -2.5223116821 -0.8640290654 0.3081999249
| 21> H -2.0989362195 0.5689392669 1.2675490382
| 22> H 2.2364851446 1.2306219688 0.828728765
| 23> H 1.9752497171 -0.5326730074 1.0282994261
| 24> H 2.1009218461 0.9331553266 -1.6574065811
| 25> H 3.4026921919 -0.0522454082 -0.9702968999
| 26> H 1.8722775446 -0.8081375204 -1.4313557384
| 27> *
| 28>
| 29>                          ****END OF INPUT****

CARTESIAN COORDINATES (ANGSTROEM)
---------------------------------
  C     -2.168907    0.938266   -0.853439
  C     -1.895342    0.026786    0.342522
  C     -0.456239   -0.421389    0.386549
  O     -0.099470   -1.580548    0.450453
  O      0.383015    0.604852    0.368435
  C      1.794170    0.336462    0.388559
  C      2.327524    0.087399   -1.014043
  H     -1.530988    1.816316   -0.809945
  H     -1.976504    0.411389   -1.784801
  H     -3.207500    1.255005   -0.842116
  H     -2.522312   -0.864029    0.308200
  H     -2.098936    0.568939    1.267549
  H      2.236485    1.230622    0.828729
  H      1.975250   -0.532673    1.028299
  H      2.100922    0.933155   -1.657407
  H      3.402692   -0.052245   -0.970297
  H      1.872278   -0.808138   -1.431356

 Total Charge           Charge          ....    0
 Multiplicity           Mult            ....    1
 Number of Electrons    NEL             ....   56
 Basis Dimension        Dim             ....  193

ORBITAL ENERGIES
----------------

  NO   OCC          E(Eh)            E(eV)
   0   2.0000     -19.001845      -517.0665
   1   2.0000     -18.942942      -515.4636
   2   2.0000     -10.162065      -276.5238
   3   2.0000     -10.083611      -274.3890
   4   2.0000     -10.037645      -273.1382
   5   2.0000     -10.019657      -272.6487
   6   2.0000     -10.018280      -272.6113
   7   2.0000      -1.078897       -29.3583
   8   2.0000      -0.988155       -26.8891
   9   2.0000      -0.761635       -20.7251
  10   2.0000      -0.721330       -19.6284
  11   2.0000      -0.634977       -17.2786
  12   2.0000      -0.596839       -16.2408
  13   2.0000      -0.519694       -14.1416
  14   2.0000      -0.469955       -12.7881
  15   2.0000      -0.462205       -12.5772
  16   2.0000      -0.439577       -11.9615
  17   2.0000      -0.409917       -11.1544
  18   2.0000      -0.404214       -10.9992
  19   2.0000      -0.372173       -10.1273
  20   2.0000      -0.366629        -9.9765
  21   2.0000      -0.347291        -9.4503
  22   2.0000      -0.333862        -9.0849
  23   2.0000      -0.328016        -8.9258
  24   2.0000      -0.318131        -8.6568
  25   2.0000      -0.302653        -8.2356
  26   2.0000      -0.277834        -7.5602
  27   2.0000      -0.248201        -6.7539
  28   0.0000      -0.022456        -0.6111
  29   0.0000       0.079404         2.1607
  30   0.0000       0.097287         2.6473
  31   0.0000       0.124812         3.3963
  32   0.0000       0.133680         3.6376

MULLIKEN ATOMIC CHARGES
-----------------------
   0 C :   -0.496871
   1 C :   -0.316920
   2 C :    0.446893
   3 O :   -0.516478
   4 O :   -0.194389
   5 C :   -0.142645
   6 C :   -0.490992
   7 H :    0.166929
   8 H :    0.164064
   9 H :    0.168203
  10 H :    0.174680
  11 H :    0.188141
  12 H :    0.173679
  13 H :    0.171456
  14 H :    0.165669
  15 H :    0.170220
  16 H :    0.168361
Sum of atomic charges:    0.0000000

LOEWDIN ATOMIC CHARGES
----------------------
   0 C :   -0.398393
   1 C :   -0.233005
   2 C :    0.368114
   3 O :   -0.494702
   4 O :   -0.601162
   5 C :    0.032551
   6 C :   -0.393404
   7 H :    0.163469
   8 H :    0.160017
   9 H :    0.158948
  10 H :    0.178321
  11 H :    0.188746
  12 H :    0.189033
  13 H :    0.189146
  14 H :    0.161841
  15 H :    0.167893
  16 H :    0.162588

  Mayer bond orders larger than 0.100000
B(  0-C ,  1-C ) :   0.8786 B(  0-C ,  7-H ) :   0.9724 B(  0-C ,  8-H ) :   0.9709
B(  0-C ,  9-H ) :   0.9670 B(  1-C ,  2-C ) :   0.9829 B(  1-C , 10-H ) :   0.9832
B(  1-C , 11-H ) :   0.9374 B(  2-C ,  3-O ) :   1.7769 B(  2-C ,  4-O ) :   1.0712
B(  4-O ,  5-C ) :   0.8036 B(  5-C ,  6-C ) :   0.9337 B(  5-C , 12-H ) :   0.9525
B(  5-C , 13-H ) :   0.9659 B(  6-C , 14-H ) :   0.9690 B(  6-C , 15-H ) :   0.9598
B(  6-C , 16-H ) :   0.9698

Dispersion correction           -0.004063368
FINAL SINGLE POINT ENERGY      -346.941061571012

DIPOLE MOMENT
-------------

Method             : SCF
Type of density    : Electron Density
Multiplicity       :   1
Irrep              :   0
Energy             :  -346.9474295190251496 Eh
Relativity type    :
Basis              : AO
                                X                 Y                 Z
Electronic contribution:     -0.125536474      -2.522717129       3.644560981
Nuclear contribution   :      0.240047160       3.699121063      -3.799767532
                        -----------------------------------------
Total Dipole Moment    :      0.114510686       1.176403935      -0.155206551
                        -----------------------------------------
Magnitude (a.u.)       :      1.192110728
Magnitude (Debye)      :      3.030104665

Rotational constants in cm-1:             0.147859             0.056656             0.048542
Rotational constants in MHz :          4432.694891          1698.508999          1455.240678

                             ****ORCA TERMINATED NORMALLY****
TOTAL RUN TIME: 0 days 0 hours 0 minutes 25 seconds 223 msec
