                         Program Version 6.0.0  -   RELEASE  -
|  1> ! pbe def2-sv(p) def2/J RI DEFGRID1 loosescf d4 GCP(DFT/SV(P)) printgap
|  2> %output
|  3>     printlevel normal
|  4> end
|  5> * xyz 0 1
|  6> C 2.2045647721 0.8053215328 0.4396904148
|  7> C 1.41540193 -0.4467070847 0.069203164
|  8> C 0.3166579357 -0.1822948009 -0.9708671494
|  9> C -1.1079157335 -0.014410451 -0.4183673691
| 10> C -1.21460471 1.1149934479 0.6032387125
| 11> C -1.643935292 -1.3186542622 0.1706004696
| 12> H 2.6921980426 1.2193015828 -0.4405288718
| 13> H 1.557022121 1.5681849347 0.8617779409
| 14> H 2.9722329919 0.5639670856 1.1720484526
| 15> H 2.1147833603 -1.1829315248 -0.3329438823
| 16> H 0.9815664714 -0.8787098552 0.9712249858
| 17> H 0.5776604416 0.7160120815 -1.5348978893
| 18> H 0.291733378 -1.0111399148 -1.6822473472
| 19> H -1.743360347 0.246938579 -1.2739839255
| 20> H -2.2543216331 1.2657700894 0.8861322689
| 21> H -0.8363243746 2.0454116078 0.1861920069
| 22> H -0.6516295988 0.8780731363 1.5021641337
| 23> H -2.6833320736 -1.1973341457 0.467006142
| 24> H -1.5868960602 -2.1208430346 -0.5615631079
| 25> H -1.0758397983 -1.6151525654 1.0487852917
| 26> *
| 27>
| 28>                          ****END OF INPUT****

CARTESIAN COORDINATES (ANGSTROEM)
---------------------------------
  C      2.204565    0.805322    0.439690
  C      1.415402   -0.446707    0.069203
  C      0.316658   -0.182295   -0.970867
  C     -1.107916   -0.014410   -0.418367
  C     -1.214605    1.114993    0.603239
  C     -1.643935   -1.318654    0.170600
  H      2.692198    1.219302   -0.440529
  H      1.557022    1.568185    0.861778
  H      2.972233    0.563967    1.172048
  H      2.114783   -1.182932   -0.332944
  H      0.981566   -0.878710    0.971225
  H      0.577660    0.716012   -1.534898
  H      0.291733   -1.011140   -1.682247
  H     -1.743360    0.246939   -1.273984
  H     -2.254322    1.265770    0.886132
  H     -0.836324    2.045412    0.186192
  H     -0.651630    0.878073    1.502164
  H     -2.683332   -1.197334    0.467006
  H     -1.586896   -2.120843   -0.561563
  H     -1.075840   -1.615153    1.048785

 Total Charge           Charge          ....    0
 Multiplicity           Mult            ....    1
 Number of Electrons    NEL             ....   50
 Basis Dimension        Dim             ....  112

ORBITAL ENERGIES
----------------

  NO   OCC          E(Eh)            E(eV)
   0   2.0000      -9.889763      -269.1141
   1   2.0000      -9.878195      -268.7993
   2   2.0000      -9.875400      -268.7233
   3   2.0000      -9.868714      -268.5414
   4   2.0000      -9.868468      -268.5347
   5   2.0000      -9.868298      -268.5301
   6   2.0000      -0.731487       -19.9048
   7   2.0000      -0.678644       -18.4668
   8   2.0000      -0.608646       -16.5621
   9   2.0000      -0.601233       -16.3604
  10   2.0000      -0.532736       -14.4965
  11   2.0000      -0.476992       -12.9796
  12   2.0000      -0.425778       -11.5860
  13   2.0000      -0.399057       -10.8589
  14   2.0000      -0.388820       -10.5803
  15   2.0000      -0.366101        -9.9621
  16   2.0000      -0.359508        -9.7827
  17   2.0000      -0.339940        -9.2503
  18   2.0000      -0.330534        -8.9943
  19   2.0000      -0.312216        -8.4958
  20   2.0000      -0.304049        -8.2736
  21   2.0000      -0.296099        -8.0573
  22   2.0000      -0.273765        -7.4495
  23   2.0000      -0.266793        -7.2598
  24   2.0000      -0.263031        -7.1574
  25   0.0000       0.031995         0.8706
  26   0.0000       0.059237         1.6119
  27   0.0000       0.069125         1.8810
  28   0.0000       0.071990         1.9589
  29   0.0000       0.097193         2.6448

MULLIKEN ATOMIC CHARGES
-----------------------
   0 C :   -0.293745
   1 C :   -0.190874
   2 C :   -0.121453
   3 C :   -0.183691
   4 C :   -0.251893
   5 C :   -0.250413
   6 H :    0.099628
   7 H :    0.104376
   8 H :    0.098807
   9 H :    0.081777
  10 H :    0.093857
  11 H :    0.077439
  12 H :    0.074717
  13 H :    0.068877
  14 H :    0.096492
  15 H :    0.101220
  16 H :    0.103046
  17 H :    0.096672
  18 H :    0.096028
  19 H :    0.099133
Sum of atomic charges:   -0.0000000

LOEWDIN ATOMIC CHARGES
----------------------
   0 C :   -0.342221
   1 C :   -0.237508
   2 C :   -0.219016
   3 C :   -0.156176
   4 C :   -0.331666
   5 C :   -0.331307
   6 H :    0.115831
   7 H :    0.115906
   8 H :    0.117192
   9 H :    0.116836
  10 H :    0.113119
  11 H :    0.112715
  12 H :    0.113669
  13 H :    0.113987
  14 H :    0.117345
  15 H :    0.116382
  16 H :    0.116546
  17 H :    0.117253
  18 H :    0.116183
  19 H :    0.114931

  Mayer bond orders larger than 0.100000
B(  0-C ,  1-C ) :   1.1598 B(  0-C ,  6-H ) :   0.9527 B(  0-C ,  7-H ) :   0.9494
B(  0-C ,  8-H ) :   0.9515 B(  1-C ,  2-C ) :   1.0862 B(  1-C ,  9-H ) :   0.9281
B(  1-C , 10-H ) :   0.9274 B(  2-C ,  3-C ) :   1.0984 B(  2-C , 11-H ) :   0.9251
B(  2-C , 12-H ) :   0.9227 B(  3-C ,  4-C ) :   1.1155 B(  3-C ,  5-C ) :   1.1127
B(  3-C , 13-H ) :   0.9009 B(  4-C , 14-H ) :   0.9483 B(  4-C , 15-H ) :   0.9468
B(  4-C , 16-H ) :   0.9405 B(  5-C , 17-H ) :   0.9508 B(  5-C , 18-H ) :   0.9512
B(  5-C , 19-H ) :   0.9431

Dispersion correction           -0.015269993
FINAL SINGLE POINT ENERGY      -236.445770684191

DIPOLE MOMENT
-------------

Method             : SCF
Type of density    : Electron Density
Multiplicity       :   1
Irrep              :   0
Energy             :  -236.5134766297256874 Eh
Relativity type    :
Basis              : AO
                                X                 Y                 Z
Electronic contribution:     -0.361499552      -0.481745614      -1.218590090
Nuclear contribution   :      0.333509657       0.466780269       1.190682452
                        -----------------------------------------
Total Dipole Moment    :     -0.027989895      -0.014965344      -0.027907637
                        -----------------------------------------
Magnitude (a.u.)       :      0.042263838
Magnitude (Debye)      :      0.107426138

Rotational constants in cm-1:             0.171730             0.073220             0.062692
Rotational constants in MHz :          5148.349164          2195.067544          1879.451660

                             ****ORCA TERMINATED NORMALLY****
TOTAL RUN TIME: 0 days 0 hours 0 minutes 8 seconds 551 msec
