                         Program Version 6.0.0  -   RELEASE  -
|  1> ! pbe def2-sv(p) def2/J RI DEFGRID1 loosescf d4 GCP(DFT/SV(P)) printgap
|  2> %output
|  3>     printlevel normal
|  4> end
|  5> * xyz 0 1
|  6> C 1.9156813827 -1.0546604484 0.2896629801
|  7> C 1.260251894 0.1900482296 0.8819468571
|  8> C 0.1799724429 0.8485670263 0.0037244114
|  9> H -0.0403037037 1.8285148411 0.4670934263
| 10> C -1.1813772087 0.1316252475 -0.114986788
| 11> C -1.1173980079 -1.2115619983 -0.8378300173
| 12> C -1.8629240671 -0.0153088984 1.2424394883
| 13> O 0.6483461292 1.0701659218 -1.3171443276
| 14> H 2.0799898389 -0.9222033937 -0.7768207415
| 15> H 1.3018036818 -1.9374673316 0.4334715933
| 16> H 2.8757519313 -1.2304011313 0.7693797051
| 17> H 0.8288597312 -0.0347081575 1.8565650285
| 18> H 2.0370635452 0.9440705997 1.0399856674
| 19> H -1.7869478979 0.8041347364 -0.7352071433
| 20> H -2.1172094521 -1.5063578534 -1.1482245929
| 21> H -0.4910719508 -1.1289293054 -1.7213774601
| 22> H -0.7225457782 -1.9879970377 -0.1900865768
| 23> H -2.8810397847 -0.3695648777 1.1036555196
| 24> H -1.8974179103 0.938088252 1.7647057423
| 25> H -1.3362977828 -0.7348183755 1.8641395753
| 26> H 1.4600485749 1.5929239341 -1.2766187162
| 27> *
| 28>
| 29>                          ****END OF INPUT****

CARTESIAN COORDINATES (ANGSTROEM)
---------------------------------
  C      1.915681   -1.054660    0.289663
  C      1.260252    0.190048    0.881947
  C      0.179972    0.848567    0.003724
  H     -0.040304    1.828515    0.467093
  C     -1.181377    0.131625   -0.114987
  C     -1.117398   -1.211562   -0.837830
  C     -1.862924   -0.015309    1.242439
  O      0.648346    1.070166   -1.317144
  H      2.079990   -0.922203   -0.776821
  H      1.301804   -1.937467    0.433472
  H      2.875752   -1.230401    0.769380
  H      0.828860   -0.034708    1.856565
  H      2.037064    0.944071    1.039986
  H     -1.786948    0.804135   -0.735207
  H     -2.117209   -1.506358   -1.148225
  H     -0.491072   -1.128929   -1.721377
  H     -0.722546   -1.987997   -0.190087
  H     -2.881040   -0.369565    1.103656
  H     -1.897418    0.938088    1.764706
  H     -1.336298   -0.734818    1.864140
  H      1.460049    1.592924   -1.276619

 Total Charge           Charge          ....    0
 Multiplicity           Mult            ....    1
 Number of Electrons    NEL             ....   58
 Basis Dimension        Dim             ....  126

ORBITAL ENERGIES
----------------

  NO   OCC          E(Eh)            E(eV)
   0   2.0000     -18.740893      -509.9656
   1   2.0000      -9.932612      -270.2801
   2   2.0000      -9.888784      -269.0875
   3   2.0000      -9.884004      -268.9574
   4   2.0000      -9.872427      -268.6424
   5   2.0000      -9.869222      -268.5552
   6   2.0000      -9.862625      -268.3757
   7   2.0000      -0.918141       -24.9839
   8   2.0000      -0.722853       -19.6698
   9   2.0000      -0.680364       -18.5136
  10   2.0000      -0.608486       -16.5578
  11   2.0000      -0.600617       -16.3436
  12   2.0000      -0.542206       -14.7542
  13   2.0000      -0.480313       -13.0700
  14   2.0000      -0.443617       -12.0714
  15   2.0000      -0.428847       -11.6695
  16   2.0000      -0.406780       -11.0690
  17   2.0000      -0.381861       -10.3910
  18   2.0000      -0.371640       -10.1128
  19   2.0000      -0.345524        -9.4022
  20   2.0000      -0.335033        -9.1167
  21   2.0000      -0.322883        -8.7861
  22   2.0000      -0.319044        -8.6816
  23   2.0000      -0.316468        -8.6115
  24   2.0000      -0.289126        -7.8675
  25   2.0000      -0.286314        -7.7910
  26   2.0000      -0.278011        -7.5651
  27   2.0000      -0.254221        -6.9177
  28   2.0000      -0.212529        -5.7832
  29   0.0000       0.019188         0.5221
  30   0.0000       0.048074         1.3082
  31   0.0000       0.060517         1.6468
  32   0.0000       0.076861         2.0915
  33   0.0000       0.083369         2.2686

MULLIKEN ATOMIC CHARGES
-----------------------
   0 C :   -0.265046
   1 C :   -0.202825
   2 C :    0.054225
   3 H :    0.050804
   4 C :   -0.154208
   5 C :   -0.247188
   6 C :   -0.257193
   7 O :   -0.414968
   8 H :    0.097467
   9 H :    0.106087
  10 H :    0.097605
  11 H :    0.087600
  12 H :    0.072519
  13 H :    0.074925
  14 H :    0.093618
  15 H :    0.116124
  16 H :    0.094885
  17 H :    0.101156
  18 H :    0.096710
  19 H :    0.102349
  20 H :    0.295355
Sum of atomic charges:   -0.0000000

LOEWDIN ATOMIC CHARGES
----------------------
   0 C :   -0.347710
   1 C :   -0.249716
   2 C :   -0.046623
   3 H :    0.094474
   4 C :   -0.158357
   5 C :   -0.333256
   6 C :   -0.329810
   7 O :   -0.325906
   8 H :    0.117715
   9 H :    0.117640
  10 H :    0.117861
  11 H :    0.121026
  12 H :    0.111361
  13 H :    0.120653
  14 H :    0.117565
  15 H :    0.124765
  16 H :    0.112373
  17 H :    0.121470
  18 H :    0.115843
  19 H :    0.115303
  20 H :    0.283328

  Mayer bond orders larger than 0.100000
B(  0-C ,  1-C ) :   1.1602 B(  0-C ,  8-H ) :   0.9395 B(  0-C ,  9-H ) :   0.9470
B(  0-C , 10-H ) :   0.9486 B(  1-C ,  2-C ) :   1.0629 B(  1-C , 11-H ) :   0.9097
B(  1-C , 12-H ) :   0.9186 B(  2-C ,  3-H ) :   0.8982 B(  2-C ,  4-C ) :   1.0446
B(  2-C ,  7-O ) :   1.0534 B(  4-C ,  5-C ) :   1.1294 B(  4-C ,  6-C ) :   1.1051
B(  4-C , 13-H ) :   0.8896 B(  5-C , 14-H ) :   0.9466 B(  5-C , 15-H ) :   0.9396
B(  5-C , 16-H ) :   0.9395 B(  6-C , 17-H ) :   0.9491 B(  6-C , 18-H ) :   0.9484
B(  6-C , 19-H ) :   0.9408 B(  7-O , 20-H ) :   0.8487

Dispersion correction           -0.017333879
FINAL SINGLE POINT ENERGY      -311.515053578809

DIPOLE MOMENT
-------------

Method             : SCF
Type of density    : Electron Density
Multiplicity       :   1
Irrep              :   0
Energy             :  -311.5944713350960456 Eh
Relativity type    :
Basis              : AO
                                X                 Y                 Z
Electronic contribution:      0.926639763       3.752637220      -2.844220412
Nuclear contribution   :     -0.637070083      -3.497273111       3.217736948
                        -----------------------------------------
Total Dipole Moment    :      0.289569680       0.255364109       0.373516536
                        -----------------------------------------
Magnitude (a.u.)       :      0.537192731
Magnitude (Debye)      :      1.365435409

Rotational constants in cm-1:             0.101720             0.064364             0.059850
Rotational constants in MHz :          3049.498093          1929.586473          1794.260804

                             ****ORCA TERMINATED NORMALLY****
TOTAL RUN TIME: 0 days 0 hours 0 minutes 9 seconds 283 msec
