                         Program Version 6.0.0  -   RELEASE  -
|  1> ! r2scan-3c def2/J RI DEFGRID2 scfconv6 printgap
|  2> %output
|  3>     printlevel normal
|  4> end
|  5> * xyz 0 1
|  6> C 2.1285029963 1.3329563985 -0.0353239733
|  7> C 1.2527286809 0.2560567234 0.5975279113
|  8> C 0.347966237 -0.4563882894 -0.4270623532
|  9> H 0.6574418847 -0.1335518387 -1.4283164232
| 10> C 0.5516539798 -1.9714462648 -0.3626205314
| 11> C -1.1475108874 -0.0931625247 -0.3047842125
| 12> C -1.7799291718 -0.5240134295 1.0177602509
| 13> C -1.3755430755 1.4009730433 -0.5331165103
| 14> H 1.519648884 2.1013947352 -0.5048768884
| 15> H 2.7538481115 1.805139539 0.7195279531
| 16> H 2.7775329459 0.8992109091 -0.7931737755
| 17> H 0.6513665314 0.7097533491 1.3851785785
| 18> H 1.9015165655 -0.4794729278 1.0768409366
| 19> H 1.5767151253 -2.221128278 -0.6274498716
| 20> H 0.3587885481 -2.3489213815 0.6382497005
| 21> H -0.1133641013 -2.4786697583 -1.0586249144
| 22> H -1.6652035219 -0.6324804907 -1.1080725271
| 23> H -1.7265160785 -1.6014826283 1.1437314664
| 24> H -2.8282744497 -0.2340706604 1.0338285715
| 25> H -1.2876426882 -0.0523118662 1.8643474538
| 26> H -2.4411157226 1.6186922608 -0.5564016045
| 27> H -0.9429110689 1.714045204 -1.4807945351
| 28> H -0.9280961375 1.9895710528 0.2634796729
| 29> *
| 30>
| 31>                          ****END OF INPUT****

CARTESIAN COORDINATES (ANGSTROEM)
---------------------------------
  C      2.128503    1.332956   -0.035324
  C      1.252729    0.256057    0.597528
  C      0.347966   -0.456388   -0.427062
  H      0.657442   -0.133552   -1.428316
  C      0.551654   -1.971446   -0.362621
  C     -1.147511   -0.093163   -0.304784
  C     -1.779929   -0.524013    1.017760
  C     -1.375543    1.400973   -0.533117
  H      1.519649    2.101395   -0.504877
  H      2.753848    1.805140    0.719528
  H      2.777533    0.899211   -0.793174
  H      0.651367    0.709753    1.385179
  H      1.901517   -0.479473    1.076841
  H      1.576715   -2.221128   -0.627450
  H      0.358789   -2.348921    0.638250
  H     -0.113364   -2.478670   -1.058625
  H     -1.665204   -0.632480   -1.108073
  H     -1.726516   -1.601483    1.143731
  H     -2.828274   -0.234071    1.033829
  H     -1.287643   -0.052312    1.864347
  H     -2.441116    1.618692   -0.556402
  H     -0.942911    1.714045   -1.480795
  H     -0.928096    1.989571    0.263480

 Total Charge           Charge          ....    0
 Multiplicity           Mult            ....    1
 Number of Electrons    NEL             ....   58
 Basis Dimension        Dim             ....  213

ORBITAL ENERGIES
----------------

  NO   OCC          E(Eh)            E(eV)
   0   2.0000     -10.029200      -272.9084
   1   2.0000     -10.026588      -272.8373
   2   2.0000     -10.019332      -272.6399
   3   2.0000     -10.013532      -272.4820
   4   2.0000     -10.012179      -272.4453
   5   2.0000     -10.011946      -272.4389
   6   2.0000     -10.011822      -272.4355
   7   2.0000      -0.787948       -21.4411
   8   2.0000      -0.726250       -19.7623
   9   2.0000      -0.686790       -18.6885
  10   2.0000      -0.647041       -17.6069
  11   2.0000      -0.596958       -16.2441
  12   2.0000      -0.567056       -15.4304
  13   2.0000      -0.500982       -13.6324
  14   2.0000      -0.442944       -12.0531
  15   2.0000      -0.413802       -11.2601
  16   2.0000      -0.410597       -11.1729
  17   2.0000      -0.387110       -10.5338
  18   2.0000      -0.380292       -10.3483
  19   2.0000      -0.367217        -9.9925
  20   2.0000      -0.352648        -9.5960
  21   2.0000      -0.345657        -9.4058
  22   2.0000      -0.333920        -9.0864
  23   2.0000      -0.317610        -8.6426
  24   2.0000      -0.311738        -8.4828
  25   2.0000      -0.300980        -8.1901
  26   2.0000      -0.278808        -7.5868
  27   2.0000      -0.274066        -7.4577
  28   2.0000      -0.269121        -7.3232
  29   0.0000       0.081350         2.2136
  30   0.0000       0.100464         2.7338
  31   0.0000       0.114995         3.1292
  32   0.0000       0.121319         3.3013
  33   0.0000       0.125597         3.4177

MULLIKEN ATOMIC CHARGES
-----------------------
   0 C :   -0.496860
   1 C :   -0.294756
   2 C :    0.003209
   3 H :    0.163389
   4 C :   -0.543970
   5 C :   -0.064588
   6 C :   -0.498249
   7 C :   -0.517347
   8 H :    0.153180
   9 H :    0.143569
  10 H :    0.146495
  11 H :    0.145559
  12 H :    0.152153
  13 H :    0.149727
  14 H :    0.160203
  15 H :    0.145388
  16 H :    0.148111
  17 H :    0.153610
  18 H :    0.143940
  19 H :    0.149304
  20 H :    0.147633
  21 H :    0.153083
  22 H :    0.157216
Sum of atomic charges:    0.0000000

LOEWDIN ATOMIC CHARGES
----------------------
   0 C :   -0.421784
   1 C :   -0.309619
   2 C :   -0.234890
   3 H :    0.159783
   4 C :   -0.415980
   5 C :   -0.239428
   6 C :   -0.416211
   7 C :   -0.416803
   8 H :    0.150476
   9 H :    0.148613
  10 H :    0.148757
  11 H :    0.154472
  12 H :    0.157024
  13 H :    0.152763
  14 H :    0.153212
  15 H :    0.152738
  16 H :    0.156784
  17 H :    0.154498
  18 H :    0.153949
  19 H :    0.152052
  20 H :    0.152445
  21 H :    0.153562
  22 H :    0.153588

  Mayer bond orders larger than 0.100000
B(  0-C ,  1-C ) :   0.8849 B(  0-C ,  8-H ) :   0.9777 B(  0-C ,  9-H ) :   0.9746
B(  0-C , 10-H ) :   0.9866 B(  1-C ,  2-C ) :   0.7988 B(  1-C , 11-H ) :   0.9790
B(  1-C , 12-H ) :   0.9753 B(  2-C ,  3-H ) :   0.9911 B(  2-C ,  4-C ) :   0.8881
B(  2-C ,  5-C ) :   0.8797 B(  4-C , 13-H ) :   0.9750 B(  4-C , 14-H ) :   0.9866
B(  4-C , 15-H ) :   0.9786 B(  5-C ,  6-C ) :   0.9122 B(  5-C ,  7-C ) :   0.8882
B(  5-C , 16-H ) :   0.9817 B(  6-C , 17-H ) :   0.9764 B(  6-C , 18-H ) :   0.9717
B(  6-C , 19-H ) :   0.9770 B(  7-C , 20-H ) :   0.9740 B(  7-C , 21-H ) :   0.9792
B(  7-C , 22-H ) :   0.9779

Dispersion correction           -0.006613926
FINAL SINGLE POINT ENERGY      -276.283342291938

DIPOLE MOMENT
-------------

Method             : SCF
Type of density    : Electron Density
Multiplicity       :   1
Irrep              :   0
Energy             :  -276.2879587787302285 Eh
Relativity type    :
Basis              : AO
                                X                 Y                 Z
Electronic contribution:     -0.259926035      -0.626989636      -0.564193865
Nuclear contribution   :      0.247425845       0.615168609       0.532382029
                        -----------------------------------------
Total Dipole Moment    :     -0.012500190      -0.011821027      -0.031811836
                        -----------------------------------------
Magnitude (a.u.)       :      0.036166066
Magnitude (Debye)      :      0.091926833

Rotational constants in cm-1:             0.095579             0.067475             0.049487
Rotational constants in MHz :          2865.379364          2022.858935          1483.595189

                             ****ORCA TERMINATED NORMALLY****
TOTAL RUN TIME: 0 days 0 hours 0 minutes 21 seconds 750 msec
