                         Program Version 6.0.0  -   RELEASE  -
|  1> ! r2scan-3c def2/J RI DEFGRID2 scfconv6 printgap
|  2> %output
|  3>     printlevel normal
|  4> end
|  5> %cpcm
|  6>     smd true
|  7>     smdsolvent "water"
|  8> end
|  9> * xyz 0 1
| 10> C 2.1285029963 1.3329563985 -0.0353239733
| 11> C 1.2527286809 0.2560567234 0.5975279113
| 12> C 0.347966237 -0.4563882894 -0.4270623532
| 13> H 0.6574418847 -0.1335518387 -1.4283164232
| 14> C 0.5516539798 -1.9714462648 -0.3626205314
| 15> C -1.1475108874 -0.0931625247 -0.3047842125
| 16> C -1.7799291718 -0.5240134295 1.0177602509
| 17> C -1.3755430755 1.4009730433 -0.5331165103
| 18> H 1.519648884 2.1013947352 -0.5048768884
| 19> H 2.7538481115 1.805139539 0.7195279531
| 20> H 2.7775329459 0.8992109091 -0.7931737755
| 21> H 0.6513665314 0.7097533491 1.3851785785
| 22> H 1.9015165655 -0.4794729278 1.0768409366
| 23> H 1.5767151253 -2.221128278 -0.6274498716
| 24> H 0.3587885481 -2.3489213815 0.6382497005
| 25> H -0.1133641013 -2.4786697583 -1.0586249144
| 26> H -1.6652035219 -0.6324804907 -1.1080725271
| 27> H -1.7265160785 -1.6014826283 1.1437314664
| 28> H -2.8282744497 -0.2340706604 1.0338285715
| 29> H -1.2876426882 -0.0523118662 1.8643474538
| 30> H -2.4411157226 1.6186922608 -0.5564016045
| 31> H -0.9429110689 1.714045204 -1.4807945351
| 32> H -0.9280961375 1.9895710528 0.2634796729
| 33> *
| 34>
| 35>                          ****END OF INPUT****

CARTESIAN COORDINATES (ANGSTROEM)
---------------------------------
  C      2.128503    1.332956   -0.035324
  C      1.252729    0.256057    0.597528
  C      0.347966   -0.456388   -0.427062
  H      0.657442   -0.133552   -1.428316
  C      0.551654   -1.971446   -0.362621
  C     -1.147511   -0.093163   -0.304784
  C     -1.779929   -0.524013    1.017760
  C     -1.375543    1.400973   -0.533117
  H      1.519649    2.101395   -0.504877
  H      2.753848    1.805140    0.719528
  H      2.777533    0.899211   -0.793174
  H      0.651367    0.709753    1.385179
  H      1.901517   -0.479473    1.076841
  H      1.576715   -2.221128   -0.627450
  H      0.358789   -2.348921    0.638250
  H     -0.113364   -2.478670   -1.058625
  H     -1.665204   -0.632480   -1.108073
  H     -1.726516   -1.601483    1.143731
  H     -2.828274   -0.234071    1.033829
  H     -1.287643   -0.052312    1.864347
  H     -2.441116    1.618692   -0.556402
  H     -0.942911    1.714045   -1.480795
  H     -0.928096    1.989571    0.263480

 Total Charge           Charge          ....    0
 Multiplicity           Mult            ....    1
 Number of Electrons    NEL             ....   58
 Basis Dimension        Dim             ....  213

ORBITAL ENERGIES
----------------

  NO   OCC          E(Eh)            E(eV)
   0   2.0000     -10.021354      -272.6949
   1   2.0000     -10.018732      -272.6235
   2   2.0000     -10.011304      -272.4214
   3   2.0000     -10.006435      -272.2889
   4   2.0000     -10.004177      -272.2275
   5   2.0000     -10.004000      -272.2227
   6   2.0000     -10.003949      -272.2213
   7   2.0000      -0.780132       -21.2285
   8   2.0000      -0.718808       -19.5598
   9   2.0000      -0.679579       -18.4923
  10   2.0000      -0.639731       -17.4080
  11   2.0000      -0.589894       -16.0518
  12   2.0000      -0.559634       -15.2284
  13   2.0000      -0.493399       -13.4261
  14   2.0000      -0.434954       -11.8357
  15   2.0000      -0.406207       -11.0535
  16   2.0000      -0.403148       -10.9702
  17   2.0000      -0.379806       -10.3350
  18   2.0000      -0.372758       -10.1433
  19   2.0000      -0.359899        -9.7933
  20   2.0000      -0.344911        -9.3855
  21   2.0000      -0.338050        -9.1988
  22   2.0000      -0.326522        -8.8851
  23   2.0000      -0.310104        -8.4383
  24   2.0000      -0.303961        -8.2712
  25   2.0000      -0.293336        -7.9821
  26   2.0000      -0.271194        -7.3796
  27   2.0000      -0.266242        -7.2448
  28   2.0000      -0.261216        -7.1080
  29   0.0000       0.089562         2.4371
  30   0.0000       0.107731         2.9315
  31   0.0000       0.123019         3.3475
  32   0.0000       0.128873         3.5068
  33   0.0000       0.132764         3.6127

MULLIKEN ATOMIC CHARGES
-----------------------
   0 C :   -0.533990
   1 C :   -0.306172
   2 C :    0.006935
   3 H :    0.168491
   4 C :   -0.579105
   5 C :   -0.046852
   6 C :   -0.544578
   7 C :   -0.557254
   8 H :    0.160559
   9 H :    0.152460
  10 H :    0.156727
  11 H :    0.159130
  12 H :    0.157729
  13 H :    0.159082
  14 H :    0.168945
  15 H :    0.154942
  16 H :    0.154842
  17 H :    0.162857
  18 H :    0.154987
  19 H :    0.162304
  20 H :    0.158166
  21 H :    0.161938
  22 H :    0.167856
Sum of atomic charges:    0.0000000

LOEWDIN ATOMIC CHARGES
----------------------
   0 C :   -0.429850
   1 C :   -0.312233
   2 C :   -0.233944
   3 H :    0.161295
   4 C :   -0.423743
   5 C :   -0.237804
   6 C :   -0.425172
   7 C :   -0.424837
   8 H :    0.151982
   9 H :    0.150322
  10 H :    0.150997
  11 H :    0.158295
  12 H :    0.157893
  13 H :    0.154624
  14 H :    0.155391
  15 H :    0.154594
  16 H :    0.158571
  17 H :    0.156312
  18 H :    0.156076
  19 H :    0.155031
  20 H :    0.154278
  21 H :    0.155645
  22 H :    0.156276

  Mayer bond orders larger than 0.100000
B(  0-C ,  1-C ) :   0.8781 B(  0-C ,  8-H ) :   0.9764 B(  0-C ,  9-H ) :   0.9729
B(  0-C , 10-H ) :   0.9837 B(  1-C ,  2-C ) :   0.7964 B(  1-C , 11-H ) :   0.9776
B(  1-C , 12-H ) :   0.9755 B(  2-C ,  3-H ) :   0.9908 B(  2-C ,  4-C ) :   0.8838
B(  2-C ,  5-C ) :   0.8792 B(  4-C , 13-H ) :   0.9728 B(  4-C , 14-H ) :   0.9826
B(  4-C , 15-H ) :   0.9775 B(  5-C ,  6-C ) :   0.9030 B(  5-C ,  7-C ) :   0.8805
B(  5-C , 16-H ) :   0.9825 B(  6-C , 17-H ) :   0.9735 B(  6-C , 18-H ) :   0.9702
B(  6-C , 19-H ) :   0.9756 B(  7-C , 20-H ) :   0.9726 B(  7-C , 21-H ) :   0.9761
B(  7-C , 22-H ) :   0.9765

Dispersion correction           -0.006613926
FINAL SINGLE POINT ENERGY      -276.279499736163

DIPOLE MOMENT
-------------

Method             : SCF
Type of density    : Electron Density
Multiplicity       :   1
Irrep              :   0
Energy             :  -276.2841162229553333 Eh
Relativity type    :
Basis              : AO
                                X                 Y                 Z
Electronic contribution:     -0.263547151      -0.623973680      -0.567091243
Nuclear contribution   :      0.247425845       0.615168609       0.532382029
                        -----------------------------------------
Total Dipole Moment    :     -0.016121306      -0.008805071      -0.034709214
                        -----------------------------------------
Magnitude (a.u.)       :      0.039270286
Magnitude (Debye)      :      0.099817134

Rotational constants in cm-1:             0.095579             0.067475             0.049487
Rotational constants in MHz :          2865.379364          2022.858935          1483.595189

                             ****ORCA TERMINATED NORMALLY****
TOTAL RUN TIME: 0 days 0 hours 0 minutes 25 seconds 674 msec
