                         Program Version 6.0.0  -   RELEASE  -
|  1> ! pbe def2-sv(p) def2/J RI DEFGRID1 loosescf d4 GCP(DFT/SV(P)) printgap
|  2> %output
|  3>     printlevel normal
|  4> end
|  5> * xyz 0 1
|  6> C -2.433657609 0.9053122091 -0.2410050057
|  7> C -1.1293990516 0.3021852652 0.2863921614
|  8> C -1.3629966041 -1.1633527164 0.6454895821
|  9> C -0.0350199926 0.5083139996 -0.77039078
| 10> C 1.4231223692 0.1710375357 -0.4047286921
| 11> C 1.811916774 0.6736504092 0.9839388506
| 12> C 1.7621989023 -1.3119119097 -0.5542541882
| 13> H -2.306212966 1.9596874603 -0.47583212
| 14> H -2.7508889388 0.3887526126 -1.144570448
| 15> H -3.2237416413 0.8143474147 0.5008525515
| 16> H -0.8525694182 0.8459954738 1.19466521
| 17> H -0.5367301449 -1.5679303355 1.2220847506
| 18> H -2.2649364023 -1.2593229437 1.2469738796
| 19> H -1.4868754468 -1.7615680373 -0.2543962365
| 20> H -0.0595469541 1.5669300144 -1.044346514
| 21> H -0.3049206624 -0.0597260335 -1.6643962709
| 22> H 2.0429984046 0.7081409856 -1.1345945382
| 23> H 1.3030452247 0.1072663316 1.7595899865
| 24> H 2.8837373549 0.5629073605 1.1334222536
| 25> H 1.5578303869 1.7252047216 1.0956106977
| 26> H 2.8357858014 -1.4564878094 -0.4501976065
| 27> H 1.2680957295 -1.9149287265 0.2003404174
| 28> H 1.4639590691 -1.6749993098 -1.5350452801
| 29> *
| 30>
| 31>                          ****END OF INPUT****

CARTESIAN COORDINATES (ANGSTROEM)
---------------------------------
  C     -2.433658    0.905312   -0.241005
  C     -1.129399    0.302185    0.286392
  C     -1.362997   -1.163353    0.645490
  C     -0.035020    0.508314   -0.770391
  C      1.423122    0.171038   -0.404729
  C      1.811917    0.673650    0.983939
  C      1.762199   -1.311912   -0.554254
  H     -2.306213    1.959687   -0.475832
  H     -2.750889    0.388753   -1.144570
  H     -3.223742    0.814347    0.500853
  H     -0.852569    0.845995    1.194665
  H     -0.536730   -1.567930    1.222085
  H     -2.264936   -1.259323    1.246974
  H     -1.486875   -1.761568   -0.254396
  H     -0.059547    1.566930   -1.044347
  H     -0.304921   -0.059726   -1.664396
  H      2.042998    0.708141   -1.134595
  H      1.303045    0.107266    1.759590
  H      2.883737    0.562907    1.133422
  H      1.557830    1.725205    1.095611
  H      2.835786   -1.456488   -0.450198
  H      1.268096   -1.914929    0.200340
  H      1.463959   -1.674999   -1.535045

 Total Charge           Charge          ....    0
 Multiplicity           Mult            ....    1
 Number of Electrons    NEL             ....   58
 Basis Dimension        Dim             ....  130

ORBITAL ENERGIES
----------------

  NO   OCC          E(Eh)            E(eV)
   0   2.0000      -9.889735      -269.1134
   1   2.0000      -9.889187      -269.0985
   2   2.0000      -9.875486      -268.7256
   3   2.0000      -9.869160      -268.5535
   4   2.0000      -9.868242      -268.5285
   5   2.0000      -9.867864      -268.5182
   6   2.0000      -9.866633      -268.4847
   7   2.0000      -0.737495       -20.0682
   8   2.0000      -0.695877       -18.9358
   9   2.0000      -0.610778       -16.6201
  10   2.0000      -0.606363       -16.5000
  11   2.0000      -0.599391       -16.3103
  12   2.0000      -0.514056       -13.9882
  13   2.0000      -0.475352       -12.9350
  14   2.0000      -0.417014       -11.3475
  15   2.0000      -0.412380       -11.2214
  16   2.0000      -0.391693       -10.6585
  17   2.0000      -0.371123       -10.0988
  18   2.0000      -0.366871        -9.9831
  19   2.0000      -0.347507        -9.4562
  20   2.0000      -0.339451        -9.2369
  21   2.0000      -0.332141        -9.0380
  22   2.0000      -0.316225        -8.6049
  23   2.0000      -0.311027        -8.4635
  24   2.0000      -0.293656        -7.9908
  25   2.0000      -0.289507        -7.8779
  26   2.0000      -0.272923        -7.4266
  27   2.0000      -0.266793        -7.2598
  28   2.0000      -0.256896        -6.9905
  29   0.0000       0.028424         0.7734
  30   0.0000       0.057685         1.5697
  31   0.0000       0.065516         1.7828
  32   0.0000       0.068262         1.8575
  33   0.0000       0.089222         2.4279

MULLIKEN ATOMIC CHARGES
-----------------------
   0 C :   -0.240126
   1 C :   -0.192233
   2 C :   -0.245392
   3 C :   -0.119078
   4 C :   -0.143508
   5 C :   -0.257310
   6 C :   -0.250630
   7 H :    0.095265
   8 H :    0.091467
   9 H :    0.096397
  10 H :    0.074214
  11 H :    0.113782
  12 H :    0.093144
  13 H :    0.090732
  14 H :    0.072209
  15 H :    0.069545
  16 H :    0.066075
  17 H :    0.104144
  18 H :    0.096752
  19 H :    0.098733
  20 H :    0.094618
  21 H :    0.096947
  22 H :    0.094252
Sum of atomic charges:    0.0000000

LOEWDIN ATOMIC CHARGES
----------------------
   0 C :   -0.327316
   1 C :   -0.158766
   2 C :   -0.330774
   3 C :   -0.210765
   4 C :   -0.156423
   5 C :   -0.330825
   6 C :   -0.332277
   7 H :    0.114966
   8 H :    0.115443
   9 H :    0.115078
  10 H :    0.114604
  11 H :    0.114727
  12 H :    0.116437
  13 H :    0.116712
  14 H :    0.113842
  15 H :    0.111863
  16 H :    0.115533
  17 H :    0.116406
  18 H :    0.117809
  19 H :    0.116654
  20 H :    0.116277
  21 H :    0.115213
  22 H :    0.115580

  Mayer bond orders larger than 0.100000
B(  0-C ,  1-C ) :   1.1103 B(  0-C ,  7-H ) :   0.9497 B(  0-C ,  8-H ) :   0.9513
B(  0-C ,  9-H ) :   0.9496 B(  1-C ,  2-C ) :   1.1183 B(  1-C ,  3-C ) :   1.0978
B(  1-C , 10-H ) :   0.8899 B(  2-C , 11-H ) :   0.9363 B(  2-C , 12-H ) :   0.9467
B(  2-C , 13-H ) :   0.9466 B(  3-C ,  4-C ) :   1.0823 B(  3-C , 14-H ) :   0.9135
B(  3-C , 15-H ) :   0.9143 B(  4-C ,  5-C ) :   1.1143 B(  4-C ,  6-C ) :   1.1196
B(  4-C , 16-H ) :   0.8994 B(  5-C , 17-H ) :   0.9398 B(  5-C , 18-H ) :   0.9483
B(  5-C , 19-H ) :   0.9497 B(  6-C , 20-H ) :   0.9489 B(  6-C , 21-H ) :   0.9415
B(  6-C , 22-H ) :   0.9488

Dispersion correction           -0.019088831
FINAL SINGLE POINT ENERGY      -275.659543745156

DIPOLE MOMENT
-------------

Method             : SCF
Type of density    : Electron Density
Multiplicity       :   1
Irrep              :   0
Energy             :  -275.7368767720366804 Eh
Relativity type    :
Basis              : AO
                                X                 Y                 Z
Electronic contribution:      0.438239851       0.994743260      -0.593311699
Nuclear contribution   :     -0.404320000      -0.952919486       0.609955727
                        -----------------------------------------
Total Dipole Moment    :      0.033919850       0.041823774       0.016644027
                        -----------------------------------------
Magnitude (a.u.)       :      0.056363179
Magnitude (Debye)      :      0.143263816

Rotational constants in cm-1:             0.128518             0.051801             0.047501
Rotational constants in MHz :          3852.865112          1552.956413          1424.032544

                             ****ORCA TERMINATED NORMALLY****
TOTAL RUN TIME: 0 days 0 hours 0 minutes 10 seconds 958 msec
