                         Program Version 6.0.0  -   RELEASE  -
|  1> ! pbe def2-sv(p) def2/J RI DEFGRID1 loosescf d4 GCP(DFT/SV(P)) printgap
|  2> %output
|  3>     printlevel normal
|  4> end
|  5> * xyz 0 1
|  6> C -1.4431667687 0.3741154654 -0.2145301689
|  7> C 0.0077896815 0.3841867211 0.2905621655
|  8> C 0.8125095618 -0.7272417306 -0.4045822821
|  9> O 2.097516708 -0.906249172 0.1501349341
| 10> O 0.5246657635 1.6725769648 0.0198823251
| 11> O -2.1250675575 -0.8166964991 0.0834572755
| 12> H -1.4385325224 0.461820688 -1.3033378251
| 13> H -1.9588979622 1.2493810703 0.1975134955
| 14> H 0.0179654384 0.1929768958 1.3736445881
| 15> H 0.8711218709 -0.5083562358 -1.4758674101
| 16> H 0.2803615461 -1.6709783218 -0.2669849936
| 17> H 2.6909003195 -0.2224956251 -0.1892205657
| 18> H 1.3437592666 1.8007844149 0.518073584
| 19> H -2.2754013947 -0.8737322553 1.0377292911
| 20> *
| 21>
| 22>                          ****END OF INPUT****

CARTESIAN COORDINATES (ANGSTROEM)
---------------------------------
  C     -1.443167    0.374115   -0.214530
  C      0.007790    0.384187    0.290562
  C      0.812510   -0.727242   -0.404582
  O      2.097517   -0.906249    0.150135
  O      0.524666    1.672577    0.019882
  O     -2.125068   -0.816696    0.083457
  H     -1.438533    0.461821   -1.303338
  H     -1.958898    1.249381    0.197513
  H      0.017965    0.192977    1.373645
  H      0.871122   -0.508356   -1.475867
  H      0.280362   -1.670978   -0.266985
  H      2.690900   -0.222496   -0.189221
  H      1.343759    1.800784    0.518074
  H     -2.275401   -0.873732    1.037729

 Total Charge           Charge          ....    0
 Multiplicity           Mult            ....    1
 Number of Electrons    NEL             ....   50
 Basis Dimension        Dim             ....  100

ORBITAL ENERGIES
----------------

  NO   OCC          E(Eh)            E(eV)
   0   2.0000     -18.755908      -510.3742
   1   2.0000     -18.751915      -510.2656
   2   2.0000     -18.748873      -510.1828
   3   2.0000      -9.936024      -270.3730
   4   2.0000      -9.930169      -270.2136
   5   2.0000      -9.924540      -270.0605
   6   2.0000      -0.939307       -25.5598
   7   2.0000      -0.925591       -25.1866
   8   2.0000      -0.915871       -24.9221
   9   2.0000      -0.681027       -18.5317
  10   2.0000      -0.603250       -16.4153
  11   2.0000      -0.542989       -14.7755
  12   2.0000      -0.478995       -13.0341
  13   2.0000      -0.471018       -12.8170
  14   2.0000      -0.444233       -12.0882
  15   2.0000      -0.403724       -10.9859
  16   2.0000      -0.391906       -10.6643
  17   2.0000      -0.360832        -9.8187
  18   2.0000      -0.348907        -9.4942
  19   2.0000      -0.306357        -8.3364
  20   2.0000      -0.279652        -7.6097
  21   2.0000      -0.275291        -7.4911
  22   2.0000      -0.246008        -6.6942
  23   2.0000      -0.228294        -6.2122
  24   2.0000      -0.201364        -5.4794
  25   0.0000       0.003046         0.0829
  26   0.0000       0.023966         0.6522
  27   0.0000       0.052538         1.4296
  28   0.0000       0.075777         2.0620
  29   0.0000       0.097384         2.6500

MULLIKEN ATOMIC CHARGES
-----------------------
   0 C :    0.032194
   1 C :   -0.032479
   2 C :    0.026851
   3 O :   -0.433102
   4 O :   -0.428535
   5 O :   -0.428679
   6 H :    0.087463
   7 H :    0.084810
   8 H :    0.051556
   9 H :    0.071764
  10 H :    0.088336
  11 H :    0.288913
  12 H :    0.292611
  13 H :    0.298295
Sum of atomic charges:    0.0000000

LOEWDIN ATOMIC CHARGES
----------------------
   0 C :   -0.126914
   1 C :   -0.101898
   2 C :   -0.141957
   3 O :   -0.341246
   4 O :   -0.331425
   5 O :   -0.329867
   6 H :    0.115951
   7 H :    0.100990
   8 H :    0.094454
   9 H :    0.101659
  10 H :    0.116048
  11 H :    0.278020
  12 H :    0.281180
  13 H :    0.285005

  Mayer bond orders larger than 0.100000
B(  0-C ,  1-C ) :   1.0160 B(  0-C ,  5-O ) :   1.0677 B(  0-C ,  6-H ) :   0.9180
B(  0-C ,  7-H ) :   0.9229 B(  1-C ,  2-C ) :   1.0241 B(  1-C ,  4-O ) :   1.0498
B(  1-C ,  8-H ) :   0.8988 B(  2-C ,  3-O ) :   1.0709 B(  2-C ,  9-H ) :   0.9178
B(  2-C , 10-H ) :   0.9087 B(  3-O , 11-H ) :   0.8526 B(  4-O , 12-H ) :   0.8468
B(  5-O , 13-H ) :   0.8514

Dispersion correction           -0.008997508
FINAL SINGLE POINT ENERGY      -344.005783087974

DIPOLE MOMENT
-------------

Method             : SCF
Type of density    : Electron Density
Multiplicity       :   1
Irrep              :   0
Energy             :  -344.0787824223288567 Eh
Relativity type    :
Basis              : AO
                                X                 Y                 Z
Electronic contribution:      0.780740535       0.084631211       0.570942144
Nuclear contribution   :     -0.432361031       0.402104197      -0.097980314
                        -----------------------------------------
Total Dipole Moment    :      0.348379505       0.486735409       0.472961830
                        -----------------------------------------
Magnitude (a.u.)       :      0.762871241
Magnitude (Debye)      :      1.939064594

Rotational constants in cm-1:             0.170902             0.079358             0.058419
Rotational constants in MHz :          5123.516059          2379.093649          1751.370868

                             ****ORCA TERMINATED NORMALLY****
TOTAL RUN TIME: 0 days 0 hours 0 minutes 6 seconds 594 msec
