                         Program Version 6.0.0  -   RELEASE  -
|  1> ! pbe def2-sv(p) def2/J RI DEFGRID1 loosescf d4 GCP(DFT/SV(P)) printgap
|  2> %output
|  3>     printlevel normal
|  4> end
|  5> * xyz 0 1
|  6> C -3.3052580118 1.1374201931 -0.7396280768
|  7> C -1.9335616281 1.3209836458 -0.1758708877
|  8> O -1.6196442677 2.1275345438 0.6697526142
|  9> O -1.0732701658 0.4446164705 -0.716654187
| 10> C 0.2616538979 0.4370356846 -0.3390363831
| 11> C 1.0314765145 1.5827161332 -0.4712627537
| 12> C 2.3791936372 1.5548328749 -0.1565629871
| 13> C 2.971092157 0.3796094598 0.2793556303
| 14> C 2.2082804624 -0.7633784812 0.4070179984
| 15> C 0.844314602 -0.7536142657 0.1116168076
| 16> C 0.0965320012 -2.0167998875 0.3032968704
| 17> O 0.6453321256 -3.0789428356 0.5324019065
| 18> O -1.220368956 -1.9123160282 0.2283514271
| 19> H -3.7850545633 2.1052566213 -0.8496333014
| 20> H -3.886399561 0.5485872465 -0.0329506241
| 21> H -3.2523871127 0.6097766957 -1.6855381868
| 22> H 0.5650796254 2.4915508173 -0.8177588681
| 23> H 2.9653183729 2.45390691 -0.2591967077
| 24> H 4.0216849157 0.3558731439 0.5184559379
| 25> H 2.6394155709 -1.6935882246 0.7441790778
| 26> H -1.6582863768 -2.7767675332 0.3587075093
| 27> *
| 28>
| 29>                          ****END OF INPUT****

CARTESIAN COORDINATES (ANGSTROEM)
---------------------------------
  C     -3.305258    1.137420   -0.739628
  C     -1.933562    1.320984   -0.175871
  O     -1.619644    2.127535    0.669753
  O     -1.073270    0.444616   -0.716654
  C      0.261654    0.437036   -0.339036
  C      1.031477    1.582716   -0.471263
  C      2.379194    1.554833   -0.156563
  C      2.971092    0.379609    0.279356
  C      2.208280   -0.763378    0.407018
  C      0.844315   -0.753614    0.111617
  C      0.096532   -2.016800    0.303297
  O      0.645332   -3.078943    0.532402
  O     -1.220369   -1.912316    0.228351
  H     -3.785055    2.105257   -0.849633
  H     -3.886400    0.548587   -0.032951
  H     -3.252387    0.609777   -1.685538
  H      0.565080    2.491551   -0.817759
  H      2.965318    2.453907   -0.259197
  H      4.021685    0.355873    0.518456
  H      2.639416   -1.693588    0.744179
  H     -1.658286   -2.776768    0.358708

 Total Charge           Charge          ....    0
 Multiplicity           Mult            ....    1
 Number of Electrons    NEL             ....   94
 Basis Dimension        Dim             ....  198

ORBITAL ENERGIES
----------------

  NO   OCC          E(Eh)            E(eV)
   0   2.0000     -18.816694      -512.0283
   1   2.0000     -18.804945      -511.7086
   2   2.0000     -18.745202      -510.0829
   3   2.0000     -18.739170      -509.9188
   4   2.0000     -10.020327      -272.6670
   5   2.0000     -10.020064      -272.6598
   6   2.0000      -9.973626      -271.3962
   7   2.0000      -9.921169      -269.9687
   8   2.0000      -9.912263      -269.7264
   9   2.0000      -9.909016      -269.6380
  10   2.0000      -9.908040      -269.6115
  11   2.0000      -9.905714      -269.5482
  12   2.0000      -9.900283      -269.4004
  13   2.0000      -1.025257       -27.8987
  14   2.0000      -1.012837       -27.5607
  15   2.0000      -0.926343       -25.2071
  16   2.0000      -0.913445       -24.8561
  17   2.0000      -0.795453       -21.6454
  18   2.0000      -0.714998       -19.4561
  19   2.0000      -0.701473       -19.0880
  20   2.0000      -0.669804       -18.2263
  21   2.0000      -0.613769       -16.7015
  22   2.0000      -0.595963       -16.2170
  23   2.0000      -0.548774       -14.9329
  24   2.0000      -0.530837       -14.4448
  25   2.0000      -0.477000       -12.9798
  26   2.0000      -0.450913       -12.2700
  27   2.0000      -0.443598       -12.0709
  28   2.0000      -0.432999       -11.7825
  29   2.0000      -0.426204       -11.5976
  30   2.0000      -0.412375       -11.2213
  31   2.0000      -0.408090       -11.1047
  32   2.0000      -0.405498       -11.0342
  33   2.0000      -0.393796       -10.7157
  34   2.0000      -0.370223       -10.0743
  35   2.0000      -0.363192        -9.8830
  36   2.0000      -0.351347        -9.5606
  37   2.0000      -0.349662        -9.5148
  38   2.0000      -0.336342        -9.1523
  39   2.0000      -0.325465        -8.8564
  40   2.0000      -0.317413        -8.6372
  41   2.0000      -0.279226        -7.5981
  42   2.0000      -0.275465        -7.4958
  43   2.0000      -0.247070        -6.7231
  44   2.0000      -0.232730        -6.3329
  45   2.0000      -0.230320        -6.2673
  46   2.0000      -0.226445        -6.1619
  47   0.0000      -0.081701        -2.2232
  48   0.0000      -0.051586        -1.4037
  49   0.0000      -0.025882        -0.7043
  50   0.0000       0.014205         0.3865
  51   0.0000       0.021718         0.5910

MULLIKEN ATOMIC CHARGES
-----------------------
   0 C :   -0.249716
   1 C :    0.099736
   2 O :   -0.191740
   3 O :   -0.198078
   4 C :    0.197373
   5 C :   -0.101199
   6 C :   -0.042725
   7 C :   -0.024330
   8 C :   -0.117849
   9 C :    0.011661
  10 C :    0.108635
  11 O :   -0.183463
  12 O :   -0.278886
  13 H :    0.132610
  14 H :    0.139683
  15 H :    0.123888
  16 H :    0.058087
  17 H :    0.066179
  18 H :    0.062099
  19 H :    0.071081
  20 H :    0.316955
Sum of atomic charges:    0.0000000

LOEWDIN ATOMIC CHARGES
----------------------
   0 C :   -0.357208
   1 C :    0.045710
   2 O :   -0.153156
   3 O :   -0.018241
   4 C :    0.058723
   5 C :   -0.123682
   6 C :   -0.099861
   7 C :   -0.124184
   8 C :   -0.082094
   9 C :   -0.086975
  10 C :    0.034826
  11 O :   -0.170931
  12 O :   -0.197063
  13 H :    0.145638
  14 H :    0.153663
  15 H :    0.138261
  16 H :    0.136810
  17 H :    0.130647
  18 H :    0.129682
  19 H :    0.139657
  20 H :    0.299778

  Mayer bond orders larger than 0.100000
B(  0-C ,  1-C ) :   1.0872 B(  0-C , 13-H ) :   0.9347 B(  0-C , 14-H ) :   0.9205
B(  0-C , 15-H ) :   0.9350 B(  1-C ,  2-O ) :   2.0932 B(  1-C ,  3-O ) :   1.1184
B(  3-O ,  4-C ) :   1.0206 B(  4-C ,  5-C ) :   1.3777 B(  4-C ,  9-C ) :   1.3462
B(  5-C ,  6-C ) :   1.3521 B(  5-C , 16-H ) :   0.9584 B(  6-C ,  7-C ) :   1.3382
B(  6-C , 17-H ) :   0.9635 B(  7-C ,  8-C ) :   1.3592 B(  7-C , 18-H ) :   0.9701
B(  8-C ,  9-C ) :   1.3902 B(  8-C , 19-H ) :   0.9554 B(  9-C , 10-C ) :   0.9306
B( 10-C , 11-O ) :   2.0967 B( 10-C , 12-O ) :   1.3105 B( 12-O , 20-H ) :   0.8187

Dispersion correction           -0.023997603
FINAL SINGLE POINT ENERGY      -647.387774727548

DIPOLE MOMENT
-------------

Method             : SCF
Type of density    : Electron Density
Multiplicity       :   1
Irrep              :   0
Energy             :  -647.4562113551107814 Eh
Relativity type    :
Basis              : AO
                                X                 Y                 Z
Electronic contribution:      1.832850236      -3.638758238       1.327120401
Nuclear contribution   :     -2.291207422       3.805618370      -1.888042750
                        -----------------------------------------
Total Dipole Moment    :     -0.458357186       0.166860132      -0.560922349
                        -----------------------------------------
Magnitude (a.u.)       :      0.743348838
Magnitude (Debye)      :      1.889442590

Rotational constants in cm-1:             0.036317             0.024732             0.015538
Rotational constants in MHz :          1088.764357           741.450469           465.824357

                             ****ORCA TERMINATED NORMALLY****
TOTAL RUN TIME: 0 days 0 hours 0 minutes 15 seconds 146 msec
