                         Program Version 6.0.0  -   RELEASE  -
|  1> ! pbe def2-sv(p) def2/J RI DEFGRID1 loosescf d4 GCP(DFT/SV(P)) printgap
|  2> %output
|  3>     printlevel normal
|  4> end
|  5> * xyz 0 1
|  6> C 1.7868806169 -0.7612837137 0.9598087931
|  7> C 1.1777713263 0.4363511931 0.231889083
|  8> H 0.8610155693 1.1872078613 0.9628220733
|  9> C -0.0065047517 0.0393084293 -0.6606293625
| 10> C -1.2422176872 -0.4909205547 0.0747549893
| 11> C -1.8827374266 0.5781460456 0.9571384406
| 12> C -2.2597696909 -0.9967624066 -0.9481989664
| 13> O 2.161505054 1.1138463108 -0.5372631356
| 14> H 2.0294370562 -1.5524363547 0.2532483012
| 15> H 2.6971942643 -0.4526179678 1.4682493351
| 16> H 1.0931232649 -1.1498392999 1.6982151349
| 17> H -0.2917468703 0.9191755345 -1.2434245813
| 18> H 0.3383882548 -0.7261518287 -1.361728054
| 19> H -0.9455190111 -1.3346241611 0.7055269477
| 20> H -1.2111830852 0.8859171196 1.7538730949
| 21> H -2.7926790805 0.1932730817 1.4115212055
| 22> H -2.1386871316 1.4535932089 0.3643750041
| 23> H -2.575084361 -0.1854768885 -1.6006288703
| 24> H -1.8307056871 -1.7849816803 -1.5622589884
| 25> H -3.1383158622 -1.3942078425 -0.4459271284
| 26> H 2.5102193257 0.5025405729 -1.2013932953
| 27> *
| 28>
| 29>                          ****END OF INPUT****

CARTESIAN COORDINATES (ANGSTROEM)
---------------------------------
  C      1.786881   -0.761284    0.959809
  C      1.177771    0.436351    0.231889
  H      0.861016    1.187208    0.962822
  C     -0.006505    0.039308   -0.660629
  C     -1.242218   -0.490921    0.074755
  C     -1.882737    0.578146    0.957138
  C     -2.259770   -0.996762   -0.948199
  O      2.161505    1.113846   -0.537263
  H      2.029437   -1.552436    0.253248
  H      2.697194   -0.452618    1.468249
  H      1.093123   -1.149839    1.698215
  H     -0.291747    0.919176   -1.243425
  H      0.338388   -0.726152   -1.361728
  H     -0.945519   -1.334624    0.705527
  H     -1.211183    0.885917    1.753873
  H     -2.792679    0.193273    1.411521
  H     -2.138687    1.453593    0.364375
  H     -2.575084   -0.185477   -1.600629
  H     -1.830706   -1.784982   -1.562259
  H     -3.138316   -1.394208   -0.445927
  H      2.510219    0.502541   -1.201393

 Total Charge           Charge          ....    0
 Multiplicity           Mult            ....    1
 Number of Electrons    NEL             ....   58
 Basis Dimension        Dim             ....  126

ORBITAL ENERGIES
----------------

  NO   OCC          E(Eh)            E(eV)
   0   2.0000     -18.733899      -509.7753
   1   2.0000      -9.933188      -270.2958
   2   2.0000      -9.896862      -269.3073
   3   2.0000      -9.879791      -268.8428
   4   2.0000      -9.874496      -268.6987
   5   2.0000      -9.873772      -268.6790
   6   2.0000      -9.873018      -268.6585
   7   2.0000      -0.912349       -24.8263
   8   2.0000      -0.733889       -19.9701
   9   2.0000      -0.673187       -18.3183
  10   2.0000      -0.612687       -16.6721
  11   2.0000      -0.609440       -16.5837
  12   2.0000      -0.543687       -14.7945
  13   2.0000      -0.498026       -13.5520
  14   2.0000      -0.438575       -11.9342
  15   2.0000      -0.424070       -11.5395
  16   2.0000      -0.398189       -10.8353
  17   2.0000      -0.391044       -10.6408
  18   2.0000      -0.372274       -10.1301
  19   2.0000      -0.359126        -9.7723
  20   2.0000      -0.343167        -9.3380
  21   2.0000      -0.330817        -9.0020
  22   2.0000      -0.323164        -8.7937
  23   2.0000      -0.311121        -8.4660
  24   2.0000      -0.302305        -8.2261
  25   2.0000      -0.286674        -7.8008
  26   2.0000      -0.281640        -7.6638
  27   2.0000      -0.259622        -7.0647
  28   2.0000      -0.207376        -5.6430
  29   0.0000       0.027755         0.7552
  30   0.0000       0.041609         1.1322
  31   0.0000       0.060021         1.6332
  32   0.0000       0.068198         1.8558
  33   0.0000       0.079912         2.1745

MULLIKEN ATOMIC CHARGES
-----------------------
   0 C :   -0.265878
   1 C :    0.034510
   2 H :    0.073612
   3 C :   -0.125338
   4 C :   -0.197119
   5 C :   -0.253875
   6 C :   -0.232972
   7 O :   -0.429987
   8 H :    0.083340
   9 H :    0.110621
  10 H :    0.107506
  11 H :    0.082635
  12 H :    0.058013
  13 H :    0.077007
  14 H :    0.109861
  15 H :    0.098676
  16 H :    0.095641
  17 H :    0.092904
  18 H :    0.095916
  19 H :    0.097356
  20 H :    0.287572
Sum of atomic charges:    0.0000000

LOEWDIN ATOMIC CHARGES
----------------------
   0 C :   -0.354056
   1 C :   -0.058873
   2 H :    0.112001
   3 C :   -0.230406
   4 C :   -0.159608
   5 C :   -0.330117
   6 C :   -0.327249
   7 O :   -0.330935
   8 H :    0.113615
   9 H :    0.124148
  10 H :    0.122692
  11 H :    0.117946
  12 H :    0.107258
  13 H :    0.113326
  14 H :    0.116479
  15 H :    0.118485
  16 H :    0.118752
  17 H :    0.116873
  18 H :    0.115753
  19 H :    0.116356
  20 H :    0.277561

  Mayer bond orders larger than 0.100000
B(  0-C ,  1-C ) :   1.1071 B(  0-C ,  8-H ) :   0.9419 B(  0-C ,  9-H ) :   0.9442
B(  0-C , 10-H ) :   0.9327 B(  1-C ,  2-H ) :   0.8966 B(  1-C ,  3-C ) :   1.0779
B(  1-C ,  7-O ) :   1.0304 B(  3-C ,  4-C ) :   1.0655 B(  3-C , 11-H ) :   0.9076
B(  3-C , 12-H ) :   0.9063 B(  4-C ,  5-C ) :   1.1054 B(  4-C ,  6-C ) :   1.1100
B(  4-C , 13-H ) :   0.8975 B(  5-C , 14-H ) :   0.9450 B(  5-C , 15-H ) :   0.9496
B(  5-C , 16-H ) :   0.9495 B(  6-C , 17-H ) :   0.9502 B(  6-C , 18-H ) :   0.9499
B(  6-C , 19-H ) :   0.9504 B(  7-O , 20-H ) :   0.8565

Dispersion correction           -0.016276970
FINAL SINGLE POINT ENERGY      -311.518218160112

DIPOLE MOMENT
-------------

Method             : SCF
Type of density    : Electron Density
Multiplicity       :   1
Irrep              :   0
Energy             :  -311.5977495386209739 Eh
Relativity type    :
Basis              : AO
                                X                 Y                 Z
Electronic contribution:      4.864147153       2.632936152      -1.188056625
Nuclear contribution   :     -5.028885520      -3.209465705       1.120140288
                        -----------------------------------------
Total Dipole Moment    :     -0.164738367      -0.576529553      -0.067916337
                        -----------------------------------------
Magnitude (a.u.)       :      0.603438219
Magnitude (Debye)      :      1.533818059

Rotational constants in cm-1:             0.141055             0.045230             0.044069
Rotational constants in MHz :          4228.732955          1355.966287          1321.169011

                             ****ORCA TERMINATED NORMALLY****
TOTAL RUN TIME: 0 days 0 hours 0 minutes 10 seconds 297 msec
