                         Program Version 6.0.0  -   RELEASE  -
|  1> ! r2scan-3c def2/J RI DEFGRID2 scfconv6 printgap
|  2> %output
|  3>     printlevel normal
|  4> end
|  5> * xyz 0 1
|  6> C 2.0219554077 1.2515454656 0.1015036881
|  7> C 1.532944964 0.1638441487 -0.8480276965
|  8> C 0.2804904852 -0.6126627393 -0.4057109951
|  9> H 0.0629659356 -1.3012417584 -1.2323305165
| 10> C 0.5629572228 -1.4766385378 0.8222939972
| 11> C -0.9666880234 0.2896625607 -0.2504037516
| 12> C -2.2206536645 -0.4566368246 -0.7114510571
| 13> C -1.1987413119 0.814937912 1.1666286294
| 14> H 1.2933826307 2.05322089 0.1850476555
| 15> H 2.2200416895 0.8491822267 1.0912109166
| 16> H 2.9476596453 1.6779585503 -0.2795574754
| 17> H 2.339588097 -0.5594586753 -0.9937360598
| 18> H 1.3275191344 0.6195238891 -1.8203723334
| 19> H -0.3114079237 -2.0691685403 1.0798993864
| 20> H 1.3828646144 -2.1596176478 0.6097868301
| 21> H 0.836082619 -0.8742746423 1.682930381
| 22> H -0.8313881725 1.1517170963 -0.914007818
| 23> H -2.3724304864 -1.3524451007 -0.113262879
| 24> H -2.1353922146 -0.7506029914 -1.7552782633
| 25> H -3.0991981692 0.1759360988 -0.6058104086
| 26> H -2.0104519822 1.5399031533 1.1559944188
| 27> H -0.3154952314 1.3026530526 1.5657325054
| 28> H -1.4805013879 0.0059331746 1.8353530902
| 29> *
| 30>
| 31>                          ****END OF INPUT****

CARTESIAN COORDINATES (ANGSTROEM)
---------------------------------
  C      2.021955    1.251545    0.101504
  C      1.532945    0.163844   -0.848028
  C      0.280490   -0.612663   -0.405711
  H      0.062966   -1.301242   -1.232331
  C      0.562957   -1.476639    0.822294
  C     -0.966688    0.289663   -0.250404
  C     -2.220654   -0.456637   -0.711451
  C     -1.198741    0.814938    1.166629
  H      1.293383    2.053221    0.185048
  H      2.220042    0.849182    1.091211
  H      2.947660    1.677959   -0.279557
  H      2.339588   -0.559459   -0.993736
  H      1.327519    0.619524   -1.820372
  H     -0.311408   -2.069169    1.079899
  H      1.382865   -2.159618    0.609787
  H      0.836083   -0.874275    1.682930
  H     -0.831388    1.151717   -0.914008
  H     -2.372430   -1.352445   -0.113263
  H     -2.135392   -0.750603   -1.755278
  H     -3.099198    0.175936   -0.605810
  H     -2.010452    1.539903    1.155994
  H     -0.315495    1.302653    1.565733
  H     -1.480501    0.005933    1.835353

 Total Charge           Charge          ....    0
 Multiplicity           Mult            ....    1
 Number of Electrons    NEL             ....   58
 Basis Dimension        Dim             ....  213

ORBITAL ENERGIES
----------------

  NO   OCC          E(Eh)            E(eV)
   0   2.0000     -10.028871      -272.8994
   1   2.0000     -10.026662      -272.8393
   2   2.0000     -10.020364      -272.6680
   3   2.0000     -10.013544      -272.4824
   4   2.0000     -10.012108      -272.4433
   5   2.0000     -10.011950      -272.4390
   6   2.0000     -10.011100      -272.4159
   7   2.0000      -0.787405       -21.4264
   8   2.0000      -0.727518       -19.7968
   9   2.0000      -0.682297       -18.5662
  10   2.0000      -0.647072       -17.6077
  11   2.0000      -0.610611       -16.6156
  12   2.0000      -0.556774       -15.1506
  13   2.0000      -0.496073       -13.4988
  14   2.0000      -0.431669       -11.7463
  15   2.0000      -0.428567       -11.6619
  16   2.0000      -0.422140       -11.4870
  17   2.0000      -0.389572       -10.6008
  18   2.0000      -0.365184        -9.9371
  19   2.0000      -0.358615        -9.7584
  20   2.0000      -0.352017        -9.5789
  21   2.0000      -0.346801        -9.4369
  22   2.0000      -0.340627        -9.2689
  23   2.0000      -0.326353        -8.8805
  24   2.0000      -0.308954        -8.4071
  25   2.0000      -0.300371        -8.1735
  26   2.0000      -0.278428        -7.5764
  27   2.0000      -0.273201        -7.4342
  28   2.0000      -0.266414        -7.2495
  29   0.0000       0.075961         2.0670
  30   0.0000       0.107648         2.9293
  31   0.0000       0.112008         3.0479
  32   0.0000       0.116337         3.1657
  33   0.0000       0.129725         3.5300

MULLIKEN ATOMIC CHARGES
-----------------------
   0 C :   -0.521207
   1 C :   -0.247392
   2 C :   -0.017642
   3 H :    0.150069
   4 C :   -0.544100
   5 C :   -0.089362
   6 C :   -0.504421
   7 C :   -0.489406
   8 H :    0.152805
   9 H :    0.156062
  10 H :    0.145900
  11 H :    0.139756
  12 H :    0.147016
  13 H :    0.155621
  14 H :    0.146938
  15 H :    0.161045
  16 H :    0.154621
  17 H :    0.151063
  18 H :    0.147729
  19 H :    0.143152
  20 H :    0.147170
  21 H :    0.161682
  22 H :    0.152901
Sum of atomic charges:   -0.0000000

LOEWDIN ATOMIC CHARGES
----------------------
   0 C :   -0.427045
   1 C :   -0.307878
   2 C :   -0.235153
   3 H :    0.160513
   4 C :   -0.413667
   5 C :   -0.240756
   6 C :   -0.415225
   7 C :   -0.416060
   8 H :    0.150204
   9 H :    0.149625
  10 H :    0.150908
  11 H :    0.153075
  12 H :    0.153316
  13 H :    0.153815
  14 H :    0.154341
  15 H :    0.153377
  16 H :    0.157385
  17 H :    0.152899
  18 H :    0.151603
  19 H :    0.151858
  20 H :    0.153704
  21 H :    0.154875
  22 H :    0.154285

  Mayer bond orders larger than 0.100000
B(  0-C ,  1-C ) :   0.8544 B(  0-C ,  8-H ) :   0.9769 B(  0-C ,  9-H ) :   0.9896
B(  0-C , 10-H ) :   0.9654 B(  1-C ,  2-C ) :   0.8893 B(  1-C , 11-H ) :   0.9853
B(  1-C , 12-H ) :   0.9839 B(  2-C ,  3-H ) :   0.9922 B(  2-C ,  4-C ) :   0.8840
B(  2-C ,  5-C ) :   0.8462 B(  4-C , 13-H ) :   0.9829 B(  4-C , 14-H ) :   0.9694
B(  4-C , 15-H ) :   0.9768 B(  5-C ,  6-C ) :   0.9061 B(  5-C ,  7-C ) :   0.8777
B(  5-C , 16-H ) :   0.9857 B(  6-C , 17-H ) :   0.9854 B(  6-C , 18-H ) :   0.9805
B(  6-C , 19-H ) :   0.9759 B(  7-C , 20-H ) :   0.9736 B(  7-C , 21-H ) :   0.9763
B(  7-C , 22-H ) :   0.9743

Dispersion correction           -0.006696573
FINAL SINGLE POINT ENERGY      -276.283260658890

DIPOLE MOMENT
-------------

Method             : SCF
Type of density    : Electron Density
Multiplicity       :   1
Irrep              :   0
Energy             :  -276.2878327316221885 Eh
Relativity type    :
Basis              : AO
                                X                 Y                 Z
Electronic contribution:      0.157159481      -0.283608932      -1.459173688
Nuclear contribution   :     -0.137122803       0.290097131       1.399361064
                        -----------------------------------------
Total Dipole Moment    :      0.020036678       0.006488199      -0.059812624
                        -----------------------------------------
Magnitude (a.u.)       :      0.063412264
Magnitude (Debye)      :      0.161181166

Rotational constants in cm-1:             0.112322             0.057973             0.053955
Rotational constants in MHz :          3367.330602          1737.995777          1617.542106

                             ****ORCA TERMINATED NORMALLY****
TOTAL RUN TIME: 0 days 0 hours 0 minutes 23 seconds 672 msec
