                         Program Version 6.0.0  -   RELEASE  -
|  1> ! r2scan-3c def2/J RI DEFGRID2 scfconv6 printgap
|  2> %output
|  3>     printlevel normal
|  4> end
|  5> %cpcm
|  6>     smd true
|  7>     smdsolvent "water"
|  8> end
|  9> * xyz 0 1
| 10> C 2.0219554077 1.2515454656 0.1015036881
| 11> C 1.532944964 0.1638441487 -0.8480276965
| 12> C 0.2804904852 -0.6126627393 -0.4057109951
| 13> H 0.0629659356 -1.3012417584 -1.2323305165
| 14> C 0.5629572228 -1.4766385378 0.8222939972
| 15> C -0.9666880234 0.2896625607 -0.2504037516
| 16> C -2.2206536645 -0.4566368246 -0.7114510571
| 17> C -1.1987413119 0.814937912 1.1666286294
| 18> H 1.2933826307 2.05322089 0.1850476555
| 19> H 2.2200416895 0.8491822267 1.0912109166
| 20> H 2.9476596453 1.6779585503 -0.2795574754
| 21> H 2.339588097 -0.5594586753 -0.9937360598
| 22> H 1.3275191344 0.6195238891 -1.8203723334
| 23> H -0.3114079237 -2.0691685403 1.0798993864
| 24> H 1.3828646144 -2.1596176478 0.6097868301
| 25> H 0.836082619 -0.8742746423 1.682930381
| 26> H -0.8313881725 1.1517170963 -0.914007818
| 27> H -2.3724304864 -1.3524451007 -0.113262879
| 28> H -2.1353922146 -0.7506029914 -1.7552782633
| 29> H -3.0991981692 0.1759360988 -0.6058104086
| 30> H -2.0104519822 1.5399031533 1.1559944188
| 31> H -0.3154952314 1.3026530526 1.5657325054
| 32> H -1.4805013879 0.0059331746 1.8353530902
| 33> *
| 34>
| 35>                          ****END OF INPUT****

CARTESIAN COORDINATES (ANGSTROEM)
---------------------------------
  C      2.021955    1.251545    0.101504
  C      1.532945    0.163844   -0.848028
  C      0.280490   -0.612663   -0.405711
  H      0.062966   -1.301242   -1.232331
  C      0.562957   -1.476639    0.822294
  C     -0.966688    0.289663   -0.250404
  C     -2.220654   -0.456637   -0.711451
  C     -1.198741    0.814938    1.166629
  H      1.293383    2.053221    0.185048
  H      2.220042    0.849182    1.091211
  H      2.947660    1.677959   -0.279557
  H      2.339588   -0.559459   -0.993736
  H      1.327519    0.619524   -1.820372
  H     -0.311408   -2.069169    1.079899
  H      1.382865   -2.159618    0.609787
  H      0.836083   -0.874275    1.682930
  H     -0.831388    1.151717   -0.914008
  H     -2.372430   -1.352445   -0.113263
  H     -2.135392   -0.750603   -1.755278
  H     -3.099198    0.175936   -0.605810
  H     -2.010452    1.539903    1.155994
  H     -0.315495    1.302653    1.565733
  H     -1.480501    0.005933    1.835353

 Total Charge           Charge          ....    0
 Multiplicity           Mult            ....    1
 Number of Electrons    NEL             ....   58
 Basis Dimension        Dim             ....  213

ORBITAL ENERGIES
----------------

  NO   OCC          E(Eh)            E(eV)
   0   2.0000     -10.021072      -272.6872
   1   2.0000     -10.018752      -272.6241
   2   2.0000     -10.012490      -272.4537
   3   2.0000     -10.005414      -272.2612
   4   2.0000     -10.004375      -272.2329
   5   2.0000     -10.003558      -272.2106
   6   2.0000     -10.003340      -272.2047
   7   2.0000      -0.779507       -21.2115
   8   2.0000      -0.719935       -19.5904
   9   2.0000      -0.674635       -18.3578
  10   2.0000      -0.639924       -17.4132
  11   2.0000      -0.603047       -16.4097
  12   2.0000      -0.549389       -14.9496
  13   2.0000      -0.488462       -13.2917
  14   2.0000      -0.423775       -11.5315
  15   2.0000      -0.420722       -11.4484
  16   2.0000      -0.414323       -11.2743
  17   2.0000      -0.381946       -10.3933
  18   2.0000      -0.357589        -9.7305
  19   2.0000      -0.350891        -9.5482
  20   2.0000      -0.344071        -9.3626
  21   2.0000      -0.339093        -9.2272
  22   2.0000      -0.332943        -9.0598
  23   2.0000      -0.318574        -8.6688
  24   2.0000      -0.301325        -8.1995
  25   2.0000      -0.292434        -7.9575
  26   2.0000      -0.270595        -7.3633
  27   2.0000      -0.265228        -7.2172
  28   2.0000      -0.258677        -7.0390
  29   0.0000       0.084461         2.2983
  30   0.0000       0.114568         3.1176
  31   0.0000       0.119689         3.2569
  32   0.0000       0.123821         3.3693
  33   0.0000       0.137099         3.7306

MULLIKEN ATOMIC CHARGES
-----------------------
   0 C :   -0.550719
   1 C :   -0.266361
   2 C :   -0.009413
   3 H :    0.154741
   4 C :   -0.582131
   5 C :   -0.068592
   6 C :   -0.551255
   7 C :   -0.529668
   8 H :    0.161998
   9 H :    0.165933
  10 H :    0.154212
  11 H :    0.147592
  12 H :    0.153697
  13 H :    0.167261
  14 H :    0.156603
  15 H :    0.170844
  16 H :    0.161210
  17 H :    0.163887
  18 H :    0.158111
  19 H :    0.153292
  20 H :    0.157405
  21 H :    0.169776
  22 H :    0.161575
Sum of atomic charges:    0.0000000

LOEWDIN ATOMIC CHARGES
----------------------
   0 C :   -0.434512
   1 C :   -0.310805
   2 C :   -0.233852
   3 H :    0.161797
   4 C :   -0.421880
   5 C :   -0.238580
   6 C :   -0.424394
   7 C :   -0.423709
   8 H :    0.152789
   9 H :    0.152515
  10 H :    0.152100
  11 H :    0.154504
  12 H :    0.154805
  13 H :    0.156598
  14 H :    0.155920
  15 H :    0.155843
  16 H :    0.159423
  17 H :    0.155778
  18 H :    0.153736
  19 H :    0.153595
  20 H :    0.155539
  21 H :    0.156910
  22 H :    0.155880

  Mayer bond orders larger than 0.100000
B(  0-C ,  1-C ) :   0.8530 B(  0-C ,  8-H ) :   0.9744 B(  0-C ,  9-H ) :   0.9855
B(  0-C , 10-H ) :   0.9640 B(  1-C ,  2-C ) :   0.8848 B(  1-C , 11-H ) :   0.9862
B(  1-C , 12-H ) :   0.9834 B(  2-C ,  3-H ) :   0.9931 B(  2-C ,  4-C ) :   0.8775
B(  2-C ,  5-C ) :   0.8470 B(  4-C , 13-H ) :   0.9793 B(  4-C , 14-H ) :   0.9684
B(  4-C , 15-H ) :   0.9743 B(  5-C ,  6-C ) :   0.8953 B(  5-C ,  7-C ) :   0.8685
B(  5-C , 16-H ) :   0.9865 B(  6-C , 17-H ) :   0.9835 B(  6-C , 18-H ) :   0.9776
B(  6-C , 19-H ) :   0.9746 B(  7-C , 20-H ) :   0.9722 B(  7-C , 21-H ) :   0.9739
B(  7-C , 22-H ) :   0.9747

Dispersion correction           -0.006696573
FINAL SINGLE POINT ENERGY      -276.279519761488

DIPOLE MOMENT
-------------

Method             : SCF
Type of density    : Electron Density
Multiplicity       :   1
Irrep              :   0
Energy             :  -276.2840918342201917 Eh
Relativity type    :
Basis              : AO
                                X                 Y                 Z
Electronic contribution:      0.157439390      -0.281052635      -1.468374421
Nuclear contribution   :     -0.137122803       0.290097131       1.399361064
                        -----------------------------------------
Total Dipole Moment    :      0.020316587       0.009044496      -0.069013357
                        -----------------------------------------
Magnitude (a.u.)       :      0.072508000
Magnitude (Debye)      :      0.184300690

Rotational constants in cm-1:             0.112322             0.057973             0.053955
Rotational constants in MHz :          3367.330602          1737.995777          1617.542106

                             ****ORCA TERMINATED NORMALLY****
TOTAL RUN TIME: 0 days 0 hours 0 minutes 29 seconds 46 msec
