                         Program Version 6.0.0  -   RELEASE  -
|  1> ! r2scan-3c def2/J RI DEFGRID2 scfconv6 printgap
|  2> %output
|  3>     printlevel normal
|  4> end
|  5> * xyz 0 1
|  6> C -2.6115838086 -0.4801473567 -0.5237741541
|  7> C -1.6418731496 0.691567565 -0.4064493925
|  8> C -0.560488969 0.4777636857 0.6614958766
|  9> C 0.8107616729 -0.0231911674 0.1617893986
| 10> C 1.5164532117 1.0446005816 -0.6820002161
| 11> C 0.7024705118 -1.3303114255 -0.6225589852
| 12> O 1.6150664405 -0.3335916806 1.3028484173
| 13> H -3.3592482265 -0.2732936919 -1.2863479024
| 14> H -3.1249067327 -0.6418812341 0.4215801987
| 15> H -2.0931580855 -1.3957528761 -0.7916230239
| 16> H -1.1803402572 0.8782676646 -1.3762466793
| 17> H -2.2166568817 1.5830951963 -0.1476754025
| 18> H -0.3856547687 1.4210958987 1.1860652357
| 19> H -0.9219452794 -0.2409282443 1.4007491646
| 20> H 0.9858390094 1.2146225958 -1.6132766679
| 21> H 2.5259899961 0.7134420556 -0.9141391177
| 22> H 1.5735953197 1.9856994309 -0.1387824136
| 23> H 1.7022345429 -1.6868865381 -0.8576873289
| 24> H 0.1523369545 -1.1822761719 -1.5452066195
| 25> H 0.2080577435 -2.0834673919 -0.0150955604
| 26> H 1.759076654 0.4719313694 1.816889586
| 27> *
| 28>
| 29>                          ****END OF INPUT****

CARTESIAN COORDINATES (ANGSTROEM)
---------------------------------
  C     -2.611584   -0.480147   -0.523774
  C     -1.641873    0.691568   -0.406449
  C     -0.560489    0.477764    0.661496
  C      0.810762   -0.023191    0.161789
  C      1.516453    1.044601   -0.682000
  C      0.702471   -1.330311   -0.622559
  O      1.615066   -0.333592    1.302848
  H     -3.359248   -0.273294   -1.286348
  H     -3.124907   -0.641881    0.421580
  H     -2.093158   -1.395753   -0.791623
  H     -1.180340    0.878268   -1.376247
  H     -2.216657    1.583095   -0.147675
  H     -0.385655    1.421096    1.186065
  H     -0.921945   -0.240928    1.400749
  H      0.985839    1.214623   -1.613277
  H      2.525990    0.713442   -0.914139
  H      1.573595    1.985699   -0.138782
  H      1.702235   -1.686887   -0.857687
  H      0.152337   -1.182276   -1.545207
  H      0.208058   -2.083467   -0.015096
  H      1.759077    0.471931    1.816890

 Total Charge           Charge          ....    0
 Multiplicity           Mult            ....    1
 Number of Electrons    NEL             ....   58
 Basis Dimension        Dim             ....  208

ORBITAL ENERGIES
----------------

  NO   OCC          E(Eh)            E(eV)
   0   2.0000     -18.940246      -515.3903
   1   2.0000     -10.087225      -274.4874
   2   2.0000     -10.028017      -272.8762
   3   2.0000     -10.022596      -272.7287
   4   2.0000     -10.017570      -272.5919
   5   2.0000     -10.016546      -272.5641
   6   2.0000     -10.014204      -272.5004
   7   2.0000      -0.979571       -26.6555
   8   2.0000      -0.770521       -20.9669
   9   2.0000      -0.723165       -19.6783
  10   2.0000      -0.658523       -17.9193
  11   2.0000      -0.649485       -17.6734
  12   2.0000      -0.568690       -15.4749
  13   2.0000      -0.525923       -14.3111
  14   2.0000      -0.465976       -12.6799
  15   2.0000      -0.432295       -11.7633
  16   2.0000      -0.418992       -11.4014
  17   2.0000      -0.393575       -10.7097
  18   2.0000      -0.390210       -10.6181
  19   2.0000      -0.376003       -10.2316
  20   2.0000      -0.354233        -9.6392
  21   2.0000      -0.349143        -9.5007
  22   2.0000      -0.336041        -9.1441
  23   2.0000      -0.325581        -8.8595
  24   2.0000      -0.311001        -8.4628
  25   2.0000      -0.301324        -8.1995
  26   2.0000      -0.296219        -8.0605
  27   2.0000      -0.278075        -7.5668
  28   2.0000      -0.229862        -6.2549
  29   0.0000       0.064785         1.7629
  30   0.0000       0.087844         2.3904
  31   0.0000       0.101716         2.7678
  32   0.0000       0.111831         3.0431
  33   0.0000       0.125650         3.4191

MULLIKEN ATOMIC CHARGES
-----------------------
   0 C :   -0.492885
   1 C :   -0.244632
   2 C :   -0.243636
   3 C :    0.142769
   4 C :   -0.478835
   5 C :   -0.523918
   6 O :   -0.406282
   7 H :    0.145066
   8 H :    0.148309
   9 H :    0.154074
  10 H :    0.140311
  11 H :    0.141070
  12 H :    0.134571
  13 H :    0.166525
  14 H :    0.149837
  15 H :    0.164530
  16 H :    0.140399
  17 H :    0.157722
  18 H :    0.157788
  19 H :    0.165280
  20 H :    0.281934
Sum of atomic charges:    0.0000000

LOEWDIN ATOMIC CHARGES
----------------------
   0 C :   -0.424492
   1 C :   -0.314170
   2 C :   -0.279514
   3 C :    0.059871
   4 C :   -0.390489
   5 C :   -0.372397
   6 O :   -0.607400
   7 H :    0.149896
   8 H :    0.150095
   9 H :    0.151660
  10 H :    0.153136
  11 H :    0.154414
  12 H :    0.158559
  13 H :    0.171363
  14 H :    0.157466
  15 H :    0.165824
  16 H :    0.155672
  17 H :    0.166991
  18 H :    0.158698
  19 H :    0.165543
  20 H :    0.269274

  Mayer bond orders larger than 0.100000
B(  0-C ,  1-C ) :   0.9027 B(  0-C ,  7-H ) :   0.9742 B(  0-C ,  8-H ) :   0.9857
B(  0-C ,  9-H ) :   0.9740 B(  1-C ,  2-C ) :   0.8272 B(  1-C , 10-H ) :   0.9855
B(  1-C , 11-H ) :   0.9595 B(  2-C ,  3-C ) :   0.8994 B(  2-C , 12-H ) :   0.9622
B(  2-C , 13-H ) :   0.9874 B(  3-C ,  4-C ) :   0.9855 B(  3-C ,  5-C ) :   0.9020
B(  3-C ,  6-O ) :   0.8928 B(  4-C , 14-H ) :   0.9687 B(  4-C , 15-H ) :   0.9741
B(  4-C , 16-H ) :   0.9644 B(  5-C , 17-H ) :   0.9663 B(  5-C , 18-H ) :   0.9704
B(  5-C , 19-H ) :   0.9741 B(  6-O , 20-H ) :   0.9018

Dispersion correction           -0.005785108
FINAL SINGLE POINT ENERGY      -312.204090824153

DIPOLE MOMENT
-------------

Method             : SCF
Type of density    : Electron Density
Multiplicity       :   1
Irrep              :   0
Energy             :  -312.2094113098108323 Eh
Relativity type    :
Basis              : AO
                                X                 Y                 Z
Electronic contribution:      3.828036448      -0.180385535       3.426840197
Nuclear contribution   :     -4.080290297       0.711494780      -3.602723289
                        -----------------------------------------
Total Dipole Moment    :     -0.252253850       0.531109246      -0.175883093
                        -----------------------------------------
Magnitude (a.u.)       :      0.613713205
Magnitude (Debye)      :      1.559934997

Rotational constants in cm-1:             0.131832             0.053298             0.051300
Rotational constants in MHz :          3952.221918          1597.846348          1537.946620

                             ****ORCA TERMINATED NORMALLY****
TOTAL RUN TIME: 0 days 0 hours 0 minutes 27 seconds 424 msec
