                         Program Version 6.0.0  -   RELEASE  -
|  1> ! r2scan-3c def2/J RI DEFGRID2 scfconv6 printgap
|  2> %output
|  3>     printlevel normal
|  4> end
|  5> %cpcm
|  6>     smd true
|  7>     smdsolvent "water"
|  8> end
|  9> * xyz 0 1
| 10> C -2.6115838086 -0.4801473567 -0.5237741541
| 11> C -1.6418731496 0.691567565 -0.4064493925
| 12> C -0.560488969 0.4777636857 0.6614958766
| 13> C 0.8107616729 -0.0231911674 0.1617893986
| 14> C 1.5164532117 1.0446005816 -0.6820002161
| 15> C 0.7024705118 -1.3303114255 -0.6225589852
| 16> O 1.6150664405 -0.3335916806 1.3028484173
| 17> H -3.3592482265 -0.2732936919 -1.2863479024
| 18> H -3.1249067327 -0.6418812341 0.4215801987
| 19> H -2.0931580855 -1.3957528761 -0.7916230239
| 20> H -1.1803402572 0.8782676646 -1.3762466793
| 21> H -2.2166568817 1.5830951963 -0.1476754025
| 22> H -0.3856547687 1.4210958987 1.1860652357
| 23> H -0.9219452794 -0.2409282443 1.4007491646
| 24> H 0.9858390094 1.2146225958 -1.6132766679
| 25> H 2.5259899961 0.7134420556 -0.9141391177
| 26> H 1.5735953197 1.9856994309 -0.1387824136
| 27> H 1.7022345429 -1.6868865381 -0.8576873289
| 28> H 0.1523369545 -1.1822761719 -1.5452066195
| 29> H 0.2080577435 -2.0834673919 -0.0150955604
| 30> H 1.759076654 0.4719313694 1.816889586
| 31> *
| 32>
| 33>                          ****END OF INPUT****

CARTESIAN COORDINATES (ANGSTROEM)
---------------------------------
  C     -2.611584   -0.480147   -0.523774
  C     -1.641873    0.691568   -0.406449
  C     -0.560489    0.477764    0.661496
  C      0.810762   -0.023191    0.161789
  C      1.516453    1.044601   -0.682000
  C      0.702471   -1.330311   -0.622559
  O      1.615066   -0.333592    1.302848
  H     -3.359248   -0.273294   -1.286348
  H     -3.124907   -0.641881    0.421580
  H     -2.093158   -1.395753   -0.791623
  H     -1.180340    0.878268   -1.376247
  H     -2.216657    1.583095   -0.147675
  H     -0.385655    1.421096    1.186065
  H     -0.921945   -0.240928    1.400749
  H      0.985839    1.214623   -1.613277
  H      2.525990    0.713442   -0.914139
  H      1.573595    1.985699   -0.138782
  H      1.702235   -1.686887   -0.857687
  H      0.152337   -1.182276   -1.545207
  H      0.208058   -2.083467   -0.015096
  H      1.759077    0.471931    1.816890

 Total Charge           Charge          ....    0
 Multiplicity           Mult            ....    1
 Number of Electrons    NEL             ....   58
 Basis Dimension        Dim             ....  208

ORBITAL ENERGIES
----------------

  NO   OCC          E(Eh)            E(eV)
   0   2.0000     -18.945437      -515.5316
   1   2.0000     -10.083166      -274.3769
   2   2.0000     -10.017374      -272.5866
   3   2.0000     -10.013769      -272.4885
   4   2.0000     -10.008487      -272.3448
   5   2.0000     -10.007574      -272.3199
   6   2.0000     -10.006877      -272.3010
   7   2.0000      -0.983382       -26.7592
   8   2.0000      -0.762997       -20.7622
   9   2.0000      -0.715605       -19.4726
  10   2.0000      -0.651795       -17.7362
  11   2.0000      -0.640921       -17.4403
  12   2.0000      -0.561215       -15.2714
  13   2.0000      -0.521603       -14.1935
  14   2.0000      -0.460297       -12.5253
  15   2.0000      -0.425147       -11.5688
  16   2.0000      -0.412043       -11.2123
  17   2.0000      -0.386368       -10.5136
  18   2.0000      -0.383225       -10.4281
  19   2.0000      -0.368610       -10.0304
  20   2.0000      -0.348804        -9.4915
  21   2.0000      -0.342160        -9.3107
  22   2.0000      -0.331546        -9.0218
  23   2.0000      -0.317254        -8.6329
  24   2.0000      -0.303984        -8.2718
  25   2.0000      -0.295261        -8.0345
  26   2.0000      -0.289407        -7.8752
  27   2.0000      -0.274019        -7.4564
  28   2.0000      -0.234247        -6.3742
  29   0.0000       0.080508         2.1907
  30   0.0000       0.097367         2.6495
  31   0.0000       0.112160         3.0520
  32   0.0000       0.123240         3.3535
  33   0.0000       0.134671         3.6646

MULLIKEN ATOMIC CHARGES
-----------------------
   0 C :   -0.531270
   1 C :   -0.255562
   2 C :   -0.266470
   3 C :    0.187384
   4 C :   -0.531744
   5 C :   -0.560088
   6 O :   -0.502092
   7 H :    0.154340
   8 H :    0.158102
   9 H :    0.161492
  10 H :    0.157146
  11 H :    0.151172
  12 H :    0.159792
  13 H :    0.160927
  14 H :    0.171181
  15 H :    0.165916
  16 H :    0.164463
  17 H :    0.164245
  18 H :    0.180686
  19 H :    0.171635
  20 H :    0.338744
Sum of atomic charges:   -0.0000000

LOEWDIN ATOMIC CHARGES
----------------------
   0 C :   -0.432355
   1 C :   -0.314860
   2 C :   -0.279732
   3 C :    0.061548
   4 C :   -0.395084
   5 C :   -0.381547
   6 O :   -0.646458
   7 H :    0.151929
   8 H :    0.151770
   9 H :    0.153192
  10 H :    0.158743
  11 H :    0.156907
  12 H :    0.166609
  13 H :    0.169349
  14 H :    0.164570
  15 H :    0.165055
  16 H :    0.163427
  17 H :    0.166074
  18 H :    0.168045
  19 H :    0.165628
  20 H :    0.287189

  Mayer bond orders larger than 0.100000
B(  0-C ,  1-C ) :   0.8916 B(  0-C ,  7-H ) :   0.9719 B(  0-C ,  8-H ) :   0.9835
B(  0-C ,  9-H ) :   0.9732 B(  1-C ,  2-C ) :   0.8266 B(  1-C , 10-H ) :   0.9831
B(  1-C , 11-H ) :   0.9609 B(  2-C ,  3-C ) :   0.9010 B(  2-C , 12-H ) :   0.9654
B(  2-C , 13-H ) :   0.9817 B(  3-C ,  4-C ) :   0.9719 B(  3-C ,  5-C ) :   0.9074
B(  3-C ,  6-O ) :   0.8654 B(  4-C , 14-H ) :   0.9642 B(  4-C , 15-H ) :   0.9700
B(  4-C , 16-H ) :   0.9643 B(  5-C , 17-H ) :   0.9665 B(  5-C , 18-H ) :   0.9645
B(  5-C , 19-H ) :   0.9685 B(  6-O , 20-H ) :   0.8763

Dispersion correction           -0.005785108
FINAL SINGLE POINT ENERGY      -312.210177718729

DIPOLE MOMENT
-------------

Method             : SCF
Type of density    : Electron Density
Multiplicity       :   1
Irrep              :   0
Energy             :  -312.2154982043865630 Eh
Relativity type    :
Basis              : AO
                                X                 Y                 Z
Electronic contribution:      3.712771823       0.113245387       3.324113437
Nuclear contribution   :     -4.080290297       0.711494780      -3.602723289
                        -----------------------------------------
Total Dipole Moment    :     -0.367518474       0.824740167      -0.278609853
                        -----------------------------------------
Magnitude (a.u.)       :      0.944928369
Magnitude (Debye)      :      2.401817039

Rotational constants in cm-1:             0.131832             0.053298             0.051300
Rotational constants in MHz :          3952.221918          1597.846348          1537.946620

                             ****ORCA TERMINATED NORMALLY****
TOTAL RUN TIME: 0 days 0 hours 0 minutes 32 seconds 467 msec
