                         Program Version 6.0.0  -   RELEASE  -
|  1> ! pbe def2-sv(p) def2/J RI DEFGRID1 loosescf d4 GCP(DFT/SV(P)) printgap
|  2> %output
|  3>     printlevel normal
|  4> end
|  5> * xyz 0 1
|  6> C -2.3785521045 0.7999955419 -0.0236983582
|  7> C -1.4727963294 -0.3537327558 -0.4403202786
|  8> C -0.3157166902 -0.6050096513 0.5444472575
|  9> C 1.0095188179 -0.0368085398 0.0970545512
| 10> C 1.1683602115 1.2227865367 -0.277533273
| 11> C 2.1530693618 -1.0060677236 0.104564352
| 12> H -2.8344914413 0.5946060922 0.9424756362
| 13> H -3.1726481778 0.9391873332 -0.7541585027
| 14> H -1.8205974723 1.7291303035 0.0538456246
| 15> H -2.0821112143 -1.2570013333 -0.5123005988
| 16> H -1.0631924478 -0.1543515911 -1.4324917333
| 17> H -0.5768101759 -0.1763025883 1.5151288646
| 18> H -0.1953726586 -1.679560247 0.6885402595
| 19> H 2.1252945213 1.6008383666 -0.5967805128
| 20> H 0.3580776862 1.9300682746 -0.2860864287
| 21> H 1.9460571145 -1.8316008406 -0.575304285
| 22> H 3.0788900323 -0.5251950081 -0.1994230987
| 23> H 2.283930801 -1.4220200679 1.1027590929
| 24> *
| 25>
| 26>                          ****END OF INPUT****

CARTESIAN COORDINATES (ANGSTROEM)
---------------------------------
  C     -2.378552    0.799996   -0.023698
  C     -1.472796   -0.353733   -0.440320
  C     -0.315717   -0.605010    0.544447
  C      1.009519   -0.036809    0.097055
  C      1.168360    1.222787   -0.277533
  C      2.153069   -1.006068    0.104564
  H     -2.834491    0.594606    0.942476
  H     -3.172648    0.939187   -0.754159
  H     -1.820597    1.729130    0.053846
  H     -2.082111   -1.257001   -0.512301
  H     -1.063192   -0.154352   -1.432492
  H     -0.576810   -0.176303    1.515129
  H     -0.195373   -1.679560    0.688540
  H      2.125295    1.600838   -0.596781
  H      0.358078    1.930068   -0.286086
  H      1.946057   -1.831601   -0.575304
  H      3.078890   -0.525195   -0.199423
  H      2.283931   -1.422020    1.102759

 Total Charge           Charge          ....    0
 Multiplicity           Mult            ....    1
 Number of Electrons    NEL             ....   48
 Basis Dimension        Dim             ....  108

ORBITAL ENERGIES
----------------

  NO   OCC          E(Eh)            E(eV)
   0   2.0000      -9.895370      -269.2667
   1   2.0000      -9.883603      -268.9465
   2   2.0000      -9.883207      -268.9357
   3   2.0000      -9.877088      -268.7692
   4   2.0000      -9.872775      -268.6519
   5   2.0000      -9.862713      -268.3781
   6   2.0000      -0.735591       -20.0165
   7   2.0000      -0.684145       -18.6165
   8   2.0000      -0.609849       -16.5948
   9   2.0000      -0.605776       -16.4840
  10   2.0000      -0.526542       -14.3279
  11   2.0000      -0.460981       -12.5439
  12   2.0000      -0.419856       -11.4249
  13   2.0000      -0.408304       -11.1105
  14   2.0000      -0.380875       -10.3641
  15   2.0000      -0.372746       -10.1429
  16   2.0000      -0.357108        -9.7174
  17   2.0000      -0.348810        -9.4916
  18   2.0000      -0.322200        -8.7675
  19   2.0000      -0.317308        -8.6344
  20   2.0000      -0.297504        -8.0955
  21   2.0000      -0.284190        -7.7332
  22   2.0000      -0.272937        -7.4270
  23   2.0000      -0.210048        -5.7157
  24   0.0000      -0.009489        -0.2582
  25   0.0000       0.039626         1.0783
  26   0.0000       0.063503         1.7280
  27   0.0000       0.074102         2.0164
  28   0.0000       0.087532         2.3819

MULLIKEN ATOMIC CHARGES
-----------------------
   0 C :   -0.297712
   1 C :   -0.179881
   2 C :   -0.104095
   3 C :   -0.110266
   4 C :   -0.238958
   5 C :   -0.221374
   6 H :    0.100283
   7 H :    0.102494
   8 H :    0.110149
   9 H :    0.083437
  10 H :    0.098867
  11 H :    0.100441
  12 H :    0.070781
  13 H :    0.080997
  14 H :    0.089849
  15 H :    0.108719
  16 H :    0.096124
  17 H :    0.110146
Sum of atomic charges:   -0.0000000

LOEWDIN ATOMIC CHARGES
----------------------
   0 C :   -0.341735
   1 C :   -0.229600
   2 C :   -0.216616
   3 C :   -0.058377
   4 C :   -0.273550
   5 C :   -0.323262
   6 H :    0.116338
   7 H :    0.118973
   8 H :    0.115626
   9 H :    0.115737
  10 H :    0.119003
  11 H :    0.130997
  12 H :    0.117753
  13 H :    0.116697
  14 H :    0.115076
  15 H :    0.127655
  16 H :    0.121580
  17 H :    0.127705

  Mayer bond orders larger than 0.100000
B(  0-C ,  1-C ) :   1.1572 B(  0-C ,  6-H ) :   0.9521 B(  0-C ,  7-H ) :   0.9494
B(  0-C ,  8-H ) :   0.9513 B(  1-C ,  2-C ) :   1.0838 B(  1-C ,  9-H ) :   0.9297
B(  1-C , 10-H ) :   0.9354 B(  2-C ,  3-C ) :   1.0651 B(  2-C , 11-H ) :   0.9075
B(  2-C , 12-H ) :   0.9157 B(  3-C ,  4-C ) :   2.0474 B(  3-C ,  5-C ) :   1.1290
B(  4-C , 13-H ) :   0.9044 B(  4-C , 14-H ) :   0.9078 B(  5-C , 15-H ) :   0.9279
B(  5-C , 16-H ) :   0.9431 B(  5-C , 17-H ) :   0.9319

Dispersion correction           -0.013467758
FINAL SINGLE POINT ENERGY      -235.237963379099

DIPOLE MOMENT
-------------

Method             : SCF
Type of density    : Electron Density
Multiplicity       :   1
Irrep              :   0
Energy             :  -235.2956681948566597 Eh
Relativity type    :
Basis              : AO
                                X                 Y                 Z
Electronic contribution:      1.760178797       0.028106648       0.109835489
Nuclear contribution   :     -1.832207492      -0.236605944      -0.050469121
                        -----------------------------------------
Total Dipole Moment    :     -0.072028695      -0.208499296       0.059366368
                        -----------------------------------------
Magnitude (a.u.)       :      0.228439171
Magnitude (Debye)      :      0.580646229

Rotational constants in cm-1:             0.228820             0.067303             0.056784
Rotational constants in MHz :          6859.859557          2017.678904          1702.348351

                             ****ORCA TERMINATED NORMALLY****
TOTAL RUN TIME: 0 days 0 hours 0 minutes 7 seconds 783 msec
