                         Program Version 6.0.0  -   RELEASE  -
|  1> ! r2scan-3c def2/J RI DEFGRID2 scfconv6 printgap
|  2> %output
|  3>     printlevel normal
|  4> end
|  5> * xyz 0 1
|  6> C -2.1929245113 0.2423016563 -1.2445554931
|  7> C -1.9557809317 0.0567139026 0.2523909605
|  8> C -2.1331912437 -1.4045306986 0.6578808868
|  9> C -0.5642524126 0.5557487607 0.6413616625
| 10> O 0.4276490773 -0.2077042569 -0.0572180845
| 11> C 1.680797791 0.2199812941 -0.0070354161
| 12> O 2.0202995067 1.2105685414 0.6097935291
| 13> C 2.6013969146 -0.6500539805 -0.8091597636
| 14> H -1.4731826242 -0.3427286005 -1.811087894
| 15> H -2.0864400547 1.2882110033 -1.5224017691
| 16> H -3.1940057089 -0.085998762 -1.5094081734
| 17> H -2.6724097912 0.6712473768 0.806379397
| 18> H -1.4035062227 -2.0243585657 0.1439222218
| 19> H -3.1297527984 -1.7482618607 0.3955140824
| 20> H -1.9964384924 -1.5235245625 1.7298242753
| 21> H -0.4327416591 1.6128360125 0.3858054457
| 22> H -0.3905375955 0.4433929644 1.7169828925
| 23> H 2.1676038004 -1.6362721212 -0.9328704242
| 24> H 3.5688787913 -0.7037359233 -0.3197832141
| 25> H 2.7380851359 -0.1936681772 -1.7873805852
| 26> *
| 27>
| 28>                          ****END OF INPUT****

CARTESIAN COORDINATES (ANGSTROEM)
---------------------------------
  C     -2.192925    0.242302   -1.244555
  C     -1.955781    0.056714    0.252391
  C     -2.133191   -1.404531    0.657881
  C     -0.564252    0.555749    0.641362
  O      0.427649   -0.207704   -0.057218
  C      1.680798    0.219981   -0.007035
  O      2.020300    1.210569    0.609794
  C      2.601397   -0.650054   -0.809160
  H     -1.473183   -0.342729   -1.811088
  H     -2.086440    1.288211   -1.522402
  H     -3.194006   -0.085999   -1.509408
  H     -2.672410    0.671247    0.806379
  H     -1.403506   -2.024359    0.143922
  H     -3.129753   -1.748262    0.395514
  H     -1.996438   -1.523525    1.729824
  H     -0.432742    1.612836    0.385805
  H     -0.390538    0.443393    1.716983
  H      2.167604   -1.636272   -0.932870
  H      3.568879   -0.703736   -0.319783
  H      2.738085   -0.193668   -1.787381

 Total Charge           Charge          ....    0
 Multiplicity           Mult            ....    1
 Number of Electrons    NEL             ....   64
 Basis Dimension        Dim             ....  222

ORBITAL ENERGIES
----------------

  NO   OCC          E(Eh)            E(eV)
   0   2.0000     -18.998627      -516.9789
   1   2.0000     -18.927233      -515.0362
   2   2.0000     -10.155509      -276.3455
   3   2.0000     -10.086955      -274.4800
   4   2.0000     -10.046521      -273.3797
   5   2.0000     -10.039580      -273.1909
   6   2.0000     -10.020851      -272.6812
   7   2.0000     -10.020671      -272.6763
   8   2.0000      -1.074368       -29.2350
   9   2.0000      -0.974764       -26.5247
  10   2.0000      -0.785379       -21.3712
  11   2.0000      -0.726995       -19.7825
  12   2.0000      -0.661883       -18.0107
  13   2.0000      -0.657027       -17.8786
  14   2.0000      -0.566881       -15.4256
  15   2.0000      -0.516646       -14.0587
  16   2.0000      -0.463362       -12.6087
  17   2.0000      -0.462086       -12.5740
  18   2.0000      -0.440972       -11.9995
  19   2.0000      -0.417728       -11.3670
  20   2.0000      -0.412845       -11.2341
  21   2.0000      -0.402493       -10.9524
  22   2.0000      -0.377383       -10.2691
  23   2.0000      -0.370582       -10.0841
  24   2.0000      -0.354554        -9.6479
  25   2.0000      -0.342135        -9.3100
  26   2.0000      -0.332559        -9.0494
  27   2.0000      -0.310244        -8.4422
  28   2.0000      -0.308008        -8.3813
  29   2.0000      -0.299211        -8.1419
  30   2.0000      -0.271485        -7.3875
  31   2.0000      -0.235610        -6.4113
  32   0.0000      -0.014318        -0.3896
  33   0.0000       0.061730         1.6798
  34   0.0000       0.089491         2.4352
  35   0.0000       0.109062         2.9677
  36   0.0000       0.128475         3.4960

MULLIKEN ATOMIC CHARGES
-----------------------
   0 C :   -0.503142
   1 C :    0.025084
   2 C :   -0.505900
   3 C :   -0.203611
   4 O :   -0.172039
   5 C :    0.407386
   6 O :   -0.422186
   7 C :   -0.524296
   8 H :    0.162345
   9 H :    0.145784
  10 H :    0.147574
  11 H :    0.144763
  12 H :    0.163653
  13 H :    0.146559
  14 H :    0.144561
  15 H :    0.169818
  16 H :    0.156769
  17 H :    0.167872
  18 H :    0.174637
  19 H :    0.174370
Sum of atomic charges:    0.0000000

LOEWDIN ATOMIC CHARGES
----------------------
   0 C :   -0.407549
   1 C :   -0.220489
   2 C :   -0.407741
   3 C :    0.044578
   4 O :   -0.608834
   5 C :    0.352753
   6 O :   -0.429275
   7 C :   -0.336687
   8 H :    0.162791
   9 H :    0.156036
  10 H :    0.153909
  11 H :    0.163365
  12 H :    0.162995
  13 H :    0.153637
  14 H :    0.155456
  15 H :    0.189360
  16 H :    0.183639
  17 H :    0.173521
  18 H :    0.177199
  19 H :    0.181335

  Mayer bond orders larger than 0.100000
B(  0-C ,  1-C ) :   0.9171 B(  0-C ,  8-H ) :   0.9817 B(  0-C ,  9-H ) :   0.9709
B(  0-C , 10-H ) :   0.9738 B(  1-C ,  2-C ) :   0.9091 B(  1-C ,  3-C ) :   0.9512
B(  1-C , 11-H ) :   0.9368 B(  2-C , 12-H ) :   0.9834 B(  2-C , 13-H ) :   0.9728
B(  2-C , 14-H ) :   0.9705 B(  3-C ,  4-O ) :   0.8065 B(  3-C , 15-H ) :   0.9561
B(  3-C , 16-H ) :   0.9503 B(  4-O ,  5-C ) :   1.0687 B(  5-C ,  6-O ) :   1.8182
B(  5-C ,  7-C ) :   0.9397 B(  7-C , 17-H ) :   0.9828 B(  7-C , 18-H ) :   0.9731
B(  7-C , 19-H ) :   0.9380

Dispersion correction           -0.005215041
FINAL SINGLE POINT ENERGY      -386.237932941519

DIPOLE MOMENT
-------------

Method             : SCF
Type of density    : Electron Density
Multiplicity       :   1
Irrep              :   0
Energy             :  -386.2446306446103108 Eh
Relativity type    :
Basis              : AO
                                X                 Y                 Z
Electronic contribution:      7.187982692       3.376654344       2.173137651
Nuclear contribution   :     -7.754657243      -3.965640462      -2.529081670
                        -----------------------------------------
Total Dipole Moment    :     -0.566674551      -0.588986118      -0.355944019
                        -----------------------------------------
Magnitude (a.u.)       :      0.891471165
Magnitude (Debye)      :      2.265939624

Rotational constants in cm-1:             0.127823             0.035512             0.034260
Rotational constants in MHz :          3832.031104          1064.626396          1027.074240

                             ****ORCA TERMINATED NORMALLY****
TOTAL RUN TIME: 0 days 0 hours 0 minutes 30 seconds 208 msec
