                         Program Version 6.0.0  -   RELEASE  -
|  1> ! r2scan-3c def2/J RI DEFGRID2 scfconv6 printgap
|  2> %output
|  3>     printlevel normal
|  4> end
|  5> %cpcm
|  6>     smd true
|  7>     smdsolvent "water"
|  8> end
|  9> * xyz 0 1
| 10> C -2.1929245113 0.2423016563 -1.2445554931
| 11> C -1.9557809317 0.0567139026 0.2523909605
| 12> C -2.1331912437 -1.4045306986 0.6578808868
| 13> C -0.5642524126 0.5557487607 0.6413616625
| 14> O 0.4276490773 -0.2077042569 -0.0572180845
| 15> C 1.680797791 0.2199812941 -0.0070354161
| 16> O 2.0202995067 1.2105685414 0.6097935291
| 17> C 2.6013969146 -0.6500539805 -0.8091597636
| 18> H -1.4731826242 -0.3427286005 -1.811087894
| 19> H -2.0864400547 1.2882110033 -1.5224017691
| 20> H -3.1940057089 -0.085998762 -1.5094081734
| 21> H -2.6724097912 0.6712473768 0.806379397
| 22> H -1.4035062227 -2.0243585657 0.1439222218
| 23> H -3.1297527984 -1.7482618607 0.3955140824
| 24> H -1.9964384924 -1.5235245625 1.7298242753
| 25> H -0.4327416591 1.6128360125 0.3858054457
| 26> H -0.3905375955 0.4433929644 1.7169828925
| 27> H 2.1676038004 -1.6362721212 -0.9328704242
| 28> H 3.5688787913 -0.7037359233 -0.3197832141
| 29> H 2.7380851359 -0.1936681772 -1.7873805852
| 30> *
| 31>
| 32>                          ****END OF INPUT****

CARTESIAN COORDINATES (ANGSTROEM)
---------------------------------
  C     -2.192925    0.242302   -1.244555
  C     -1.955781    0.056714    0.252391
  C     -2.133191   -1.404531    0.657881
  C     -0.564252    0.555749    0.641362
  O      0.427649   -0.207704   -0.057218
  C      1.680798    0.219981   -0.007035
  O      2.020300    1.210569    0.609794
  C      2.601397   -0.650054   -0.809160
  H     -1.473183   -0.342729   -1.811088
  H     -2.086440    1.288211   -1.522402
  H     -3.194006   -0.085999   -1.509408
  H     -2.672410    0.671247    0.806379
  H     -1.403506   -2.024359    0.143922
  H     -3.129753   -1.748262    0.395514
  H     -1.996438   -1.523525    1.729824
  H     -0.432742    1.612836    0.385805
  H     -0.390538    0.443393    1.716983
  H      2.167604   -1.636272   -0.932870
  H      3.568879   -0.703736   -0.319783
  H      2.738085   -0.193668   -1.787381

 Total Charge           Charge          ....    0
 Multiplicity           Mult            ....    1
 Number of Electrons    NEL             ....   64
 Basis Dimension        Dim             ....  222

ORBITAL ENERGIES
----------------

  NO   OCC          E(Eh)            E(eV)
   0   2.0000     -19.003228      -517.1041
   1   2.0000     -18.942859      -515.4614
   2   2.0000     -10.165288      -276.6116
   3   2.0000     -10.079346      -274.2730
   4   2.0000     -10.034987      -273.0659
   5   2.0000     -10.030352      -272.9397
   6   2.0000     -10.009467      -272.3714
   7   2.0000     -10.009303      -272.3670
   8   2.0000      -1.080666       -29.4064
   9   2.0000      -0.988349       -26.8943
  10   2.0000      -0.776599       -21.1323
  11   2.0000      -0.721338       -19.6286
  12   2.0000      -0.654792       -17.8178
  13   2.0000      -0.646092       -17.5810
  14   2.0000      -0.561052       -15.2670
  15   2.0000      -0.512051       -13.9336
  16   2.0000      -0.465382       -12.6637
  17   2.0000      -0.461459       -12.5569
  18   2.0000      -0.447136       -12.1672
  19   2.0000      -0.411196       -11.1892
  20   2.0000      -0.405597       -11.0369
  21   2.0000      -0.395758       -10.7691
  22   2.0000      -0.371217       -10.1013
  23   2.0000      -0.361192        -9.8285
  24   2.0000      -0.345656        -9.4058
  25   2.0000      -0.342101        -9.3090
  26   2.0000      -0.329790        -8.9740
  27   2.0000      -0.301414        -8.2019
  28   2.0000      -0.298455        -8.1214
  29   2.0000      -0.292348        -7.9552
  30   2.0000      -0.275880        -7.5071
  31   2.0000      -0.252773        -6.8783
  32   0.0000      -0.021385        -0.5819
  33   0.0000       0.068369         1.8604
  34   0.0000       0.101550         2.7633
  35   0.0000       0.115114         3.1324
  36   0.0000       0.136361         3.7106

MULLIKEN ATOMIC CHARGES
-----------------------
   0 C :   -0.546317
   1 C :    0.036521
   2 C :   -0.550182
   3 C :   -0.213804
   4 O :   -0.185431
   5 C :    0.460023
   6 O :   -0.513532
   7 C :   -0.560475
   8 H :    0.163946
   9 H :    0.160012
  10 H :    0.162583
  11 H :    0.162998
  12 H :    0.165051
  13 H :    0.161492
  14 H :    0.159984
  15 H :    0.176598
  16 H :    0.176959
  17 H :    0.188384
  18 H :    0.189732
  19 H :    0.205459
Sum of atomic charges:   -0.0000000

LOEWDIN ATOMIC CHARGES
----------------------
   0 C :   -0.414917
   1 C :   -0.214471
   2 C :   -0.415137
   3 C :    0.045375
   4 O :   -0.607374
   5 C :    0.364397
   6 O :   -0.495009
   7 C :   -0.334809
   8 H :    0.161608
   9 H :    0.159668
  10 H :    0.158185
  11 H :    0.170929
  12 H :    0.161626
  13 H :    0.157954
  14 H :    0.159491
  15 H :    0.192353
  16 H :    0.190241
  17 H :    0.183127
  18 H :    0.183243
  19 H :    0.193520

  Mayer bond orders larger than 0.100000
B(  0-C ,  1-C ) :   0.9109 B(  0-C ,  8-H ) :   0.9802 B(  0-C ,  9-H ) :   0.9690
B(  0-C , 10-H ) :   0.9715 B(  1-C ,  2-C ) :   0.9007 B(  1-C ,  3-C ) :   0.9637
B(  1-C , 11-H ) :   0.9333 B(  2-C , 12-H ) :   0.9822 B(  2-C , 13-H ) :   0.9704
B(  2-C , 14-H ) :   0.9684 B(  3-C ,  4-O ) :   0.7918 B(  3-C , 15-H ) :   0.9500
B(  3-C , 16-H ) :   0.9408 B(  4-O ,  5-C ) :   1.0998 B(  5-C ,  6-O ) :   1.7422
B(  5-C ,  7-C ) :   0.9401 B(  7-C , 17-H ) :   0.9714 B(  7-C , 18-H ) :   0.9651
B(  7-C , 19-H ) :   0.9253

Dispersion correction           -0.005215041
FINAL SINGLE POINT ENERGY      -386.243101678053

DIPOLE MOMENT
-------------

Method             : SCF
Type of density    : Electron Density
Multiplicity       :   1
Irrep              :   0
Energy             :  -386.2497993811447827 Eh
Relativity type    :
Basis              : AO
                                X                 Y                 Z
Electronic contribution:      6.972710276       3.164682885       2.048394753
Nuclear contribution   :     -7.754657243      -3.965640462      -2.529081670
                        -----------------------------------------
Total Dipole Moment    :     -0.781946967      -0.800957577      -0.480686917
                        -----------------------------------------
Magnitude (a.u.)       :      1.218209346
Magnitude (Debye)      :      3.096442080

Rotational constants in cm-1:             0.127823             0.035512             0.034260
Rotational constants in MHz :          3832.031104          1064.626396          1027.074240

                             ****ORCA TERMINATED NORMALLY****
TOTAL RUN TIME: 0 days 0 hours 0 minutes 41 seconds 604 msec
