                         Program Version 6.0.0  -   RELEASE  -
|  1> ! r2scan-3c def2/J RI DEFGRID2 scfconv6 printgap
|  2> %output
|  3>     printlevel normal
|  4> end
|  5> * xyz 0 1
|  6> C 2.6883847814 0.4093516268 0.4782559153
|  7> C 1.2503261448 0.0711694337 0.8626196271
|  8> C 0.2711878226 0.0721185045 -0.3212467695
|  9> H 0.2800432076 1.0739590769 -0.7676568712
| 10> C 0.7237165815 -0.9329380843 -1.3816286813
| 11> C -1.1715045761 -0.2305425476 0.1404317459
| 12> C -1.6286478058 0.6978145248 1.2684699822
| 13> C -2.1652680927 -0.1064281651 -1.0171843144
| 14> H 3.1503327626 -0.3891668661 -0.0953356189
| 15> H 2.7190324857 1.3236368944 -0.1107169284
| 16> H 3.2832245784 0.5619048131 1.3761180466
| 17> H 0.9235516956 0.8123310066 1.5916151445
| 18> H 1.2253487261 -0.9085375035 1.3456600184
| 19> H 1.7277721877 -0.7011435647 -1.7238838132
| 20> H 0.7211728952 -1.9406618309 -0.9705488553
| 21> H 0.0715594595 -0.9106524689 -2.2491827932
| 22> H -1.2002386574 -1.2618550398 0.5112868143
| 23> H -1.1021403711 0.493336927 2.1960604114
| 24> H -2.6911978131 0.5575274098 1.4546881392
| 25> H -1.4658721373 1.7379117853 0.993598623
| 26> H -3.1804728652 -0.2464715496 -0.6526774762
| 27> H -1.9853564212 -0.8520120275 -1.7855598622
| 28> H -2.0977423822 0.8817318975 -1.4676042345
| 29> *
| 30>
| 31>                          ****END OF INPUT****

CARTESIAN COORDINATES (ANGSTROEM)
---------------------------------
  C      2.688385    0.409352    0.478256
  C      1.250326    0.071169    0.862620
  C      0.271188    0.072119   -0.321247
  H      0.280043    1.073959   -0.767657
  C      0.723717   -0.932938   -1.381629
  C     -1.171505   -0.230543    0.140432
  C     -1.628648    0.697815    1.268470
  C     -2.165268   -0.106428   -1.017184
  H      3.150333   -0.389167   -0.095336
  H      2.719032    1.323637   -0.110717
  H      3.283225    0.561905    1.376118
  H      0.923552    0.812331    1.591615
  H      1.225349   -0.908538    1.345660
  H      1.727772   -0.701144   -1.723884
  H      0.721173   -1.940662   -0.970549
  H      0.071559   -0.910652   -2.249183
  H     -1.200239   -1.261855    0.511287
  H     -1.102140    0.493337    2.196060
  H     -2.691198    0.557527    1.454688
  H     -1.465872    1.737912    0.993599
  H     -3.180473   -0.246472   -0.652677
  H     -1.985356   -0.852012   -1.785560
  H     -2.097742    0.881732   -1.467604

 Total Charge           Charge          ....    0
 Multiplicity           Mult            ....    1
 Number of Electrons    NEL             ....   58
 Basis Dimension        Dim             ....  213

ORBITAL ENERGIES
----------------

  NO   OCC          E(Eh)            E(eV)
   0   2.0000     -10.029330      -272.9119
   1   2.0000     -10.027831      -272.8711
   2   2.0000     -10.019363      -272.6407
   3   2.0000     -10.013483      -272.4807
   4   2.0000     -10.011572      -272.4287
   5   2.0000     -10.011457      -272.4256
   6   2.0000     -10.010651      -272.4037
   7   2.0000      -0.788395       -21.4533
   8   2.0000      -0.729446       -19.8492
   9   2.0000      -0.681481       -18.5440
  10   2.0000      -0.645703       -17.5705
  11   2.0000      -0.605765       -16.4837
  12   2.0000      -0.551997       -15.0206
  13   2.0000      -0.514683       -14.0052
  14   2.0000      -0.434497       -11.8233
  15   2.0000      -0.420451       -11.4411
  16   2.0000      -0.411075       -11.1859
  17   2.0000      -0.392213       -10.6726
  18   2.0000      -0.376169       -10.2361
  19   2.0000      -0.365099        -9.9348
  20   2.0000      -0.350911        -9.5488
  21   2.0000      -0.339407        -9.2357
  22   2.0000      -0.327076        -8.9002
  23   2.0000      -0.325528        -8.8581
  24   2.0000      -0.313343        -8.5265
  25   2.0000      -0.299614        -8.1529
  26   2.0000      -0.284462        -7.7406
  27   2.0000      -0.273247        -7.4354
  28   2.0000      -0.270133        -7.3507
  29   0.0000       0.086331         2.3492
  30   0.0000       0.107484         2.9248
  31   0.0000       0.115330         3.1383
  32   0.0000       0.117232         3.1901
  33   0.0000       0.125301         3.4096

MULLIKEN ATOMIC CHARGES
-----------------------
   0 C :   -0.511729
   1 C :   -0.237451
   2 C :   -0.081708
   3 H :    0.158528
   4 C :   -0.538549
   5 C :   -0.003098
   6 C :   -0.522257
   7 C :   -0.512842
   8 H :    0.152535
   9 H :    0.148195
  10 H :    0.146204
  11 H :    0.148295
  12 H :    0.145217
  13 H :    0.153217
  14 H :    0.156020
  15 H :    0.147753
  16 H :    0.151362
  17 H :    0.156498
  18 H :    0.142341
  19 H :    0.156444
  20 H :    0.143490
  21 H :    0.148990
  22 H :    0.152542
Sum of atomic charges:   -0.0000000

LOEWDIN ATOMIC CHARGES
----------------------
   0 C :   -0.425301
   1 C :   -0.309787
   2 C :   -0.234898
   3 H :    0.158332
   4 C :   -0.413229
   5 C :   -0.240286
   6 C :   -0.419804
   7 C :   -0.417253
   8 H :    0.148885
   9 H :    0.151439
  10 H :    0.150517
  11 H :    0.156788
  12 H :    0.155717
  13 H :    0.154337
  14 H :    0.155111
  15 H :    0.153344
  16 H :    0.157465
  17 H :    0.152494
  18 H :    0.152454
  19 H :    0.155236
  20 H :    0.152116
  21 H :    0.151540
  22 H :    0.154782

  Mayer bond orders larger than 0.100000
B(  0-C ,  1-C ) :   0.8839 B(  0-C ,  8-H ) :   0.9859 B(  0-C ,  9-H ) :   0.9846
B(  0-C , 10-H ) :   0.9725 B(  1-C ,  2-C ) :   0.8767 B(  1-C , 11-H ) :   0.9659
B(  1-C , 12-H ) :   0.9834 B(  2-C ,  3-H ) :   0.9865 B(  2-C ,  4-C ) :   0.8780
B(  2-C ,  5-C ) :   0.8772 B(  4-C , 13-H ) :   0.9730 B(  4-C , 14-H ) :   0.9901
B(  4-C , 15-H ) :   0.9739 B(  5-C ,  6-C ) :   0.8652 B(  5-C ,  7-C ) :   0.8943
B(  5-C , 16-H ) :   0.9722 B(  6-C , 17-H ) :   0.9768 B(  6-C , 18-H ) :   0.9742
B(  6-C , 19-H ) :   0.9891 B(  7-C , 20-H ) :   0.9751 B(  7-C , 21-H ) :   0.9779
B(  7-C , 22-H ) :   0.9891

Dispersion correction           -0.006451940
FINAL SINGLE POINT ENERGY      -276.285609891333

DIPOLE MOMENT
-------------

Method             : SCF
Type of density    : Electron Density
Multiplicity       :   1
Irrep              :   0
Energy             :  -276.2904215366095286 Eh
Relativity type    :
Basis              : AO
                                X                 Y                 Z
Electronic contribution:     -0.355666176      -0.220855567       0.366210068
Nuclear contribution   :      0.355579462       0.217502371      -0.332239793
                        -----------------------------------------
Total Dipole Moment    :     -0.000086714      -0.003353196       0.033970275
                        -----------------------------------------
Magnitude (a.u.)       :      0.034135481
Magnitude (Debye)      :      0.086765497

Rotational constants in cm-1:             0.127640             0.055891             0.042247
Rotational constants in MHz :          3826.558964          1675.567558          1266.542442

                             ****ORCA TERMINATED NORMALLY****
TOTAL RUN TIME: 0 days 0 hours 0 minutes 21 seconds 6 msec
