                         Program Version 6.0.0  -   RELEASE  -
|  1> ! r2scan-3c def2/J RI DEFGRID2 scfconv6 printgap
|  2> %output
|  3>     printlevel normal
|  4> end
|  5> %cpcm
|  6>     smd true
|  7>     smdsolvent "water"
|  8> end
|  9> * xyz 0 1
| 10> C 2.6883847814 0.4093516268 0.4782559153
| 11> C 1.2503261448 0.0711694337 0.8626196271
| 12> C 0.2711878226 0.0721185045 -0.3212467695
| 13> H 0.2800432076 1.0739590769 -0.7676568712
| 14> C 0.7237165815 -0.9329380843 -1.3816286813
| 15> C -1.1715045761 -0.2305425476 0.1404317459
| 16> C -1.6286478058 0.6978145248 1.2684699822
| 17> C -2.1652680927 -0.1064281651 -1.0171843144
| 18> H 3.1503327626 -0.3891668661 -0.0953356189
| 19> H 2.7190324857 1.3236368944 -0.1107169284
| 20> H 3.2832245784 0.5619048131 1.3761180466
| 21> H 0.9235516956 0.8123310066 1.5916151445
| 22> H 1.2253487261 -0.9085375035 1.3456600184
| 23> H 1.7277721877 -0.7011435647 -1.7238838132
| 24> H 0.7211728952 -1.9406618309 -0.9705488553
| 25> H 0.0715594595 -0.9106524689 -2.2491827932
| 26> H -1.2002386574 -1.2618550398 0.5112868143
| 27> H -1.1021403711 0.493336927 2.1960604114
| 28> H -2.6911978131 0.5575274098 1.4546881392
| 29> H -1.4658721373 1.7379117853 0.993598623
| 30> H -3.1804728652 -0.2464715496 -0.6526774762
| 31> H -1.9853564212 -0.8520120275 -1.7855598622
| 32> H -2.0977423822 0.8817318975 -1.4676042345
| 33> *
| 34>
| 35>                          ****END OF INPUT****

CARTESIAN COORDINATES (ANGSTROEM)
---------------------------------
  C      2.688385    0.409352    0.478256
  C      1.250326    0.071169    0.862620
  C      0.271188    0.072119   -0.321247
  H      0.280043    1.073959   -0.767657
  C      0.723717   -0.932938   -1.381629
  C     -1.171505   -0.230543    0.140432
  C     -1.628648    0.697815    1.268470
  C     -2.165268   -0.106428   -1.017184
  H      3.150333   -0.389167   -0.095336
  H      2.719032    1.323637   -0.110717
  H      3.283225    0.561905    1.376118
  H      0.923552    0.812331    1.591615
  H      1.225349   -0.908538    1.345660
  H      1.727772   -0.701144   -1.723884
  H      0.721173   -1.940662   -0.970549
  H      0.071559   -0.910652   -2.249183
  H     -1.200239   -1.261855    0.511287
  H     -1.102140    0.493337    2.196060
  H     -2.691198    0.557527    1.454688
  H     -1.465872    1.737912    0.993599
  H     -3.180473   -0.246472   -0.652677
  H     -1.985356   -0.852012   -1.785560
  H     -2.097742    0.881732   -1.467604

 Total Charge           Charge          ....    0
 Multiplicity           Mult            ....    1
 Number of Electrons    NEL             ....   58
 Basis Dimension        Dim             ....  213

ORBITAL ENERGIES
----------------

  NO   OCC          E(Eh)            E(eV)
   0   2.0000     -10.021863      -272.7087
   1   2.0000     -10.019984      -272.6576
   2   2.0000     -10.011577      -272.4289
   3   2.0000     -10.006036      -272.2781
   4   2.0000     -10.003948      -272.2213
   5   2.0000     -10.003832      -272.2181
   6   2.0000     -10.002987      -272.1951
   7   2.0000      -0.780808       -21.2469
   8   2.0000      -0.722175       -19.6514
   9   2.0000      -0.674381       -18.3508
  10   2.0000      -0.638759       -17.3815
  11   2.0000      -0.598692       -16.2912
  12   2.0000      -0.544870       -14.8267
  13   2.0000      -0.507002       -13.7962
  14   2.0000      -0.426972       -11.6185
  15   2.0000      -0.413125       -11.2417
  16   2.0000      -0.403635       -10.9835
  17   2.0000      -0.384949       -10.4750
  18   2.0000      -0.368807       -10.0357
  19   2.0000      -0.357858        -9.7378
  20   2.0000      -0.343646        -9.3511
  21   2.0000      -0.332000        -9.0342
  22   2.0000      -0.319740        -8.7006
  23   2.0000      -0.318172        -8.6579
  24   2.0000      -0.305867        -8.3231
  25   2.0000      -0.291981        -7.9452
  26   2.0000      -0.276333        -7.5194
  27   2.0000      -0.265839        -7.2338
  28   2.0000      -0.262737        -7.1494
  29   0.0000       0.094630         2.5750
  30   0.0000       0.114394         3.1128
  31   0.0000       0.122715         3.3392
  32   0.0000       0.124968         3.4005
  33   0.0000       0.131908         3.5894

MULLIKEN ATOMIC CHARGES
-----------------------
   0 C :   -0.545791
   1 C :   -0.252790
   2 C :   -0.071300
   3 H :    0.166231
   4 C :   -0.578872
   5 C :    0.005336
   6 C :   -0.562051
   7 C :   -0.556129
   8 H :    0.162398
   9 H :    0.157872
  10 H :    0.155287
  11 H :    0.156268
  12 H :    0.153064
  13 H :    0.162425
  14 H :    0.166232
  15 H :    0.158668
  16 H :    0.158525
  17 H :    0.165199
  18 H :    0.154143
  19 H :    0.166739
  20 H :    0.155328
  21 H :    0.160335
  22 H :    0.162885
Sum of atomic charges:   -0.0000000

LOEWDIN ATOMIC CHARGES
----------------------
   0 C :   -0.433483
   1 C :   -0.312046
   2 C :   -0.234008
   3 H :    0.160539
   4 C :   -0.421419
   5 C :   -0.239172
   6 C :   -0.427949
   7 C :   -0.426005
   8 H :    0.151307
   9 H :    0.153764
  10 H :    0.152131
  11 H :    0.158538
  12 H :    0.157443
  13 H :    0.156099
  14 H :    0.157407
  15 H :    0.155524
  16 H :    0.159214
  17 H :    0.154505
  18 H :    0.154619
  19 H :    0.157520
  20 H :    0.154396
  21 H :    0.154152
  22 H :    0.156925

  Mayer bond orders larger than 0.100000
B(  0-C ,  1-C ) :   0.8785 B(  0-C ,  8-H ) :   0.9822 B(  0-C ,  9-H ) :   0.9820
B(  0-C , 10-H ) :   0.9707 B(  1-C ,  2-C ) :   0.8745 B(  1-C , 11-H ) :   0.9656
B(  1-C , 12-H ) :   0.9836 B(  2-C ,  3-H ) :   0.9851 B(  2-C ,  4-C ) :   0.8739
B(  2-C ,  5-C ) :   0.8755 B(  4-C , 13-H ) :   0.9707 B(  4-C , 14-H ) :   0.9881
B(  4-C , 15-H ) :   0.9712 B(  5-C ,  6-C ) :   0.8604 B(  5-C ,  7-C ) :   0.8866
B(  5-C , 16-H ) :   0.9737 B(  6-C , 17-H ) :   0.9734 B(  6-C , 18-H ) :   0.9732
B(  6-C , 19-H ) :   0.9866 B(  7-C , 20-H ) :   0.9733 B(  7-C , 21-H ) :   0.9744
B(  7-C , 22-H ) :   0.9874

Dispersion correction           -0.006451940
FINAL SINGLE POINT ENERGY      -276.281735569614

DIPOLE MOMENT
-------------

Method             : SCF
Type of density    : Electron Density
Multiplicity       :   1
Irrep              :   0
Energy             :  -276.2865472148909589 Eh
Relativity type    :
Basis              : AO
                                X                 Y                 Z
Electronic contribution:     -0.358197292      -0.221255146       0.369078323
Nuclear contribution   :      0.355579462       0.217502371      -0.332239793
                        -----------------------------------------
Total Dipole Moment    :     -0.002617829      -0.003752775       0.036838530
                        -----------------------------------------
Magnitude (a.u.)       :      0.037121606
Magnitude (Debye)      :      0.094355624

Rotational constants in cm-1:             0.127640             0.055891             0.042247
Rotational constants in MHz :          3826.558964          1675.567558          1266.542442

                             ****ORCA TERMINATED NORMALLY****
TOTAL RUN TIME: 0 days 0 hours 0 minutes 27 seconds 858 msec
