                         Program Version 6.0.0  -   RELEASE  -
|  1> ! pbe def2-sv(p) def2/J RI DEFGRID1 loosescf d4 GCP(DFT/SV(P)) printgap
|  2> %output
|  3>     printlevel normal
|  4> end
|  5> * xyz 0 1
|  6> C -2.5865762075 -1.7448221018 1.7046206016
|  7> C -3.4112223404 -0.7906523538 0.8493999829
|  8> C -2.7803423601 -0.3970664186 -0.4951406158
|  9> H -3.3989073881 0.4081928732 -0.9102737475
| 10> C -2.7511127738 -1.5269797367 -1.5156712995
| 11> N -1.4631711661 0.2422929281 -0.2903374536
| 12> C -0.285468425 -0.5030031819 -0.2222251029
| 13> O -0.261796604 -1.7159399909 -0.3031724165
| 14> C 0.9141519792 0.2928091582 -0.0463151286
| 15> C 0.904121097 1.6408335581 0.0946434321
| 16> N -0.3127142733 2.2511911325 0.058891931
| 17> C -1.5103684327 1.6080028664 -0.1168699882
| 18> O -2.5491813342 2.2470122911 -0.1224397934
| 19> C 2.1116354649 2.4804578113 0.2927542326
| 20> Br 2.5370936014 -0.6930772451 0.0085204838
| 21> H -2.3272547204 -2.6442035476 1.1536732766
| 22> H -1.6622323975 -1.2765211229 2.0383391001
| 23> H -3.1561271393 -2.030187656 2.5852197756
| 24> H -4.3758546361 -1.2474517718 0.6267322853
| 25> H -3.5984005245 0.126626155 1.4135997995
| 26> H -2.2479938995 -2.4088489361 -1.1349086312
| 27> H -3.7759701216 -1.7833242224 -1.7680069719
| 28> H -2.2408682575 -1.2045141795 -2.4204631317
| 29> H -0.3750933826 3.257624137 0.1773215358
| 30> H 2.8449581641 2.2666462036 -0.4827756375
| 31> H 2.5788920346 2.2370823381 1.2461096533
| 32> H 1.861708968 3.5356217179 0.2754691334
| 33> *
| 34>
| 35>                          ****END OF INPUT****

CARTESIAN COORDINATES (ANGSTROEM)
---------------------------------
  C     -2.586576   -1.744822    1.704621
  C     -3.411222   -0.790652    0.849400
  C     -2.780342   -0.397066   -0.495141
  H     -3.398907    0.408193   -0.910274
  C     -2.751113   -1.526980   -1.515671
  N     -1.463171    0.242293   -0.290337
  C     -0.285468   -0.503003   -0.222225
  O     -0.261797   -1.715940   -0.303172
  C      0.914152    0.292809   -0.046315
  C      0.904121    1.640834    0.094643
  N     -0.312714    2.251191    0.058892
  C     -1.510368    1.608003   -0.116870
  O     -2.549181    2.247012   -0.122440
  C      2.111635    2.480458    0.292754
  Br     2.537094   -0.693077    0.008520
  H     -2.327255   -2.644204    1.153673
  H     -1.662232   -1.276521    2.038339
  H     -3.156127   -2.030188    2.585220
  H     -4.375855   -1.247452    0.626732
  H     -3.598401    0.126626    1.413600
  H     -2.247994   -2.408849   -1.134909
  H     -3.775970   -1.783324   -1.768007
  H     -2.240868   -1.204514   -2.420463
  H     -0.375093    3.257624    0.177322
  H      2.844958    2.266646   -0.482776
  H      2.578892    2.237082    1.246110
  H      1.861709    3.535622    0.275469

 Total Charge           Charge          ....    0
 Multiplicity           Mult            ....    1
 Number of Electrons    NEL             ....  132
 Basis Dimension        Dim             ....  240

ORBITAL ENERGIES
----------------

  NO   OCC          E(Eh)            E(eV)
   0   2.0000    -480.941248    -13087.0767
   1   2.0000     -61.783011     -1681.2012
   2   2.0000     -55.713682     -1516.0464
   3   2.0000     -55.710609     -1515.9627
   4   2.0000     -55.710384     -1515.9566
   5   2.0000     -18.734839      -509.8009
   6   2.0000     -18.729837      -509.6648
   7   2.0000     -14.067673      -382.8009
   8   2.0000     -14.054562      -382.4441
   9   2.0000     -10.033122      -273.0151
  10   2.0000     -10.002630      -272.1854
  11   2.0000      -9.981216      -271.6027
  12   2.0000      -9.948207      -270.7045
  13   2.0000      -9.932749      -270.2838
  14   2.0000      -9.923351      -270.0281
  15   2.0000      -9.885795      -269.0062
  16   2.0000      -9.872250      -268.6376
  17   2.0000      -9.868256      -268.5289
  18   2.0000      -8.408221      -228.7993
  19   2.0000      -6.290496      -171.1731
  20   2.0000      -6.275963      -170.7776
  21   2.0000      -6.275167      -170.7560
  22   2.0000      -2.491563       -67.7989
  23   2.0000      -2.488110       -67.7049
  24   2.0000      -2.487525       -67.6890
  25   2.0000      -2.476578       -67.3911
  26   2.0000      -2.476557       -67.3905
  27   2.0000      -0.987389       -26.8682
  28   2.0000      -0.946851       -25.7651
  29   2.0000      -0.897921       -24.4337
  30   2.0000      -0.859729       -23.3944
  31   2.0000      -0.767709       -20.8904
  32   2.0000      -0.727622       -19.7996
  33   2.0000      -0.707504       -19.2522
  34   2.0000      -0.666308       -18.1312
  35   2.0000      -0.648953       -17.6589
  36   2.0000      -0.607595       -16.5335
  37   2.0000      -0.603603       -16.4249
  38   2.0000      -0.568862       -15.4795
  39   2.0000      -0.532290       -14.4843
  40   2.0000      -0.528151       -14.3717
  41   2.0000      -0.490414       -13.3448
  42   2.0000      -0.454544       -12.3688
  43   2.0000      -0.429492       -11.6871
  44   2.0000      -0.417981       -11.3739
  45   2.0000      -0.413326       -11.2472
  46   2.0000      -0.407279       -11.0826
  47   2.0000      -0.391259       -10.6467
  48   2.0000      -0.386890       -10.5278
  49   2.0000      -0.383167       -10.4265
  50   2.0000      -0.373186       -10.1549
  51   2.0000      -0.361754        -9.8438
  52   2.0000      -0.359324        -9.7777
  53   2.0000      -0.345305        -9.3962
  54   2.0000      -0.339548        -9.2396
  55   2.0000      -0.333578        -9.0771
  56   2.0000      -0.321459        -8.7473
  57   2.0000      -0.304159        -8.2766
  58   2.0000      -0.294171        -8.0048
  59   2.0000      -0.283878        -7.7247
  60   2.0000      -0.274735        -7.4759
  61   2.0000      -0.252407        -6.8683
  62   2.0000      -0.240134        -6.5344
  63   2.0000      -0.232637        -6.3304
  64   2.0000      -0.212985        -5.7956
  65   2.0000      -0.205196        -5.5837
  66   0.0000      -0.071786        -1.9534
  67   0.0000      -0.030764        -0.8371
  68   0.0000      -0.024094        -0.6556
  69   0.0000       0.013289         0.3616
  70   0.0000       0.043402         1.1810

MULLIKEN ATOMIC CHARGES
-----------------------
   0 C :   -0.272988
   1 C :   -0.157661
   2 C :   -0.066839
   3 H :    0.105363
   4 C :   -0.235708
   5 N :   -0.244611
   6 C :    0.188339
   7 O :   -0.178184
   8 C :   -0.196176
   9 C :   -0.002535
  10 N :   -0.195092
  11 C :    0.167966
  12 O :   -0.210621
  13 C :   -0.200304
  14 Br:    0.007055
  15 H :    0.115953
  16 H :    0.107597
  17 H :    0.099513
  18 H :    0.088519
  19 H :    0.095351
  20 H :    0.141027
  21 H :    0.099439
  22 H :    0.100998
  23 H :    0.248767
  24 H :    0.146105
  25 H :    0.146377
  26 H :    0.102348
Sum of atomic charges:    0.0000000

LOEWDIN ATOMIC CHARGES
----------------------
   0 C :   -0.344529
   1 C :   -0.227044
   2 C :   -0.075433
   3 H :    0.134817
   4 C :   -0.341225
   5 N :   -0.003251
   6 C :    0.018730
   7 O :   -0.160982
   8 C :   -0.217897
   9 C :   -0.009454
  10 N :   -0.085272
  11 C :    0.039751
  12 O :   -0.198211
  13 C :   -0.330386
  14 Br:    0.136274
  15 H :    0.124167
  16 H :    0.117210
  17 H :    0.118865
  18 H :    0.121983
  19 H :    0.120458
  20 H :    0.130693
  21 H :    0.122607
  22 H :    0.122975
  23 H :    0.254575
  24 H :    0.149966
  25 H :    0.151763
  26 H :    0.128848

  Mayer bond orders larger than 0.100000
B(  0-C ,  1-C ) :   1.1746 B(  0-C , 15-H ) :   0.9469 B(  0-C , 16-H ) :   0.9414
B(  0-C , 17-H ) :   0.9460 B(  1-C ,  2-C ) :   1.0949 B(  1-C , 18-H ) :   0.9217
B(  1-C , 19-H ) :   0.9123 B(  2-C ,  3-H ) :   0.8773 B(  2-C ,  4-C ) :   1.1219
B(  2-C ,  5-N ) :   0.9101 B(  4-C , 20-H ) :   0.9242 B(  4-C , 21-H ) :   0.9362
B(  4-C , 22-H ) :   0.9435 B(  5-N ,  6-C ) :   1.0327 B(  5-N , 11-C ) :   1.0802
B(  6-C ,  7-O ) :   2.0774 B(  6-C ,  8-C ) :   1.0385 B(  8-C ,  9-C ) :   1.6100
B(  8-C , 14-Br) :   1.0944 B(  9-C , 10-N ) :   1.2028 B(  9-C , 13-C ) :   1.1627
B( 10-N , 11-C ) :   1.0986 B( 10-N , 23-H ) :   0.8287 B( 11-C , 12-O ) :   2.0256
B( 13-C , 24-H ) :   0.9136 B( 13-C , 25-H ) :   0.9145 B( 13-C , 26-H ) :   0.9222

Dispersion correction           -0.034533292
FINAL SINGLE POINT ENERGY     -3182.938809643786

DIPOLE MOMENT
-------------

Method             : SCF
Type of density    : Electron Density
Multiplicity       :   1
Irrep              :   0
Energy             : -3183.0305279480630816 Eh
Relativity type    :
Basis              : AO
                                X                 Y                 Z
Electronic contribution:     42.846162251      -4.413326945      -2.360026517
Nuclear contribution   :    -42.252660675       5.740703007       2.540242507
                        -----------------------------------------
Total Dipole Moment    :      0.593501577       1.327376062       0.180215991
                        -----------------------------------------
Magnitude (a.u.)       :      1.465144749
Magnitude (Debye)      :      3.724101992

Rotational constants in cm-1:             0.027262             0.012315             0.009504
Rotational constants in MHz :           817.301693           369.190130           284.920865

                             ****ORCA TERMINATED NORMALLY****
TOTAL RUN TIME: 0 days 0 hours 0 minutes 22 seconds 378 msec
