                         Program Version 6.0.0  -   RELEASE  -
|  1> ! pbe def2-sv(p) def2/J RI DEFGRID1 loosescf d4 GCP(DFT/SV(P)) printgap
|  2> %output
|  3>     printlevel normal
|  4> end
|  5> * xyz 0 1
|  6> C -2.5868048366 0.6938147834 -0.4906609983
|  7> C -1.7406715457 0.1893312042 0.6819205789
|  8> C -0.4304303098 -0.3418535246 0.1604528187
|  9> O -0.1869084529 -1.5148725432 -0.0346250591
| 10> O 0.4204470789 0.6410110054 -0.1016389724
| 11> C 1.7112521331 0.3089648963 -0.6393055977
| 12> C 2.7112749576 0.0326388998 0.4728958992
| 13> H -2.7763094208 -0.1132534337 -1.1944562962
| 14> H -3.5376845906 1.0665875456 -0.1222535603
| 15> H -2.0696097314 1.4969480933 -1.0090357649
| 16> H -2.2577294808 -0.6170915214 1.2004459503
| 17> H -1.5379107651 1.009724969 1.3689890621
| 18> H 1.6048676297 -0.5656418244 -1.2882110008
| 19> H 1.9998349007 1.1830290178 -1.2239998768
| 20> H 3.6896556859 -0.1487270417 0.0401768689
| 21> H 2.7677412212 0.8843382113 1.1453136261
| 22> H 2.4066241598 -0.8455882673 1.0378598504
| 23> *
| 24>
| 25>                          ****END OF INPUT****

CARTESIAN COORDINATES (ANGSTROEM)
---------------------------------
  C     -2.586805    0.693815   -0.490661
  C     -1.740672    0.189331    0.681921
  C     -0.430430   -0.341854    0.160453
  O     -0.186908   -1.514873   -0.034625
  O      0.420447    0.641011   -0.101639
  C      1.711252    0.308965   -0.639306
  C      2.711275    0.032639    0.472896
  H     -2.776309   -0.113253   -1.194456
  H     -3.537685    1.066588   -0.122254
  H     -2.069610    1.496948   -1.009036
  H     -2.257729   -0.617092    1.200446
  H     -1.537911    1.009725    1.368989
  H      1.604868   -0.565642   -1.288211
  H      1.999835    1.183029   -1.224000
  H      3.689656   -0.148727    0.040177
  H      2.767741    0.884338    1.145314
  H      2.406624   -0.845588    1.037860

 Total Charge           Charge          ....    0
 Multiplicity           Mult            ....    1
 Number of Electrons    NEL             ....   56
 Basis Dimension        Dim             ....  118

ORBITAL ENERGIES
----------------

  NO   OCC          E(Eh)            E(eV)
   0   2.0000     -18.796933      -511.4906
   1   2.0000     -18.729765      -509.6628
   2   2.0000     -10.003803      -272.2173
   3   2.0000      -9.946156      -270.6487
   4   2.0000      -9.898195      -269.3436
   5   2.0000      -9.887681      -269.0575
   6   2.0000      -9.886476      -269.0247
   7   2.0000      -1.003642       -27.3105
   8   2.0000      -0.907058       -24.6823
   9   2.0000      -0.721676       -19.6378
  10   2.0000      -0.685999       -18.6670
  11   2.0000      -0.606015       -16.4905
  12   2.0000      -0.563762       -15.3407
  13   2.0000      -0.496762       -13.5176
  14   2.0000      -0.452419       -12.3109
  15   2.0000      -0.426204       -11.5976
  16   2.0000      -0.416738       -11.3400
  17   2.0000      -0.397875       -10.8267
  18   2.0000      -0.383747       -10.4423
  19   2.0000      -0.369367       -10.0510
  20   2.0000      -0.349038        -9.4978
  21   2.0000      -0.341365        -9.2890
  22   2.0000      -0.324423        -8.8280
  23   2.0000      -0.314488        -8.5576
  24   2.0000      -0.313833        -8.5398
  25   2.0000      -0.289459        -7.8766
  26   2.0000      -0.254379        -6.9220
  27   2.0000      -0.214404        -5.8342
  28   0.0000      -0.018886        -0.5139
  29   0.0000       0.045495         1.2380
  30   0.0000       0.056913         1.5487
  31   0.0000       0.081070         2.2060
  32   0.0000       0.087953         2.3933

MULLIKEN ATOMIC CHARGES
-----------------------
   0 C :   -0.305325
   1 C :   -0.128384
   2 C :    0.097632
   3 O :   -0.212540
   4 O :   -0.243764
   5 C :   -0.012890
   6 C :   -0.302298
   7 H :    0.116009
   8 H :    0.115706
   9 H :    0.113787
  10 H :    0.103666
  11 H :    0.101459
  12 H :    0.107064
  13 H :    0.100040
  14 H :    0.111537
  15 H :    0.112246
  16 H :    0.126055
Sum of atomic charges:   -0.0000000

LOEWDIN ATOMIC CHARGES
----------------------
   0 C :   -0.331171
   1 C :   -0.249099
   2 C :    0.036457
   3 O :   -0.173651
   4 O :   -0.069664
   5 C :   -0.113203
   6 C :   -0.355650
   7 H :    0.124981
   8 H :    0.123716
   9 H :    0.122575
  10 H :    0.133672
  11 H :    0.131830
  12 H :    0.118934
  13 H :    0.116167
  14 H :    0.129803
  15 H :    0.123889
  16 H :    0.130413

  Mayer bond orders larger than 0.100000
B(  0-C ,  1-C ) :   1.1391 B(  0-C ,  7-H ) :   0.9535 B(  0-C ,  8-H ) :   0.9523
B(  0-C ,  9-H ) :   0.9540 B(  1-C ,  2-C ) :   1.0277 B(  1-C , 10-H ) :   0.9124
B(  1-C , 11-H ) :   0.9064 B(  2-C ,  3-O ) :   2.0461 B(  2-C ,  4-O ) :   1.1984
B(  4-O ,  5-C ) :   0.9221 B(  5-C ,  6-C ) :   1.1740 B(  5-C , 12-H ) :   0.9125
B(  5-C , 13-H ) :   0.9369 B(  6-C , 14-H ) :   0.9446 B(  6-C , 15-H ) :   0.9493
B(  6-C , 16-H ) :   0.9468

Dispersion correction           -0.012026167
FINAL SINGLE POINT ENERGY      -346.244250164987

DIPOLE MOMENT
-------------

Method             : SCF
Type of density    : Electron Density
Multiplicity       :   1
Irrep              :   0
Energy             :  -346.3088074847383382 Eh
Relativity type    :
Basis              : AO
                                X                 Y                 Z
Electronic contribution:     -0.109266714      -2.414370112       0.034220149
Nuclear contribution   :      0.275042755       3.130209723      -0.044398355
                        -----------------------------------------
Total Dipole Moment    :      0.165776041       0.715839611      -0.010178206
                        -----------------------------------------
Magnitude (a.u.)       :      0.734854843
Magnitude (Debye)      :      1.867852571

Rotational constants in cm-1:             0.192870             0.049697             0.045120
Rotational constants in MHz :          5782.107885          1489.888520          1352.649031

                             ****ORCA TERMINATED NORMALLY****
TOTAL RUN TIME: 0 days 0 hours 0 minutes 9 seconds 93 msec
