                         Program Version 6.0.0  -   RELEASE  -
|  1> ! r2scan-3c def2/J RI DEFGRID2 scfconv6 printgap
|  2> %output
|  3>     printlevel normal
|  4> end
|  5> * xyz 0 1
|  6> C 1.9216237453 -0.782226971 -0.8059613562
|  7> C 1.2041520814 -0.1049442748 0.3606948559
|  8> H 0.9321232778 -0.8548781491 1.1121814202
|  9> C -0.0611198753 0.6529468065 -0.0891429201
| 10> C -1.3792047366 -0.075438177 0.197915278
| 11> C -2.5537398312 0.8465095747 -0.1296930797
| 12> C -1.5050177238 -1.3758646444 -0.5919208763
| 13> O 2.0947838387 0.7560432738 1.0571602761
| 14> H 2.8110344957 -1.294085759 -0.4454029514
| 15> H 1.2704066512 -1.5045651454 -1.286201395
| 16> H 2.2213703393 -0.0393088296 -1.5428250717
| 17> H -0.0805219472 1.6024314266 0.4517536686
| 18> H 0.0010083945 0.8751974282 -1.1565417469
| 19> H -1.4128815324 -0.3126641751 1.2675217653
| 20> H -3.4971307571 0.3562214479 0.0976684645
| 21> H -2.5473679812 1.1051679501 -1.1862527479
| 22> H -2.4967445194 1.7646967446 0.450120489
| 23> H -1.4128550171 -1.1818548975 -1.6582982371
| 24> H -0.7390118453 -2.0875698212 -0.2967642926
| 25> H -2.4761011686 -1.8306007219 -0.4099012091
| 26> H 2.4564343866 1.3988386656 0.4309071666
| 27> *
| 28>
| 29>                          ****END OF INPUT****

CARTESIAN COORDINATES (ANGSTROEM)
---------------------------------
  C      1.921624   -0.782227   -0.805961
  C      1.204152   -0.104944    0.360695
  H      0.932123   -0.854878    1.112181
  C     -0.061120    0.652947   -0.089143
  C     -1.379205   -0.075438    0.197915
  C     -2.553740    0.846510   -0.129693
  C     -1.505018   -1.375865   -0.591921
  O      2.094784    0.756043    1.057160
  H      2.811034   -1.294086   -0.445403
  H      1.270407   -1.504565   -1.286201
  H      2.221370   -0.039309   -1.542825
  H     -0.080522    1.602431    0.451754
  H      0.001008    0.875197   -1.156542
  H     -1.412882   -0.312664    1.267522
  H     -3.497131    0.356221    0.097668
  H     -2.547368    1.105168   -1.186253
  H     -2.496745    1.764697    0.450120
  H     -1.412855   -1.181855   -1.658298
  H     -0.739012   -2.087570   -0.296764
  H     -2.476101   -1.830601   -0.409901
  H      2.456434    1.398839    0.430907

 Total Charge           Charge          ....    0
 Multiplicity           Mult            ....    1
 Number of Electrons    NEL             ....   58
 Basis Dimension        Dim             ....  208

ORBITAL ENERGIES
----------------

  NO   OCC          E(Eh)            E(eV)
   0   2.0000     -18.941288      -515.4187
   1   2.0000     -10.079256      -274.2705
   2   2.0000     -10.035966      -273.0925
   3   2.0000     -10.020674      -272.6764
   4   2.0000     -10.019524      -272.6451
   5   2.0000     -10.017927      -272.6016
   6   2.0000     -10.015892      -272.5463
   7   2.0000      -0.979901       -26.6645
   8   2.0000      -0.779935       -21.2231
   9   2.0000      -0.718369       -19.5478
  10   2.0000      -0.655008       -17.8237
  11   2.0000      -0.648069       -17.6349
  12   2.0000      -0.571762       -15.5584
  13   2.0000      -0.532062       -14.4781
  14   2.0000      -0.451049       -12.2737
  15   2.0000      -0.437270       -11.8987
  16   2.0000      -0.432433       -11.7671
  17   2.0000      -0.395514       -10.7625
  18   2.0000      -0.389314       -10.5938
  19   2.0000      -0.370803       -10.0901
  20   2.0000      -0.367191        -9.9918
  21   2.0000      -0.352919        -9.6034
  22   2.0000      -0.344808        -9.3827
  23   2.0000      -0.321905        -8.7595
  24   2.0000      -0.305564        -8.3148
  25   2.0000      -0.294767        -8.0210
  26   2.0000      -0.290920        -7.9163
  27   2.0000      -0.282382        -7.6840
  28   2.0000      -0.229359        -6.2412
  29   0.0000       0.065414         1.7800
  30   0.0000       0.083827         2.2810
  31   0.0000       0.106468         2.8971
  32   0.0000       0.113101         3.0776
  33   0.0000       0.123829         3.3696

MULLIKEN ATOMIC CHARGES
-----------------------
   0 C :   -0.498733
   1 C :   -0.010081
   2 H :    0.141532
   3 C :   -0.253800
   4 C :   -0.058670
   5 C :   -0.479601
   6 C :   -0.520233
   7 O :   -0.413014
   8 H :    0.162903
   9 H :    0.150181
  10 H :    0.143707
  11 H :    0.161772
  12 H :    0.141973
  13 H :    0.151935
  14 H :    0.146840
  15 H :    0.145359
  16 H :    0.146062
  17 H :    0.156858
  18 H :    0.152199
  19 H :    0.145567
  20 H :    0.287247
Sum of atomic charges:   -0.0000000

LOEWDIN ATOMIC CHARGES
----------------------
   0 C :   -0.399913
   1 C :    0.045696
   2 H :    0.180426
   3 C :   -0.283667
   4 C :   -0.242093
   5 C :   -0.417162
   6 C :   -0.418570
   7 O :   -0.612812
   8 H :    0.160701
   9 H :    0.158823
  10 H :    0.152418
  11 H :    0.174674
  12 H :    0.159419
  13 H :    0.156099
  14 H :    0.152449
  15 H :    0.153461
  16 H :    0.153628
  17 H :    0.153646
  18 H :    0.152551
  19 H :    0.154128
  20 H :    0.266100

  Mayer bond orders larger than 0.100000
B(  0-C ,  1-C ) :   0.9562 B(  0-C ,  8-H ) :   0.9747 B(  0-C ,  9-H ) :   0.9604
B(  0-C , 10-H ) :   0.9799 B(  1-C ,  2-H ) :   0.9546 B(  1-C ,  3-C ) :   0.8477
B(  1-C ,  7-O ) :   0.9608 B(  3-C ,  4-C ) :   0.9075 B(  3-C , 11-H ) :   0.9662
B(  3-C , 12-H ) :   0.9693 B(  4-C ,  5-C ) :   0.9075 B(  4-C ,  6-C ) :   0.8813
B(  4-C , 13-H ) :   0.9673 B(  5-C , 14-H ) :   0.9751 B(  5-C , 15-H ) :   0.9848
B(  5-C , 16-H ) :   0.9767 B(  6-C , 17-H ) :   0.9866 B(  6-C , 18-H ) :   0.9714
B(  6-C , 19-H ) :   0.9691 B(  7-O , 20-H ) :   0.8990

Dispersion correction           -0.005573309
FINAL SINGLE POINT ENERGY      -312.200002987269

DIPOLE MOMENT
-------------

Method             : SCF
Type of density    : Electron Density
Multiplicity       :   1
Irrep              :   0
Energy             :  -312.2055673227228567 Eh
Relativity type    :
Basis              : AO
                                X                 Y                 Z
Electronic contribution:      4.429348288       1.875612863       3.336864048
Nuclear contribution   :     -4.631807170      -1.867896771      -3.898361775
                        -----------------------------------------
Total Dipole Moment    :     -0.202458882       0.007716092      -0.561497728
                        -----------------------------------------
Magnitude (a.u.)       :      0.596932856
Magnitude (Debye)      :      1.517282740

Rotational constants in cm-1:             0.141961             0.048831             0.040409
Rotational constants in MHz :          4255.896854          1463.903819          1211.439296

                             ****ORCA TERMINATED NORMALLY****
TOTAL RUN TIME: 0 days 0 hours 0 minutes 30 seconds 604 msec
