                         Program Version 6.0.0  -   RELEASE  -
|  1> ! r2scan-3c def2/J RI DEFGRID2 scfconv6 printgap
|  2> %output
|  3>     printlevel normal
|  4> end
|  5> %cpcm
|  6>     smd true
|  7>     smdsolvent "water"
|  8> end
|  9> * xyz 0 1
| 10> C 1.9216237453 -0.782226971 -0.8059613562
| 11> C 1.2041520814 -0.1049442748 0.3606948559
| 12> H 0.9321232778 -0.8548781491 1.1121814202
| 13> C -0.0611198753 0.6529468065 -0.0891429201
| 14> C -1.3792047366 -0.075438177 0.197915278
| 15> C -2.5537398312 0.8465095747 -0.1296930797
| 16> C -1.5050177238 -1.3758646444 -0.5919208763
| 17> O 2.0947838387 0.7560432738 1.0571602761
| 18> H 2.8110344957 -1.294085759 -0.4454029514
| 19> H 1.2704066512 -1.5045651454 -1.286201395
| 20> H 2.2213703393 -0.0393088296 -1.5428250717
| 21> H -0.0805219472 1.6024314266 0.4517536686
| 22> H 0.0010083945 0.8751974282 -1.1565417469
| 23> H -1.4128815324 -0.3126641751 1.2675217653
| 24> H -3.4971307571 0.3562214479 0.0976684645
| 25> H -2.5473679812 1.1051679501 -1.1862527479
| 26> H -2.4967445194 1.7646967446 0.450120489
| 27> H -1.4128550171 -1.1818548975 -1.6582982371
| 28> H -0.7390118453 -2.0875698212 -0.2967642926
| 29> H -2.4761011686 -1.8306007219 -0.4099012091
| 30> H 2.4564343866 1.3988386656 0.4309071666
| 31> *
| 32>
| 33>                          ****END OF INPUT****

CARTESIAN COORDINATES (ANGSTROEM)
---------------------------------
  C      1.921624   -0.782227   -0.805961
  C      1.204152   -0.104944    0.360695
  H      0.932123   -0.854878    1.112181
  C     -0.061120    0.652947   -0.089143
  C     -1.379205   -0.075438    0.197915
  C     -2.553740    0.846510   -0.129693
  C     -1.505018   -1.375865   -0.591921
  O      2.094784    0.756043    1.057160
  H      2.811034   -1.294086   -0.445403
  H      1.270407   -1.504565   -1.286201
  H      2.221370   -0.039309   -1.542825
  H     -0.080522    1.602431    0.451754
  H      0.001008    0.875197   -1.156542
  H     -1.412882   -0.312664    1.267522
  H     -3.497131    0.356221    0.097668
  H     -2.547368    1.105168   -1.186253
  H     -2.496745    1.764697    0.450120
  H     -1.412855   -1.181855   -1.658298
  H     -0.739012   -2.087570   -0.296764
  H     -2.476101   -1.830601   -0.409901
  H      2.456434    1.398839    0.430907

 Total Charge           Charge          ....    0
 Multiplicity           Mult            ....    1
 Number of Electrons    NEL             ....   58
 Basis Dimension        Dim             ....  208

ORBITAL ENERGIES
----------------

  NO   OCC          E(Eh)            E(eV)
   0   2.0000     -18.945899      -515.5441
   1   2.0000     -10.073892      -274.1245
   2   2.0000     -10.025944      -272.8198
   3   2.0000     -10.011620      -272.4300
   4   2.0000     -10.009068      -272.3606
   5   2.0000     -10.005917      -272.2748
   6   2.0000     -10.005910      -272.2747
   7   2.0000      -0.983149       -26.7528
   8   2.0000      -0.770291       -20.9607
   9   2.0000      -0.710398       -19.3309
  10   2.0000      -0.644817       -17.5464
  11   2.0000      -0.638709       -17.3802
  12   2.0000      -0.566691       -15.4204
  13   2.0000      -0.522349       -14.2138
  14   2.0000      -0.446162       -12.1407
  15   2.0000      -0.429080       -11.6759
  16   2.0000      -0.424861       -11.5611
  17   2.0000      -0.389911       -10.6100
  18   2.0000      -0.379723       -10.3328
  19   2.0000      -0.363312        -9.8862
  20   2.0000      -0.357588        -9.7305
  21   2.0000      -0.342455        -9.3187
  22   2.0000      -0.338422        -9.2089
  23   2.0000      -0.313177        -8.5220
  24   2.0000      -0.296875        -8.0784
  25   2.0000      -0.287634        -7.8269
  26   2.0000      -0.281829        -7.6689
  27   2.0000      -0.278712        -7.5841
  28   2.0000      -0.233302        -6.3485
  29   0.0000       0.080068         2.1788
  30   0.0000       0.094697         2.5768
  31   0.0000       0.118624         3.2279
  32   0.0000       0.121451         3.3048
  33   0.0000       0.132134         3.5955

MULLIKEN ATOMIC CHARGES
-----------------------
   0 C :   -0.539553
   1 C :    0.019011
   2 H :    0.152605
   3 C :   -0.286768
   4 C :   -0.025652
   5 C :   -0.527616
   6 C :   -0.561274
   7 O :   -0.507781
   8 H :    0.162004
   9 H :    0.165232
  10 H :    0.168145
  11 H :    0.162064
  12 H :    0.159070
  13 H :    0.155229
  14 H :    0.158370
  15 H :    0.158171
  16 H :    0.156088
  17 H :    0.167936
  18 H :    0.164957
  19 H :    0.155366
  20 H :    0.344395
Sum of atomic charges:   -0.0000000

LOEWDIN ATOMIC CHARGES
----------------------
   0 C :   -0.403585
   1 C :    0.045962
   2 H :    0.183700
   3 C :   -0.282443
   4 C :   -0.239501
   5 C :   -0.426321
   6 C :   -0.425656
   7 O :   -0.652898
   8 H :    0.159376
   9 H :    0.164332
  10 H :    0.160763
  11 H :    0.173689
  12 H :    0.165416
  13 H :    0.157261
  14 H :    0.154942
  15 H :    0.156307
  16 H :    0.155256
  17 H :    0.156702
  18 H :    0.156524
  19 H :    0.155601
  20 H :    0.284573

  Mayer bond orders larger than 0.100000
B(  0-C ,  1-C ) :   0.9414 B(  0-C ,  8-H ) :   0.9724 B(  0-C ,  9-H ) :   0.9573
B(  0-C , 10-H ) :   0.9772 B(  1-C ,  2-H ) :   0.9581 B(  1-C ,  3-C ) :   0.8521
B(  1-C ,  7-O ) :   0.9430 B(  3-C ,  4-C ) :   0.8993 B(  3-C , 11-H ) :   0.9706
B(  3-C , 12-H ) :   0.9693 B(  4-C ,  5-C ) :   0.8937 B(  4-C ,  6-C ) :   0.8765
B(  4-C , 13-H ) :   0.9676 B(  5-C , 14-H ) :   0.9730 B(  5-C , 15-H ) :   0.9832
B(  5-C , 16-H ) :   0.9749 B(  6-C , 17-H ) :   0.9837 B(  6-C , 18-H ) :   0.9682
B(  6-C , 19-H ) :   0.9683 B(  7-O , 20-H ) :   0.8716

Dispersion correction           -0.005573309
FINAL SINGLE POINT ENERGY      -312.205981721957

DIPOLE MOMENT
-------------

Method             : SCF
Type of density    : Electron Density
Multiplicity       :   1
Irrep              :   0
Energy             :  -312.2115460574107146 Eh
Relativity type    :
Basis              : AO
                                X                 Y                 Z
Electronic contribution:      4.383058576       1.886400128       3.067866947
Nuclear contribution   :     -4.631807170      -1.867896771      -3.898361775
                        -----------------------------------------
Total Dipole Moment    :     -0.248748594       0.018503357      -0.830494828
                        -----------------------------------------
Magnitude (a.u.)       :      0.867144681
Magnitude (Debye)      :      2.204106615

Rotational constants in cm-1:             0.141961             0.048831             0.040409
Rotational constants in MHz :          4255.896854          1463.903819          1211.439296

                             ****ORCA TERMINATED NORMALLY****
TOTAL RUN TIME: 0 days 0 hours 0 minutes 36 seconds 866 msec
