                         Program Version 6.0.0  -   RELEASE  -
|  1> ! wb97x-v def2-tzvp def2/J RIJCOSX DEFGRID2 scfconv7 GCP(DFT/TZ) printgap
|  2> %output
|  3>     printlevel normal
|  4> end
|  5> * xyz 0 1
|  6> C -2.569171357472227 -0.3257280711321343 -0.34620764271061577
|  7> C -1.7215005652276085 -1.3545573005496474 0.05764468862465911
|  8> C -0.4191519914672505 -1.069638644377724 0.46270394822383115
|  9> C 0.05819529485604511 0.2444562155816209 0.47001966275848667
| 10> C -0.8025308800863029 1.269316868693558 0.061871967321308674
| 11> C -2.10520427136456 0.9888122494271777 -0.34155502682543826
| 12> C 1.4808866042604605 0.5477051941612466 0.8522126773935207
| 13> C 2.4081921646600253 0.6572950205348522 -0.3595001094023404
| 14> O 2.4652925754336064 -0.5543023214896258 -1.129732993728457
| 15> H -3.585166278735158 -0.5455377869456758 -0.658867125468312
| 16> H -2.07495594525959 -2.381283427913027 0.06031383531953162
| 17> H 0.2366430572305276 -1.8754240554865156 0.7816237951846862
| 18> H -0.44729316320398893 2.296788473764639 0.06466335302186464
| 19> H -2.761217405929072 1.7977903178427515 -0.648876473932177
| 20> H 1.5337713146930994 1.5015831996395155 1.3902439475600081
| 21> H 1.8668058774398189 -0.2313225853574491 1.5204835732542408
| 22> H 2.044933143511498 1.429812874748372 -1.0449878769621523
| 23> H 3.4147446294364605 0.9414942853059236 -0.022928462949805863
| 24> H 2.7778322351345963 -1.2542670245036494 -0.5412766669255993
| 25> *
| 26>
| 27>                          ****END OF INPUT****

CARTESIAN COORDINATES (ANGSTROEM)
---------------------------------
  C     -2.569171   -0.325728   -0.346208
  C     -1.721501   -1.354557    0.057645
  C     -0.419152   -1.069639    0.462704
  C      0.058195    0.244456    0.470020
  C     -0.802531    1.269317    0.061872
  C     -2.105204    0.988812   -0.341555
  C      1.480887    0.547705    0.852213
  C      2.408192    0.657295   -0.359500
  O      2.465293   -0.554302   -1.129733
  H     -3.585166   -0.545538   -0.658867
  H     -2.074956   -2.381283    0.060314
  H      0.236643   -1.875424    0.781624
  H     -0.447293    2.296788    0.064663
  H     -2.761217    1.797790   -0.648876
  H      1.533771    1.501583    1.390244
  H      1.866806   -0.231323    1.520484
  H      2.044933    1.429813   -1.044988
  H      3.414745    0.941494   -0.022928
  H      2.777832   -1.254267   -0.541277

 Total Charge           Charge          ....    0
 Multiplicity           Mult            ....    1
 Number of Electrons    NEL             ....   66
 Basis Dimension        Dim             ....  339

ORBITAL ENERGIES
----------------

  NO   OCC          E(Eh)            E(eV)
   0   2.0000     -21.670928      -589.6959
   1   2.0000     -12.096189      -329.1540
   2   2.0000     -12.058325      -328.1237
   3   2.0000     -12.054469      -328.0188
   4   2.0000     -12.050720      -327.9168
   5   2.0000     -12.050313      -327.9057
   6   2.0000     -12.048138      -327.8465
   7   2.0000     -12.047742      -327.8357
   8   2.0000     -12.046638      -327.8057
   9   2.0000      -1.670037       -45.4440
  10   2.0000      -1.383410       -37.6445
  11   2.0000      -1.307602       -35.5817
  12   2.0000      -1.269899       -34.5557
  13   2.0000      -1.245530       -33.8926
  14   2.0000      -1.153514       -31.3887
  15   2.0000      -1.104661       -30.0594
  16   2.0000      -1.084927       -29.5224
  17   2.0000      -1.017366       -27.6839
  18   2.0000      -0.962364       -26.1873
  19   2.0000      -0.956744       -26.0343
  20   2.0000      -0.945854       -25.7380
  21   2.0000      -0.932857       -25.3843
  22   2.0000      -0.912782       -24.8381
  23   2.0000      -0.877990       -23.8913
  24   2.0000      -0.871554       -23.7162
  25   2.0000      -0.839708       -22.8496
  26   2.0000      -0.825556       -22.4645
  27   2.0000      -0.814579       -22.1658
  28   2.0000      -0.798783       -21.7360
  29   2.0000      -0.785408       -21.3720
  30   2.0000      -0.761666       -20.7260
  31   2.0000      -0.635627       -17.2963
  32   2.0000      -0.633523       -17.2390
  33   0.0000      -0.240042        -6.5319
  34   0.0000      -0.234191        -6.3727
  35   0.0000      -0.139514        -3.7964
  36   0.0000      -0.074416        -2.0250
  37   0.0000      -0.055390        -1.5072

MULLIKEN ATOMIC CHARGES
-----------------------
   0 C :   -0.138700
   1 C :   -0.102132
   2 C :   -0.250910
   3 C :    0.337460
   4 C :   -0.231760
   5 C :   -0.102846
   6 C :   -0.335047
   7 C :   -0.017074
   8 O :   -0.441526
   9 H :    0.115896
  10 H :    0.114483
  11 H :    0.099577
  12 H :    0.114571
  13 H :    0.115432
  14 H :    0.111114
  15 H :    0.124148
  16 H :    0.098484
  17 H :    0.094914
  18 H :    0.293917
Sum of atomic charges:    0.0000000

LOEWDIN ATOMIC CHARGES
----------------------
   0 C :   -0.144358
   1 C :   -0.137306
   2 C :   -0.113033
   3 C :   -0.142332
   4 C :   -0.113285
   5 C :   -0.138796
   6 C :   -0.232956
   7 C :   -0.324271
   8 O :   -0.049767
   9 H :    0.140360
  10 H :    0.141096
  11 H :    0.140065
  12 H :    0.143169
  13 H :    0.141093
  14 H :    0.146419
  15 H :    0.138896
  16 H :    0.127119
  17 H :    0.112606
  18 H :    0.165281

  Mayer bond orders larger than 0.100000
B(  0-C ,  1-C ) :   1.4252 B(  0-C ,  5-C ) :   1.4207 B(  0-C ,  9-H ) :   0.9717
B(  1-C ,  2-C ) :   1.4568 B(  1-C , 10-H ) :   0.9735 B(  2-C ,  3-C ) :   1.3781
B(  2-C , 11-H ) :   0.9698 B(  3-C ,  4-C ) :   1.3661 B(  3-C ,  6-C ) :   0.8577
B(  4-C ,  5-C ) :   1.4519 B(  4-C , 12-H ) :   0.9720 B(  5-C , 13-H ) :   0.9736
B(  6-C ,  7-C ) :   0.9944 B(  6-C , 14-H ) :   0.9764 B(  6-C , 15-H ) :   0.9998
B(  7-C ,  8-O ) :   1.0255 B(  7-C , 16-H ) :   0.9637 B(  7-C , 17-H ) :   0.9778
B(  8-O , 18-H ) :   0.9056

FINAL SINGLE POINT ENERGY      -386.107859249697

DIPOLE MOMENT
-------------

Method             : SCF
Type of density    : Electron Density
Multiplicity       :   1
Irrep              :   0
Energy             :  -386.1187573803967439 Eh
Relativity type    :
Basis              : AO
                                X                 Y                 Z
Electronic contribution:     -2.754037610      -1.156150432      -0.732203565
Nuclear contribution   :      2.980653945       1.234761440       1.356528339
                        -----------------------------------------
Total Dipole Moment    :      0.226616335       0.078611008       0.624324774
                        -----------------------------------------
Magnitude (a.u.)       :      0.668816924
Magnitude (Debye)      :      1.699997519

Rotational constants in cm-1:             0.111575             0.035695             0.031516
Rotational constants in MHz :          3344.920760          1070.102181           944.835683

                             ****ORCA TERMINATED NORMALLY****
TOTAL RUN TIME: 0 days 0 hours 2 minutes 52 seconds 727 msec
