                         Program Version 6.0.0  -   RELEASE  -
|  1> ! wb97x-v def2-tzvp def2/J RIJCOSX DEFGRID2 scfconv7 GCP(DFT/TZ) printgap
|  2> %output
|  3>     printlevel normal
|  4> end
|  5> %cpcm
|  6>     smd true
|  7>     smdsolvent "water"
|  8> end
|  9> * xyz 0 1
| 10> C -2.569171357472227 -0.3257280711321343 -0.34620764271061577
| 11> C -1.7215005652276085 -1.3545573005496474 0.05764468862465911
| 12> C -0.4191519914672505 -1.069638644377724 0.46270394822383115
| 13> C 0.05819529485604511 0.2444562155816209 0.47001966275848667
| 14> C -0.8025308800863029 1.269316868693558 0.061871967321308674
| 15> C -2.10520427136456 0.9888122494271777 -0.34155502682543826
| 16> C 1.4808866042604605 0.5477051941612466 0.8522126773935207
| 17> C 2.4081921646600253 0.6572950205348522 -0.3595001094023404
| 18> O 2.4652925754336064 -0.5543023214896258 -1.129732993728457
| 19> H -3.585166278735158 -0.5455377869456758 -0.658867125468312
| 20> H -2.07495594525959 -2.381283427913027 0.06031383531953162
| 21> H 0.2366430572305276 -1.8754240554865156 0.7816237951846862
| 22> H -0.44729316320398893 2.296788473764639 0.06466335302186464
| 23> H -2.761217405929072 1.7977903178427515 -0.648876473932177
| 24> H 1.5337713146930994 1.5015831996395155 1.3902439475600081
| 25> H 1.8668058774398189 -0.2313225853574491 1.5204835732542408
| 26> H 2.044933143511498 1.429812874748372 -1.0449878769621523
| 27> H 3.4147446294364605 0.9414942853059236 -0.022928462949805863
| 28> H 2.7778322351345963 -1.2542670245036494 -0.5412766669255993
| 29> *
| 30>
| 31>                          ****END OF INPUT****

CARTESIAN COORDINATES (ANGSTROEM)
---------------------------------
  C     -2.569171   -0.325728   -0.346208
  C     -1.721501   -1.354557    0.057645
  C     -0.419152   -1.069639    0.462704
  C      0.058195    0.244456    0.470020
  C     -0.802531    1.269317    0.061872
  C     -2.105204    0.988812   -0.341555
  C      1.480887    0.547705    0.852213
  C      2.408192    0.657295   -0.359500
  O      2.465293   -0.554302   -1.129733
  H     -3.585166   -0.545538   -0.658867
  H     -2.074956   -2.381283    0.060314
  H      0.236643   -1.875424    0.781624
  H     -0.447293    2.296788    0.064663
  H     -2.761217    1.797790   -0.648876
  H      1.533771    1.501583    1.390244
  H      1.866806   -0.231323    1.520484
  H      2.044933    1.429813   -1.044988
  H      3.414745    0.941494   -0.022928
  H      2.777832   -1.254267   -0.541277

 Total Charge           Charge          ....    0
 Multiplicity           Mult            ....    1
 Number of Electrons    NEL             ....   66
 Basis Dimension        Dim             ....  339

ORBITAL ENERGIES
----------------

  NO   OCC          E(Eh)            E(eV)
   0   2.0000     -21.673227      -589.7585
   1   2.0000     -12.087842      -328.9269
   2   2.0000     -12.056060      -328.0621
   3   2.0000     -12.048755      -327.8633
   4   2.0000     -12.048478      -327.8558
   5   2.0000     -12.045752      -327.7816
   6   2.0000     -12.045143      -327.7650
   7   2.0000     -12.044481      -327.7470
   8   2.0000     -12.041213      -327.6581
   9   2.0000      -1.672535       -45.5120
  10   2.0000      -1.382875       -37.6300
  11   2.0000      -1.302597       -35.4455
  12   2.0000      -1.269070       -34.5332
  13   2.0000      -1.240921       -33.7672
  14   2.0000      -1.149496       -31.2794
  15   2.0000      -1.102413       -29.9982
  16   2.0000      -1.082228       -29.4489
  17   2.0000      -1.016976       -27.6733
  18   2.0000      -0.962606       -26.1938
  19   2.0000      -0.953152       -25.9366
  20   2.0000      -0.945279       -25.7224
  21   2.0000      -0.933277       -25.3958
  22   2.0000      -0.907050       -24.6821
  23   2.0000      -0.873083       -23.7578
  24   2.0000      -0.868162       -23.6239
  25   2.0000      -0.830452       -22.5978
  26   2.0000      -0.821821       -22.3629
  27   2.0000      -0.808344       -21.9962
  28   2.0000      -0.793442       -21.5906
  29   2.0000      -0.776373       -21.1262
  30   2.0000      -0.762440       -20.7470
  31   2.0000      -0.636809       -17.3285
  32   2.0000      -0.634102       -17.2548
  33   0.0000      -0.240246        -6.5374
  34   0.0000      -0.234843        -6.3904
  35   0.0000      -0.132949        -3.6177
  36   0.0000      -0.072558        -1.9744
  37   0.0000      -0.036976        -1.0062

MULLIKEN ATOMIC CHARGES
-----------------------
   0 C :   -0.189829
   1 C :   -0.136498
   2 C :   -0.311506
   3 C :    0.232038
   4 C :   -0.263989
   5 C :   -0.144764
   6 C :   -0.254285
   7 C :   -0.040635
   8 O :   -0.561048
   9 H :    0.159760
  10 H :    0.159332
  11 H :    0.156599
  12 H :    0.158508
  13 H :    0.159397
  14 H :    0.130901
  15 H :    0.143433
  16 H :    0.122137
  17 H :    0.119993
  18 H :    0.360459
Sum of atomic charges:    0.0000000

LOEWDIN ATOMIC CHARGES
----------------------
   0 C :   -0.158058
   1 C :   -0.150730
   2 C :   -0.126691
   3 C :   -0.153717
   4 C :   -0.119355
   5 C :   -0.150563
   6 C :   -0.223962
   7 C :   -0.320889
   8 O :   -0.095563
   9 H :    0.149257
  10 H :    0.150305
  11 H :    0.152580
  12 H :    0.154254
  13 H :    0.150335
  14 H :    0.153839
  15 H :    0.148747
  16 H :    0.129366
  17 H :    0.121417
  18 H :    0.189427

  Mayer bond orders larger than 0.100000
B(  0-C ,  1-C ) :   1.4025 B(  0-C ,  5-C ) :   1.3948 B(  0-C ,  9-H ) :   0.9754
B(  1-C ,  2-C ) :   1.4222 B(  1-C , 10-H ) :   0.9773 B(  2-C ,  3-C ) :   1.3670
B(  2-C , 11-H ) :   0.9765 B(  3-C ,  4-C ) :   1.3510 B(  3-C ,  6-C ) :   0.8978
B(  4-C ,  5-C ) :   1.4259 B(  4-C , 12-H ) :   0.9791 B(  5-C , 13-H ) :   0.9775
B(  6-C ,  7-C ) :   0.9889 B(  6-C , 14-H ) :   0.9635 B(  6-C , 15-H ) :   0.9854
B(  7-C ,  8-O ) :   0.9832 B(  7-C , 16-H ) :   0.9681 B(  7-C , 17-H ) :   0.9805
B(  8-O , 18-H ) :   0.8669

FINAL SINGLE POINT ENERGY      -386.120646119095

DIPOLE MOMENT
-------------

Method             : SCF
Type of density    : Electron Density
Multiplicity       :   1
Irrep              :   0
Energy             :  -386.1315442497952404 Eh
Relativity type    :
Basis              : AO
                                X                 Y                 Z
Electronic contribution:     -2.573932338      -1.087068676      -0.416082420
Nuclear contribution   :      2.980653945       1.234761440       1.356528339
                        -----------------------------------------
Total Dipole Moment    :      0.406721607       0.147692764       0.940445919
                        -----------------------------------------
Magnitude (a.u.)       :      1.035216955
Magnitude (Debye)      :      2.631312387

Rotational constants in cm-1:             0.111575             0.035695             0.031516
Rotational constants in MHz :          3344.920760          1070.102181           944.835683

                             ****ORCA TERMINATED NORMALLY****
TOTAL RUN TIME: 0 days 0 hours 2 minutes 57 seconds 559 msec
