                         Program Version 6.0.0  -   RELEASE  -
|  1> ! r2scan-3c def2/J RI DEFGRID2 scfconv6 printgap
|  2> %output
|  3>     printlevel normal
|  4> end
|  5> * xyz 0 1
|  6> C -1.0769985646 -0.1200451251 0.7236842681
|  7> C 0.2467870298 0.5518527535 0.3314948378
|  8> C 1.1019234987 -0.4047128659 -0.5108316894
|  9> O 1.6634921492 -1.3590891157 0.3627601477
| 10> O -0.0846928766 1.7290015134 -0.3733649076
| 11> O -1.8778027146 -0.3997792084 -0.3976148831
| 12> H -1.6131793621 0.5333576821 1.4236361867
| 13> H -0.864205949 -1.0737122485 1.2087050498
| 14> H 0.7999433984 0.7843635737 1.2523127763
| 15> H 1.8939616881 0.162410354 -1.0199634678
| 16> H 0.4613651866 -0.8792598842 -1.2637659767
| 17> H 2.1137117159 -2.040395235 -0.1552076793
| 18> H 0.715544286 2.2339045451 -0.5694750679
| 19> H -1.9987025917 0.4305535563 -0.882930402
| 20> *
| 21>
| 22>                          ****END OF INPUT****

CARTESIAN COORDINATES (ANGSTROEM)
---------------------------------
  C     -1.076999   -0.120045    0.723684
  C      0.246787    0.551853    0.331495
  C      1.101923   -0.404713   -0.510832
  O      1.663492   -1.359089    0.362760
  O     -0.084693    1.729002   -0.373365
  O     -1.877803   -0.399779   -0.397615
  H     -1.613179    0.533358    1.423636
  H     -0.864206   -1.073712    1.208705
  H      0.799943    0.784364    1.252313
  H      1.893962    0.162410   -1.019963
  H      0.461365   -0.879260   -1.263766
  H      2.113712   -2.040395   -0.155208
  H      0.715544    2.233905   -0.569475
  H     -1.998703    0.430554   -0.882930

 Total Charge           Charge          ....    0
 Multiplicity           Mult            ....    1
 Number of Electrons    NEL             ....   50
 Basis Dimension        Dim             ....  169

ORBITAL ENERGIES
----------------

  NO   OCC          E(Eh)            E(eV)
   0   2.0000     -18.965115      -516.0670
   1   2.0000     -18.956860      -515.8424
   2   2.0000     -18.943897      -515.4896
   3   2.0000     -10.086209      -274.4597
   4   2.0000     -10.078188      -274.2414
   5   2.0000     -10.071194      -274.0511
   6   2.0000      -1.009338       -27.4655
   7   2.0000      -0.991254       -26.9734
   8   2.0000      -0.977555       -26.6006
   9   2.0000      -0.725173       -19.7330
  10   2.0000      -0.642584       -17.4856
  11   2.0000      -0.568421       -15.4675
  12   2.0000      -0.508600       -13.8397
  13   2.0000      -0.471891       -12.8408
  14   2.0000      -0.461702       -12.5636
  15   2.0000      -0.448996       -12.2178
  16   2.0000      -0.396669       -10.7939
  17   2.0000      -0.382132       -10.3983
  18   2.0000      -0.373067       -10.1517
  19   2.0000      -0.332708        -9.0534
  20   2.0000      -0.313477        -8.5301
  21   2.0000      -0.292980        -7.9724
  22   2.0000      -0.253137        -6.8882
  23   2.0000      -0.243937        -6.6379
  24   2.0000      -0.232432        -6.3248
  25   0.0000       0.037153         1.0110
  26   0.0000       0.055085         1.4989
  27   0.0000       0.098921         2.6918
  28   0.0000       0.121635         3.3099
  29   0.0000       0.130661         3.5555

MULLIKEN ATOMIC CHARGES
-----------------------
   0 C :   -0.198853
   1 C :    0.125167
   2 C :   -0.199728
   3 O :   -0.434581
   4 O :   -0.449646
   5 O :   -0.439785
   6 H :    0.138932
   7 H :    0.151508
   8 H :    0.130883
   9 H :    0.112019
  10 H :    0.158402
  11 H :    0.298840
  12 H :    0.292207
  13 H :    0.314634
Sum of atomic charges:    0.0000000

LOEWDIN ATOMIC CHARGES
----------------------
   0 C :    0.032202
   1 C :    0.083287
   2 C :    0.027784
   3 O :   -0.623274
   4 O :   -0.600805
   5 O :   -0.600284
   6 H :    0.164471
   7 H :    0.190223
   8 H :    0.177188
   9 H :    0.154632
  10 H :    0.175717
  11 H :    0.269849
  12 H :    0.273336
  13 H :    0.275674

  Mayer bond orders larger than 0.100000
B(  0-C ,  1-C ) :   0.9583 B(  0-C ,  5-O ) :   0.9976 B(  0-C ,  6-H ) :   0.9747
B(  0-C ,  7-H ) :   0.9601 B(  1-C ,  2-C ) :   0.9340 B(  1-C ,  4-O ) :   0.8793
B(  1-C ,  8-H ) :   0.9381 B(  2-C ,  3-O ) :   0.9409 B(  2-C ,  9-H ) :   0.9642
B(  2-C , 10-H ) :   0.9660 B(  3-O , 11-H ) :   0.8965 B(  4-O , 12-H ) :   0.8981
B(  5-O , 13-H ) :   0.8761

Dispersion correction           -0.003037013
FINAL SINGLE POINT ENERGY      -344.723602881511

DIPOLE MOMENT
-------------

Method             : SCF
Type of density    : Electron Density
Multiplicity       :   1
Irrep              :   0
Energy             :  -344.7310543095138087 Eh
Relativity type    :
Basis              : AO
                                X                 Y                 Z
Electronic contribution:     -0.553849315       0.205976495      -0.318579044
Nuclear contribution   :      1.410736120       0.141429214      -0.012337655
                        -----------------------------------------
Total Dipole Moment    :      0.856886806       0.347405710      -0.330916698
                        -----------------------------------------
Magnitude (a.u.)       :      0.982064960
Magnitude (Debye)      :      2.496210751

Rotational constants in cm-1:             0.155390             0.089909             0.068260
Rotational constants in MHz :          4658.462413          2695.406055          2046.377725

                             ****ORCA TERMINATED NORMALLY****
TOTAL RUN TIME: 0 days 0 hours 0 minutes 20 seconds 680 msec
