                         Program Version 6.0.0  -   RELEASE  -
|  1> ! r2scan-3c def2/J RI DEFGRID2 scfconv6 printgap
|  2> %output
|  3>     printlevel normal
|  4> end
|  5> %cpcm
|  6>     smd true
|  7>     smdsolvent "water"
|  8> end
|  9> * xyz 0 1
| 10> C -1.0769985646 -0.1200451251 0.7236842681
| 11> C 0.2467870298 0.5518527535 0.3314948378
| 12> C 1.1019234987 -0.4047128659 -0.5108316894
| 13> O 1.6634921492 -1.3590891157 0.3627601477
| 14> O -0.0846928766 1.7290015134 -0.3733649076
| 15> O -1.8778027146 -0.3997792084 -0.3976148831
| 16> H -1.6131793621 0.5333576821 1.4236361867
| 17> H -0.864205949 -1.0737122485 1.2087050498
| 18> H 0.7999433984 0.7843635737 1.2523127763
| 19> H 1.8939616881 0.162410354 -1.0199634678
| 20> H 0.4613651866 -0.8792598842 -1.2637659767
| 21> H 2.1137117159 -2.040395235 -0.1552076793
| 22> H 0.715544286 2.2339045451 -0.5694750679
| 23> H -1.9987025917 0.4305535563 -0.882930402
| 24> *
| 25>
| 26>                          ****END OF INPUT****

CARTESIAN COORDINATES (ANGSTROEM)
---------------------------------
  C     -1.076999   -0.120045    0.723684
  C      0.246787    0.551853    0.331495
  C      1.101923   -0.404713   -0.510832
  O      1.663492   -1.359089    0.362760
  O     -0.084693    1.729002   -0.373365
  O     -1.877803   -0.399779   -0.397615
  H     -1.613179    0.533358    1.423636
  H     -0.864206   -1.073712    1.208705
  H      0.799943    0.784364    1.252313
  H      1.893962    0.162410   -1.019963
  H      0.461365   -0.879260   -1.263766
  H      2.113712   -2.040395   -0.155208
  H      0.715544    2.233905   -0.569475
  H     -1.998703    0.430554   -0.882930

 Total Charge           Charge          ....    0
 Multiplicity           Mult            ....    1
 Number of Electrons    NEL             ....   50
 Basis Dimension        Dim             ....  169

ORBITAL ENERGIES
----------------

  NO   OCC          E(Eh)            E(eV)
   0   2.0000     -18.959085      -515.9029
   1   2.0000     -18.954534      -515.7791
   2   2.0000     -18.954077      -515.7667
   3   2.0000     -10.080638      -274.3081
   4   2.0000     -10.071239      -274.0524
   5   2.0000     -10.069946      -274.0172
   6   2.0000      -1.006848       -27.3977
   7   2.0000      -0.988718       -26.9044
   8   2.0000      -0.981927       -26.7196
   9   2.0000      -0.721128       -19.6229
  10   2.0000      -0.639240       -17.3946
  11   2.0000      -0.565201       -15.3799
  12   2.0000      -0.502226       -13.6663
  13   2.0000      -0.468959       -12.7610
  14   2.0000      -0.459349       -12.4995
  15   2.0000      -0.446034       -12.1372
  16   2.0000      -0.396395       -10.7865
  17   2.0000      -0.384555       -10.4643
  18   2.0000      -0.371239       -10.1019
  19   2.0000      -0.333795        -9.0830
  20   2.0000      -0.313912        -8.5420
  21   2.0000      -0.299229        -8.1424
  22   2.0000      -0.251588        -6.8461
  23   2.0000      -0.242970        -6.6115
  24   2.0000      -0.239381        -6.5139
  25   0.0000       0.053189         1.4474
  26   0.0000       0.070565         1.9202
  27   0.0000       0.112067         3.0495
  28   0.0000       0.129715         3.5297
  29   0.0000       0.139958         3.8085

MULLIKEN ATOMIC CHARGES
-----------------------
   0 C :   -0.198616
   1 C :    0.126325
   2 C :   -0.210640
   3 O :   -0.510953
   4 O :   -0.511709
   5 O :   -0.507117
   6 H :    0.154201
   7 H :    0.158445
   8 H :    0.147558
   9 H :    0.145290
  10 H :    0.155443
  11 H :    0.351276
  12 H :    0.346062
  13 H :    0.354434
Sum of atomic charges:    0.0000000

LOEWDIN ATOMIC CHARGES
----------------------
   0 C :    0.027652
   1 C :    0.084652
   2 C :    0.031485
   3 O :   -0.651872
   4 O :   -0.616982
   5 O :   -0.635371
   6 H :    0.171510
   7 H :    0.191606
   8 H :    0.184194
   9 H :    0.169051
  10 H :    0.174987
  11 H :    0.288425
  12 H :    0.292541
  13 H :    0.288124

  Mayer bond orders larger than 0.100000
B(  0-C ,  1-C ) :   0.9606 B(  0-C ,  5-O ) :   0.9725 B(  0-C ,  6-H ) :   0.9672
B(  0-C ,  7-H ) :   0.9588 B(  1-C ,  2-C ) :   0.9261 B(  1-C ,  4-O ) :   0.8780
B(  1-C ,  8-H ) :   0.9330 B(  2-C ,  3-O ) :   0.9316 B(  2-C ,  9-H ) :   0.9644
B(  2-C , 10-H ) :   0.9658 B(  3-O , 11-H ) :   0.8693 B(  4-O , 12-H ) :   0.8719
B(  5-O , 13-H ) :   0.8558

Dispersion correction           -0.003037013
FINAL SINGLE POINT ENERGY      -344.743339871795

DIPOLE MOMENT
-------------

Method             : SCF
Type of density    : Electron Density
Multiplicity       :   1
Irrep              :   0
Energy             :  -344.7507912997971857 Eh
Relativity type    :
Basis              : AO
                                X                 Y                 Z
Electronic contribution:     -0.224593311       0.386224798      -0.442869433
Nuclear contribution   :      1.410736120       0.141429214      -0.012337655
                        -----------------------------------------
Total Dipole Moment    :      1.186142809       0.527654012      -0.455207087
                        -----------------------------------------
Magnitude (a.u.)       :      1.375706005
Magnitude (Debye)      :      3.496766773

Rotational constants in cm-1:             0.155390             0.089909             0.068260
Rotational constants in MHz :          4658.462413          2695.406055          2046.377725

                             ****ORCA TERMINATED NORMALLY****
TOTAL RUN TIME: 0 days 0 hours 0 minutes 24 seconds 159 msec
