                         Program Version 6.0.0  -   RELEASE  -
|  1> ! r2scan-3c def2/J RI DEFGRID2 scfconv6 printgap
|  2> %output
|  3>     printlevel normal
|  4> end
|  5> * xyz 0 1
|  6> C -3.3629439575 -0.3162582388 -0.5981890481
|  7> C -2.1393073759 -0.5269436967 0.2862809056
|  8> C -0.9893017976 0.3938995787 -0.1176740605
|  9> C 0.2497163898 0.2398426292 0.7702408135
| 10> C 1.0157517183 -1.0594857684 0.5039591803
| 11> C 1.876066131 -0.7421036098 -0.7165042169
| 12> C 2.3081252213 0.7155616076 -0.5127918866
| 13> C 1.2998065477 1.3263378961 0.4787965054
| 14> H -3.7101282913 0.7123942527 -0.5300277491
| 15> H -3.1217238861 -0.5273212171 -1.6376544557
| 16> H -4.1736054701 -0.9735925139 -0.2931541418
| 17> H -2.4060845847 -0.3321257559 1.3278270173
| 18> H -1.8246277679 -1.5696582473 0.2166820949
| 19> H -0.7224494548 0.2057160451 -1.1585973801
| 20> H -1.3391313012 1.4273912013 -0.0498421391
| 21> H -0.0763873822 0.2920729074 1.8134377013
| 22> H 1.6562083495 -1.2829898104 1.3587028551
| 23> H 0.3596458219 -1.9114288085 0.337799851
| 24> H 2.728151986 -1.4146716543 -0.8039797905
| 25> H 1.2812399858 -0.8384068119 -1.6251659459
| 26> H 3.3155071298 0.7572901621 -0.0988885032
| 27> H 2.3181095445 1.2580204802 -1.4571952188
| 28> H 1.8069881243 1.6046387472 1.402812826
| 29> H 0.8347763654 2.2250312475 0.0756499509
| 30> *
| 31>
| 32>                          ****END OF INPUT****

CARTESIAN COORDINATES (ANGSTROEM)
---------------------------------
  C     -3.362944   -0.316258   -0.598189
  C     -2.139307   -0.526944    0.286281
  C     -0.989302    0.393900   -0.117674
  C      0.249716    0.239843    0.770241
  C      1.015752   -1.059486    0.503959
  C      1.876066   -0.742104   -0.716504
  C      2.308125    0.715562   -0.512792
  C      1.299807    1.326338    0.478797
  H     -3.710128    0.712394   -0.530028
  H     -3.121724   -0.527321   -1.637654
  H     -4.173605   -0.973593   -0.293154
  H     -2.406085   -0.332126    1.327827
  H     -1.824628   -1.569658    0.216682
  H     -0.722449    0.205716   -1.158597
  H     -1.339131    1.427391   -0.049842
  H     -0.076387    0.292073    1.813438
  H      1.656208   -1.282990    1.358703
  H      0.359646   -1.911429    0.337800
  H      2.728152   -1.414672   -0.803980
  H      1.281240   -0.838407   -1.625166
  H      3.315507    0.757290   -0.098889
  H      2.318110    1.258020   -1.457195
  H      1.806988    1.604639    1.402813
  H      0.834776    2.225031    0.075650

 Total Charge           Charge          ....    0
 Multiplicity           Mult            ....    1
 Number of Electrons    NEL             ....   64
 Basis Dimension        Dim             ....  232

ORBITAL ENERGIES
----------------

  NO   OCC          E(Eh)            E(eV)
   0   2.0000     -10.024216      -272.7728
   1   2.0000     -10.020789      -272.6795
   2   2.0000     -10.017832      -272.5991
   3   2.0000     -10.017626      -272.5935
   4   2.0000     -10.017262      -272.5836
   5   2.0000     -10.016752      -272.5697
   6   2.0000     -10.015823      -272.5444
   7   2.0000     -10.013446      -272.4797
   8   2.0000      -0.805188       -21.9103
   9   2.0000      -0.747969       -20.3533
  10   2.0000      -0.685865       -18.6633
  11   2.0000      -0.671031       -18.2597
  12   2.0000      -0.623156       -16.9569
  13   2.0000      -0.555659       -15.1202
  14   2.0000      -0.523748       -14.2519
  15   2.0000      -0.507625       -13.8132
  16   2.0000      -0.456247       -12.4151
  17   2.0000      -0.440815       -11.9952
  18   2.0000      -0.422508       -11.4970
  19   2.0000      -0.393166       -10.6986
  20   2.0000      -0.385488       -10.4897
  21   2.0000      -0.361718        -9.8428
  22   2.0000      -0.348309        -9.4780
  23   2.0000      -0.339887        -9.2488
  24   2.0000      -0.314462        -8.5570
  25   2.0000      -0.305746        -8.3198
  26   2.0000      -0.300742        -8.1836
  27   2.0000      -0.296752        -8.0750
  28   2.0000      -0.286288        -7.7903
  29   2.0000      -0.281338        -7.6556
  30   2.0000      -0.276671        -7.5286
  31   2.0000      -0.266553        -7.2533
  32   0.0000       0.078115         2.1256
  33   0.0000       0.095645         2.6026
  34   0.0000       0.104231         2.8363
  35   0.0000       0.121549         3.3075
  36   0.0000       0.122011         3.3201

MULLIKEN ATOMIC CHARGES
-----------------------
   0 C :   -0.474426
   1 C :   -0.233551
   2 C :   -0.373480
   3 C :    0.076913
   4 C :   -0.332074
   5 C :   -0.333987
   6 C :   -0.319152
   7 C :   -0.390845
   8 H :    0.141675
   9 H :    0.142087
  10 H :    0.145765
  11 H :    0.137945
  12 H :    0.135632
  13 H :    0.145125
  14 H :    0.143032
  15 H :    0.154008
  16 H :    0.155786
  17 H :    0.151206
  18 H :    0.152637
  19 H :    0.159012
  20 H :    0.150813
  21 H :    0.156884
  22 H :    0.160821
  23 H :    0.148172
Sum of atomic charges:    0.0000000

LOEWDIN ATOMIC CHARGES
----------------------
   0 C :   -0.424975
   1 C :   -0.313779
   2 C :   -0.298495
   3 C :   -0.227701
   4 C :   -0.296940
   5 C :   -0.307324
   6 C :   -0.306863
   7 C :   -0.299449
   8 H :    0.149270
   9 H :    0.149283
  10 H :    0.149376
  11 H :    0.151394
  12 H :    0.150010
  13 H :    0.157709
  14 H :    0.156828
  15 H :    0.159806
  16 H :    0.158409
  17 H :    0.158015
  18 H :    0.155723
  19 H :    0.152281
  20 H :    0.155494
  21 H :    0.156090
  22 H :    0.157474
  23 H :    0.158365

  Mayer bond orders larger than 0.100000
B(  0-C ,  1-C ) :   0.8984 B(  0-C ,  8-H ) :   0.9851 B(  0-C ,  9-H ) :   0.9848
B(  0-C , 10-H ) :   0.9750 B(  1-C ,  2-C ) :   0.9261 B(  1-C , 11-H ) :   0.9700
B(  1-C , 12-H ) :   0.9724 B(  2-C ,  3-C ) :   0.9297 B(  2-C , 13-H ) :   0.9867
B(  2-C , 14-H ) :   0.9726 B(  3-C ,  4-C ) :   0.8605 B(  3-C ,  7-C ) :   0.9031
B(  3-C , 15-H ) :   0.9399 B(  4-C ,  5-C ) :   0.8841 B(  4-C , 16-H ) :   0.9790
B(  4-C , 17-H ) :   0.9732 B(  5-C ,  6-C ) :   0.9151 B(  5-C , 18-H ) :   0.9522
B(  5-C , 19-H ) :   1.0032 B(  6-C ,  7-C ) :   0.9274 B(  6-C , 20-H ) :   0.9855
B(  6-C , 21-H ) :   0.9836 B(  7-C , 22-H ) :   0.9783 B(  7-C , 23-H ) :   0.9815

Dispersion correction           -0.006985327
FINAL SINGLE POINT ENERGY      -314.380956902756

DIPOLE MOMENT
-------------

Method             : SCF
Type of density    : Electron Density
Multiplicity       :   1
Irrep              :   0
Energy             :  -314.3842492771866546 Eh
Relativity type    :
Basis              : AO
                                X                 Y                 Z
Electronic contribution:      2.885430003       0.335848027       1.092691487
Nuclear contribution   :     -2.883454264      -0.344906049      -1.052237124
                        -----------------------------------------
Total Dipole Moment    :      0.001975740      -0.009058022       0.040454363
                        -----------------------------------------
Magnitude (a.u.)       :      0.041503094
Magnitude (Debye)      :      0.105492481

Rotational constants in cm-1:             0.139575             0.035275             0.033214
Rotational constants in MHz :          4184.347227          1057.528810           995.719520

                             ****ORCA TERMINATED NORMALLY****
TOTAL RUN TIME: 0 days 0 hours 0 minutes 25 seconds 280 msec
