                         Program Version 6.0.0  -   RELEASE  -
|  1> ! r2scan-3c def2/J RI DEFGRID2 scfconv6 printgap
|  2> %output
|  3>     printlevel normal
|  4> end
|  5> %cpcm
|  6>     smd true
|  7>     smdsolvent "water"
|  8> end
|  9> * xyz 0 1
| 10> C -3.3629439575 -0.3162582388 -0.5981890481
| 11> C -2.1393073759 -0.5269436967 0.2862809056
| 12> C -0.9893017976 0.3938995787 -0.1176740605
| 13> C 0.2497163898 0.2398426292 0.7702408135
| 14> C 1.0157517183 -1.0594857684 0.5039591803
| 15> C 1.876066131 -0.7421036098 -0.7165042169
| 16> C 2.3081252213 0.7155616076 -0.5127918866
| 17> C 1.2998065477 1.3263378961 0.4787965054
| 18> H -3.7101282913 0.7123942527 -0.5300277491
| 19> H -3.1217238861 -0.5273212171 -1.6376544557
| 20> H -4.1736054701 -0.9735925139 -0.2931541418
| 21> H -2.4060845847 -0.3321257559 1.3278270173
| 22> H -1.8246277679 -1.5696582473 0.2166820949
| 23> H -0.7224494548 0.2057160451 -1.1585973801
| 24> H -1.3391313012 1.4273912013 -0.0498421391
| 25> H -0.0763873822 0.2920729074 1.8134377013
| 26> H 1.6562083495 -1.2829898104 1.3587028551
| 27> H 0.3596458219 -1.9114288085 0.337799851
| 28> H 2.728151986 -1.4146716543 -0.8039797905
| 29> H 1.2812399858 -0.8384068119 -1.6251659459
| 30> H 3.3155071298 0.7572901621 -0.0988885032
| 31> H 2.3181095445 1.2580204802 -1.4571952188
| 32> H 1.8069881243 1.6046387472 1.402812826
| 33> H 0.8347763654 2.2250312475 0.0756499509
| 34> *
| 35>
| 36>                          ****END OF INPUT****

CARTESIAN COORDINATES (ANGSTROEM)
---------------------------------
  C     -3.362944   -0.316258   -0.598189
  C     -2.139307   -0.526944    0.286281
  C     -0.989302    0.393900   -0.117674
  C      0.249716    0.239843    0.770241
  C      1.015752   -1.059486    0.503959
  C      1.876066   -0.742104   -0.716504
  C      2.308125    0.715562   -0.512792
  C      1.299807    1.326338    0.478797
  H     -3.710128    0.712394   -0.530028
  H     -3.121724   -0.527321   -1.637654
  H     -4.173605   -0.973593   -0.293154
  H     -2.406085   -0.332126    1.327827
  H     -1.824628   -1.569658    0.216682
  H     -0.722449    0.205716   -1.158597
  H     -1.339131    1.427391   -0.049842
  H     -0.076387    0.292073    1.813438
  H      1.656208   -1.282990    1.358703
  H      0.359646   -1.911429    0.337800
  H      2.728152   -1.414672   -0.803980
  H      1.281240   -0.838407   -1.625166
  H      3.315507    0.757290   -0.098889
  H      2.318110    1.258020   -1.457195
  H      1.806988    1.604639    1.402813
  H      0.834776    2.225031    0.075650

 Total Charge           Charge          ....    0
 Multiplicity           Mult            ....    1
 Number of Electrons    NEL             ....   64
 Basis Dimension        Dim             ....  232

ORBITAL ENERGIES
----------------

  NO   OCC          E(Eh)            E(eV)
   0   2.0000     -10.017277      -272.5840
   1   2.0000     -10.013305      -272.4759
   2   2.0000     -10.010852      -272.4091
   3   2.0000     -10.010702      -272.4051
   4   2.0000     -10.009767      -272.3796
   5   2.0000     -10.009590      -272.3748
   6   2.0000     -10.009153      -272.3629
   7   2.0000     -10.006647      -272.2947
   8   2.0000      -0.798366       -21.7246
   9   2.0000      -0.740957       -20.1625
  10   2.0000      -0.679294       -18.4845
  11   2.0000      -0.664650       -18.0860
  12   2.0000      -0.616479       -16.7752
  13   2.0000      -0.548812       -14.9339
  14   2.0000      -0.517530       -14.0827
  15   2.0000      -0.500824       -13.6281
  16   2.0000      -0.449126       -12.2213
  17   2.0000      -0.434168       -11.8143
  18   2.0000      -0.415247       -11.2994
  19   2.0000      -0.386274       -10.5111
  20   2.0000      -0.378622       -10.3028
  21   2.0000      -0.354720        -9.6524
  22   2.0000      -0.341155        -9.2833
  23   2.0000      -0.333101        -9.0641
  24   2.0000      -0.307651        -8.3716
  25   2.0000      -0.298700        -8.1280
  26   2.0000      -0.294500        -8.0138
  27   2.0000      -0.290130        -7.8948
  28   2.0000      -0.279365        -7.6019
  29   2.0000      -0.273840        -7.4516
  30   2.0000      -0.269416        -7.3312
  31   2.0000      -0.259562        -7.0630
  32   0.0000       0.086380         2.3505
  33   0.0000       0.103417         2.8141
  34   0.0000       0.111339         3.0297
  35   0.0000       0.126220         3.4346
  36   0.0000       0.127770         3.4768

MULLIKEN ATOMIC CHARGES
-----------------------
   0 C :   -0.516891
   1 C :   -0.250002
   2 C :   -0.377379
   3 C :    0.066260
   4 C :   -0.353908
   5 C :   -0.349150
   6 C :   -0.337868
   7 C :   -0.410556
   8 H :    0.152812
   9 H :    0.153615
  10 H :    0.155175
  11 H :    0.146222
  12 H :    0.147661
  13 H :    0.155003
  14 H :    0.151916
  15 H :    0.161764
  16 H :    0.164132
  17 H :    0.162217
  18 H :    0.159848
  19 H :    0.168909
  20 H :    0.159320
  21 H :    0.164446
  22 H :    0.168859
  23 H :    0.157596
Sum of atomic charges:    0.0000000

LOEWDIN ATOMIC CHARGES
----------------------
   0 C :   -0.433960
   1 C :   -0.316838
   2 C :   -0.301207
   3 C :   -0.228147
   4 C :   -0.301480
   5 C :   -0.311478
   6 C :   -0.311440
   7 C :   -0.303855
   8 H :    0.151544
   9 H :    0.151710
  10 H :    0.151404
  11 H :    0.152934
  12 H :    0.152779
  13 H :    0.160473
  14 H :    0.158709
  15 H :    0.161355
  16 H :    0.160131
  17 H :    0.160709
  18 H :    0.157104
  19 H :    0.155194
  20 H :    0.157314
  21 H :    0.157575
  22 H :    0.159341
  23 H :    0.160128

  Mayer bond orders larger than 0.100000
B(  0-C ,  1-C ) :   0.8884 B(  0-C ,  8-H ) :   0.9830 B(  0-C ,  9-H ) :   0.9827
B(  0-C , 10-H ) :   0.9724 B(  1-C ,  2-C ) :   0.9187 B(  1-C , 11-H ) :   0.9702
B(  1-C , 12-H ) :   0.9722 B(  2-C ,  3-C ) :   0.9305 B(  2-C , 13-H ) :   0.9825
B(  2-C , 14-H ) :   0.9705 B(  3-C ,  4-C ) :   0.8580 B(  3-C ,  7-C ) :   0.9013
B(  3-C , 15-H ) :   0.9428 B(  4-C ,  5-C ) :   0.8827 B(  4-C , 16-H ) :   0.9777
B(  4-C , 17-H ) :   0.9712 B(  5-C ,  6-C ) :   0.9118 B(  5-C , 18-H ) :   0.9518
B(  5-C , 19-H ) :   0.9999 B(  6-C ,  7-C ) :   0.9219 B(  6-C , 20-H ) :   0.9847
B(  6-C , 21-H ) :   0.9821 B(  7-C , 22-H ) :   0.9768 B(  7-C , 23-H ) :   0.9820

Dispersion correction           -0.006985327
FINAL SINGLE POINT ENERGY      -314.378332000657

DIPOLE MOMENT
-------------

Method             : SCF
Type of density    : Electron Density
Multiplicity       :   1
Irrep              :   0
Energy             :  -314.3816243750877675 Eh
Relativity type    :
Basis              : AO
                                X                 Y                 Z
Electronic contribution:      2.881441100       0.329297283       1.094424966
Nuclear contribution   :     -2.883454264      -0.344906049      -1.052237124
                        -----------------------------------------
Total Dipole Moment    :     -0.002013164      -0.015608766       0.042187842
                        -----------------------------------------
Magnitude (a.u.)       :      0.045027774
Magnitude (Debye)      :      0.114451505

Rotational constants in cm-1:             0.139575             0.035275             0.033214
Rotational constants in MHz :          4184.347227          1057.528810           995.719520

                             ****ORCA TERMINATED NORMALLY****
TOTAL RUN TIME: 0 days 0 hours 0 minutes 30 seconds 134 msec
