                         Program Version 6.0.0  -   RELEASE  -
|  1> ! pbe def2-sv(p) def2/J RI DEFGRID1 loosescf d4 GCP(DFT/SV(P)) printgap
|  2> %output
|  3>     printlevel normal
|  4> end
|  5> * xyz 0 1
|  6> C -1.9693503876 1.4542896091 0.074158467
|  7> C -1.4929372083 0.0747035426 -0.367600225
|  8> C -0.152050277 -0.3434248442 0.2452916652
|  9> H -0.1601260713 -0.1229658223 1.3179934564
| 10> C 0.0794468375 -1.8424410219 0.0602942658
| 11> C 1.0142847694 0.4357379373 -0.3692826074
| 12> O 2.1947276095 0.1468612191 0.3562940995
| 13> H -2.9544349218 1.6583593979 -0.3381183458
| 14> H -2.0338027164 1.5031781947 1.1585892234
| 15> H -1.2933248214 2.2347447646 -0.2647957689
| 16> H -1.4117696158 0.0458168361 -1.4565841435
| 17> H -2.2428013823 -0.6619548794 -0.0728207538
| 18> H -0.6765819244 -2.4143439852 0.5918501785
| 19> H 1.0586174178 -2.1131580375 0.4468312338
| 20> H 0.0362204263 -2.1034312138 -0.9951255813
| 21> H 0.8080944528 1.5125579028 -0.3266711495
| 22> H 1.1321468381 0.1424866257 -1.4217884742
| 23> H 2.9363702609 0.6226673746 -0.0392031929
| 24> *
| 25>
| 26>                          ****END OF INPUT****

CARTESIAN COORDINATES (ANGSTROEM)
---------------------------------
  C     -1.969350    1.454290    0.074158
  C     -1.492937    0.074704   -0.367600
  C     -0.152050   -0.343425    0.245292
  H     -0.160126   -0.122966    1.317993
  C      0.079447   -1.842441    0.060294
  C      1.014285    0.435738   -0.369283
  O      2.194728    0.146861    0.356294
  H     -2.954435    1.658359   -0.338118
  H     -2.033803    1.503178    1.158589
  H     -1.293325    2.234745   -0.264796
  H     -1.411770    0.045817   -1.456584
  H     -2.242801   -0.661955   -0.072821
  H     -0.676582   -2.414344    0.591850
  H      1.058617   -2.113158    0.446831
  H      0.036220   -2.103431   -0.995126
  H      0.808094    1.512558   -0.326671
  H      1.132147    0.142487   -1.421788
  H      2.936370    0.622667   -0.039203

 Total Charge           Charge          ....    0
 Multiplicity           Mult            ....    1
 Number of Electrons    NEL             ....   50
 Basis Dimension        Dim             ....  108

ORBITAL ENERGIES
----------------

  NO   OCC          E(Eh)            E(eV)
   0   2.0000     -18.738052      -509.8883
   1   2.0000      -9.924846      -270.0688
   2   2.0000      -9.887891      -269.0632
   3   2.0000      -9.882216      -268.9088
   4   2.0000      -9.872064      -268.6325
   5   2.0000      -9.862854      -268.3819
   6   2.0000      -0.914098       -24.8739
   7   2.0000      -0.726191       -19.7607
   8   2.0000      -0.653383       -17.7795
   9   2.0000      -0.598397       -16.2832
  10   2.0000      -0.551862       -15.0169
  11   2.0000      -0.494677       -13.4608
  12   2.0000      -0.459469       -12.5028
  13   2.0000      -0.417271       -11.3545
  14   2.0000      -0.399235       -10.8637
  15   2.0000      -0.371530       -10.1098
  16   2.0000      -0.363181        -9.8827
  17   2.0000      -0.353799        -9.6274
  18   2.0000      -0.318392        -8.6639
  19   2.0000      -0.314955        -8.5704
  20   2.0000      -0.298238        -8.1155
  21   2.0000      -0.282387        -7.6841
  22   2.0000      -0.277283        -7.5453
  23   2.0000      -0.262006        -7.1296
  24   2.0000      -0.209513        -5.7011
  25   0.0000       0.030859         0.8397
  26   0.0000       0.041575         1.1313
  27   0.0000       0.066587         1.8119
  28   0.0000       0.072150         1.9633
  29   0.0000       0.091786         2.4976

MULLIKEN ATOMIC CHARGES
-----------------------
   0 C :   -0.267544
   1 C :   -0.167018
   2 C :   -0.179469
   3 H :    0.074874
   4 C :   -0.236243
   5 C :    0.023078
   6 O :   -0.433466
   7 H :    0.101075
   8 H :    0.099002
   9 H :    0.102414
  10 H :    0.078630
  11 H :    0.084672
  12 H :    0.095497
  13 H :    0.113666
  14 H :    0.083925
  15 H :    0.071182
  16 H :    0.058454
  17 H :    0.297272
Sum of atomic charges:   -0.0000000

LOEWDIN ATOMIC CHARGES
----------------------
   0 C :   -0.342226
   1 C :   -0.224273
   2 C :   -0.163246
   3 H :    0.118143
   4 C :   -0.331488
   5 C :   -0.114083
   6 O :   -0.347001
   7 H :    0.119635
   8 H :    0.118300
   9 H :    0.113928
  10 H :    0.113314
  11 H :    0.116899
  12 H :    0.115500
  13 H :    0.123238
  14 H :    0.113545
  15 H :    0.092845
  16 H :    0.092134
  17 H :    0.284836

  Mayer bond orders larger than 0.100000
B(  0-C ,  1-C ) :   1.1563 B(  0-C ,  7-H ) :   0.9498 B(  0-C ,  8-H ) :   0.9536
B(  0-C ,  9-H ) :   0.9478 B(  1-C ,  2-C ) :   1.0692 B(  1-C , 10-H ) :   0.9202
B(  1-C , 11-H ) :   0.9264 B(  2-C ,  3-H ) :   0.8977 B(  2-C ,  4-C ) :   1.1128
B(  2-C ,  5-C ) :   1.0725 B(  4-C , 12-H ) :   0.9501 B(  4-C , 13-H ) :   0.9431
B(  4-C , 14-H ) :   0.9490 B(  5-C ,  6-O ) :   1.0786 B(  5-C , 15-H ) :   0.9234
B(  5-C , 16-H ) :   0.9124 B(  6-O , 17-H ) :   0.8525

Dispersion correction           -0.012789102
FINAL SINGLE POINT ENERGY      -272.300147226880

DIPOLE MOMENT
-------------

Method             : SCF
Type of density    : Electron Density
Multiplicity       :   1
Irrep              :   0
Energy             :  -272.3698913015968515 Eh
Relativity type    :
Basis              : AO
                                X                 Y                 Z
Electronic contribution:      4.547393921       0.094019888       0.894882131
Nuclear contribution   :     -4.471920644       0.287341037      -1.307994520
                        -----------------------------------------
Total Dipole Moment    :      0.075473277       0.381360924      -0.413112390
                        -----------------------------------------
Magnitude (a.u.)       :      0.567269087
Magnitude (Debye)      :      1.441883430

Rotational constants in cm-1:             0.164136             0.075739             0.056906
Rotational constants in MHz :          4920.663495          2270.584969          1705.989986

                             ****ORCA TERMINATED NORMALLY****
TOTAL RUN TIME: 0 days 0 hours 0 minutes 8 seconds 61 msec
