                         Program Version 6.0.0  -   RELEASE  -
|  1> ! r2scan-3c def2/J RI DEFGRID2 scfconv6 printgap
|  2> %output
|  3>     printlevel normal
|  4> end
|  5> * xyz 0 1
|  6> C -1.8369745847 0.9646972903 0.7885693249
|  7> C -1.139024894 0.3221090793 -0.4038699517
|  8> C 0.0196219363 -0.6074833171 -0.0087337039
|  9> C 1.4025407969 0.0226463436 -0.2198093099
| 10> C 1.6504789886 1.2445922836 0.6549743752
| 11> O -0.113996547 -1.7830152541 -0.7989718957
| 12> H -2.6484566988 1.6005512817 0.4437504111
| 13> H -2.2536697409 0.200950726 1.441038521
| 14> H -1.1457198258 1.5711699309 1.3669745766
| 15> H -1.857186322 -0.2882852539 -0.9552920382
| 16> H -0.7736433675 1.0923887378 -1.0843120428
| 17> H -0.0890245643 -0.8819504549 1.0535812371
| 18> H 2.1623601781 -0.7315625317 0.0033984848
| 19> H 1.5008810389 0.2905257063 -1.2742767122
| 20> H 0.976889551 2.0551041027 0.3924752438
| 21> H 1.5054182536 0.9961335868 1.703903008
| 22> H 2.6712984396 1.5937306607 0.5218499397
| 23> H 0.6087619509 -2.392077337 -0.5963432383
| 24> *
| 25>
| 26>                          ****END OF INPUT****

CARTESIAN COORDINATES (ANGSTROEM)
---------------------------------
  C     -1.836975    0.964697    0.788569
  C     -1.139025    0.322109   -0.403870
  C      0.019622   -0.607483   -0.008734
  C      1.402541    0.022646   -0.219809
  C      1.650479    1.244592    0.654974
  O     -0.113997   -1.783015   -0.798972
  H     -2.648457    1.600551    0.443750
  H     -2.253670    0.200951    1.441039
  H     -1.145720    1.571170    1.366975
  H     -1.857186   -0.288285   -0.955292
  H     -0.773643    1.092389   -1.084312
  H     -0.089025   -0.881950    1.053581
  H      2.162360   -0.731563    0.003398
  H      1.500881    0.290526   -1.274277
  H      0.976890    2.055104    0.392475
  H      1.505418    0.996134    1.703903
  H      2.671298    1.593731    0.521850
  H      0.608762   -2.392077   -0.596343

 Total Charge           Charge          ....    0
 Multiplicity           Mult            ....    1
 Number of Electrons    NEL             ....   50
 Basis Dimension        Dim             ....  179

ORBITAL ENERGIES
----------------

  NO   OCC          E(Eh)            E(eV)
   0   2.0000     -18.942054      -515.4395
   1   2.0000     -10.077041      -274.2102
   2   2.0000     -10.027348      -272.8580
   3   2.0000     -10.022097      -272.7151
   4   2.0000     -10.021442      -272.6973
   5   2.0000     -10.017077      -272.5785
   6   2.0000      -0.979429       -26.6516
   7   2.0000      -0.762006       -20.7352
   8   2.0000      -0.719017       -19.5655
   9   2.0000      -0.639914       -17.4130
  10   2.0000      -0.583376       -15.8745
  11   2.0000      -0.536817       -14.6075
  12   2.0000      -0.476542       -12.9674
  13   2.0000      -0.440969       -11.9994
  14   2.0000      -0.411188       -11.1890
  15   2.0000      -0.384542       -10.4639
  16   2.0000      -0.382127       -10.3982
  17   2.0000      -0.365733        -9.9521
  18   2.0000      -0.346527        -9.4295
  19   2.0000      -0.324488        -8.8298
  20   2.0000      -0.317674        -8.6444
  21   2.0000      -0.311413        -8.4740
  22   2.0000      -0.299862        -8.1597
  23   2.0000      -0.276754        -7.5308
  24   2.0000      -0.230268        -6.2659
  25   0.0000       0.064045         1.7427
  26   0.0000       0.087152         2.3715
  27   0.0000       0.110739         3.0133
  28   0.0000       0.118831         3.2336
  29   0.0000       0.128677         3.5015

MULLIKEN ATOMIC CHARGES
-----------------------
   0 C :   -0.496749
   1 C :   -0.270333
   2 C :    0.062220
   3 C :   -0.265947
   4 C :   -0.507248
   5 O :   -0.429406
   6 H :    0.145798
   7 H :    0.150333
   8 H :    0.149678
   9 H :    0.168137
  10 H :    0.142926
  11 H :    0.131244
  12 H :    0.122362
  13 H :    0.160598
  14 H :    0.154883
  15 H :    0.152578
  16 H :    0.148535
  17 H :    0.280391
Sum of atomic charges:    0.0000000

LOEWDIN ATOMIC CHARGES
----------------------
   0 C :   -0.421237
   1 C :   -0.278412
   2 C :    0.056494
   3 C :   -0.292840
   4 C :   -0.422163
   5 O :   -0.624216
   6 H :    0.151134
   7 H :    0.151245
   8 H :    0.149682
   9 H :    0.178485
  10 H :    0.156087
  11 H :    0.160157
  12 H :    0.151188
  13 H :    0.161622
  14 H :    0.152486
  15 H :    0.151570
  16 H :    0.152470
  17 H :    0.266250

  Mayer bond orders larger than 0.100000
B(  0-C ,  1-C ) :   0.8865 B(  0-C ,  6-H ) :   0.9725 B(  0-C ,  7-H ) :   0.9857
B(  0-C ,  8-H ) :   0.9731 B(  1-C ,  2-C ) :   0.8661 B(  1-C ,  9-H ) :   0.9660
B(  1-C , 10-H ) :   0.9693 B(  2-C ,  3-C ) :   0.9009 B(  2-C ,  5-O ) :   0.8865
B(  2-C , 11-H ) :   0.9760 B(  3-C ,  4-C ) :   0.8702 B(  3-C , 12-H ) :   0.9695
B(  3-C , 13-H ) :   0.9897 B(  4-C , 14-H ) :   0.9755 B(  4-C , 15-H ) :   0.9812
B(  4-C , 16-H ) :   0.9646 B(  5-O , 17-H ) :   0.9025

Dispersion correction           -0.004364405
FINAL SINGLE POINT ENERGY      -272.899103534047

DIPOLE MOMENT
-------------

Method             : SCF
Type of density    : Electron Density
Multiplicity       :   1
Irrep              :   0
Energy             :  -272.9044111488536259 Eh
Relativity type    :
Basis              : AO
                                X                 Y                 Z
Electronic contribution:     -0.179855510      -4.626642395      -2.463636655
Nuclear contribution   :      0.615534433       4.764439893       2.818345573
                        -----------------------------------------
Total Dipole Moment    :      0.435678923       0.137797498       0.354708918
                        -----------------------------------------
Magnitude (a.u.)       :      0.578465808
Magnitude (Debye)      :      1.470343234

Rotational constants in cm-1:             0.115631             0.103170             0.060497
Rotational constants in MHz :          3466.518652          3092.970200          1813.650407

                             ****ORCA TERMINATED NORMALLY****
TOTAL RUN TIME: 0 days 0 hours 0 minutes 23 seconds 729 msec
