                         Program Version 6.0.0  -   RELEASE  -
|  1> ! r2scan-3c def2/J RI DEFGRID2 scfconv6 printgap
|  2> %output
|  3>     printlevel normal
|  4> end
|  5> %cpcm
|  6>     smd true
|  7>     smdsolvent "water"
|  8> end
|  9> * xyz 0 1
| 10> C -1.8369745847 0.9646972903 0.7885693249
| 11> C -1.139024894 0.3221090793 -0.4038699517
| 12> C 0.0196219363 -0.6074833171 -0.0087337039
| 13> C 1.4025407969 0.0226463436 -0.2198093099
| 14> C 1.6504789886 1.2445922836 0.6549743752
| 15> O -0.113996547 -1.7830152541 -0.7989718957
| 16> H -2.6484566988 1.6005512817 0.4437504111
| 17> H -2.2536697409 0.200950726 1.441038521
| 18> H -1.1457198258 1.5711699309 1.3669745766
| 19> H -1.857186322 -0.2882852539 -0.9552920382
| 20> H -0.7736433675 1.0923887378 -1.0843120428
| 21> H -0.0890245643 -0.8819504549 1.0535812371
| 22> H 2.1623601781 -0.7315625317 0.0033984848
| 23> H 1.5008810389 0.2905257063 -1.2742767122
| 24> H 0.976889551 2.0551041027 0.3924752438
| 25> H 1.5054182536 0.9961335868 1.703903008
| 26> H 2.6712984396 1.5937306607 0.5218499397
| 27> H 0.6087619509 -2.392077337 -0.5963432383
| 28> *
| 29>
| 30>                          ****END OF INPUT****

CARTESIAN COORDINATES (ANGSTROEM)
---------------------------------
  C     -1.836975    0.964697    0.788569
  C     -1.139025    0.322109   -0.403870
  C      0.019622   -0.607483   -0.008734
  C      1.402541    0.022646   -0.219809
  C      1.650479    1.244592    0.654974
  O     -0.113997   -1.783015   -0.798972
  H     -2.648457    1.600551    0.443750
  H     -2.253670    0.200951    1.441039
  H     -1.145720    1.571170    1.366975
  H     -1.857186   -0.288285   -0.955292
  H     -0.773643    1.092389   -1.084312
  H     -0.089025   -0.881950    1.053581
  H      2.162360   -0.731563    0.003398
  H      1.500881    0.290526   -1.274277
  H      0.976890    2.055104    0.392475
  H      1.505418    0.996134    1.703903
  H      2.671298    1.593731    0.521850
  H      0.608762   -2.392077   -0.596343

 Total Charge           Charge          ....    0
 Multiplicity           Mult            ....    1
 Number of Electrons    NEL             ....   50
 Basis Dimension        Dim             ....  179

ORBITAL ENERGIES
----------------

  NO   OCC          E(Eh)            E(eV)
   0   2.0000     -18.946840      -515.5697
   1   2.0000     -10.072346      -274.0825
   2   2.0000     -10.017456      -272.5888
   3   2.0000     -10.017132      -272.5800
   4   2.0000     -10.010416      -272.3973
   5   2.0000     -10.009855      -272.3820
   6   2.0000      -0.982986       -26.7484
   7   2.0000      -0.755341       -20.5539
   8   2.0000      -0.711077       -19.3494
   9   2.0000      -0.633659       -17.2427
  10   2.0000      -0.575840       -15.6694
  11   2.0000      -0.531735       -14.4692
  12   2.0000      -0.473845       -12.8940
  13   2.0000      -0.433187       -11.7876
  14   2.0000      -0.405288       -11.0284
  15   2.0000      -0.379242       -10.3197
  16   2.0000      -0.374852       -10.2003
  17   2.0000      -0.360285        -9.8039
  18   2.0000      -0.337862        -9.1937
  19   2.0000      -0.319953        -8.7064
  20   2.0000      -0.312111        -8.4930
  21   2.0000      -0.304897        -8.2967
  22   2.0000      -0.296081        -8.0568
  23   2.0000      -0.272544        -7.4163
  24   2.0000      -0.234656        -6.3853
  25   0.0000       0.078090         2.1249
  26   0.0000       0.097072         2.6415
  27   0.0000       0.118787         3.2324
  28   0.0000       0.128911         3.5079
  29   0.0000       0.137194         3.7332

MULLIKEN ATOMIC CHARGES
-----------------------
   0 C :   -0.529079
   1 C :   -0.276239
   2 C :    0.068720
   3 C :   -0.276447
   4 C :   -0.541340
   5 O :   -0.521016
   6 H :    0.156496
   7 H :    0.159236
   8 H :    0.162639
   9 H :    0.159891
  10 H :    0.159184
  11 H :    0.144749
  12 H :    0.148013
  13 H :    0.159343
  14 H :    0.165337
  15 H :    0.163927
  16 H :    0.159236
  17 H :    0.337352
Sum of atomic charges:    0.0000000

LOEWDIN ATOMIC CHARGES
----------------------
   0 C :   -0.426401
   1 C :   -0.283700
   2 C :    0.057044
   3 C :   -0.292329
   4 C :   -0.427178
   5 O :   -0.661880
   6 H :    0.153853
   7 H :    0.153400
   8 H :    0.154256
   9 H :    0.173563
  10 H :    0.161262
  11 H :    0.167324
  12 H :    0.159531
  13 H :    0.160972
  14 H :    0.155394
  15 H :    0.155114
  16 H :    0.155187
  17 H :    0.284587

  Mayer bond orders larger than 0.100000
B(  0-C ,  1-C ) :   0.8871 B(  0-C ,  6-H ) :   0.9700 B(  0-C ,  7-H ) :   0.9823
B(  0-C ,  8-H ) :   0.9709 B(  1-C ,  2-C ) :   0.8597 B(  1-C ,  9-H ) :   0.9675
B(  1-C , 10-H ) :   0.9642 B(  2-C ,  3-C ) :   0.9118 B(  2-C ,  5-O ) :   0.8677
B(  2-C , 11-H ) :   0.9722 B(  3-C ,  4-C ) :   0.8672 B(  3-C , 12-H ) :   0.9687
B(  3-C , 13-H ) :   0.9846 B(  4-C , 14-H ) :   0.9721 B(  4-C , 15-H ) :   0.9785
B(  4-C , 16-H ) :   0.9624 B(  5-O , 17-H ) :   0.8768

Dispersion correction           -0.004364405
FINAL SINGLE POINT ENERGY      -272.905227359019

DIPOLE MOMENT
-------------

Method             : SCF
Type of density    : Electron Density
Multiplicity       :   1
Irrep              :   0
Energy             :  -272.9105349738256905 Eh
Relativity type    :
Basis              : AO
                                X                 Y                 Z
Electronic contribution:      0.022675441      -4.565999595      -2.267331185
Nuclear contribution   :      0.615534433       4.764439893       2.818345573
                        -----------------------------------------
Total Dipole Moment    :      0.638209875       0.198440298       0.551014388
                        -----------------------------------------
Magnitude (a.u.)       :      0.866202778
Magnitude (Debye)      :      2.201712488

Rotational constants in cm-1:             0.115631             0.103170             0.060497
Rotational constants in MHz :          3466.518652          3092.970200          1813.650407

                             ****ORCA TERMINATED NORMALLY****
TOTAL RUN TIME: 0 days 0 hours 0 minutes 27 seconds 865 msec
