                         Program Version 6.0.0  -   RELEASE  -
|  1> ! pbe def2-sv(p) def2/J RI DEFGRID1 loosescf d4 GCP(DFT/SV(P)) printgap
|  2> %output
|  3>     printlevel normal
|  4> end
|  5> * xyz 0 1
|  6> C -2.5851565456 -0.0177906768 0.8622133287
|  7> C -1.7475350932 0.6378422043 -0.2354237571
|  8> C -0.4254361578 -0.0709730631 -0.3878504038
|  9> O -0.2975723521 -1.2602355316 -0.5917192509
| 10> O 0.5948957436 0.7708446664 -0.2795773505
| 11> C 1.9307526721 0.2497272367 -0.387698605
| 12> C 2.4367769213 -0.2421885687 0.9596922541
| 13> H -3.5696903745 0.4377353626 0.9003398645
| 14> H -2.693023146 -1.0805185644 0.6592015044
| 15> H -2.1056443067 0.1019757162 1.8303399668
| 16> H -1.5577409552 1.6873974317 -0.0162453583
| 17> H -2.273359161 0.5567597175 -1.1884354847
| 18> H 1.9290674478 -0.5640301744 -1.1192718361
| 19> H 2.5240577535 1.0882206525 -0.7534564964
| 20> H 2.3813137214 0.5562639817 1.6945213913
| 21> H 1.8331025508 -1.0805814755 1.3001843474
| 22> H 3.4669091754 -0.5677609651 0.8600100972
| 23> *
| 24>
| 25>                          ****END OF INPUT****

CARTESIAN COORDINATES (ANGSTROEM)
---------------------------------
  C     -2.585157   -0.017791    0.862213
  C     -1.747535    0.637842   -0.235424
  C     -0.425436   -0.070973   -0.387850
  O     -0.297572   -1.260236   -0.591719
  O      0.594896    0.770845   -0.279577
  C      1.930753    0.249727   -0.387699
  C      2.436777   -0.242189    0.959692
  H     -3.569690    0.437735    0.900340
  H     -2.693023   -1.080519    0.659202
  H     -2.105644    0.101976    1.830340
  H     -1.557741    1.687397   -0.016245
  H     -2.273359    0.556760   -1.188435
  H      1.929067   -0.564030   -1.119272
  H      2.524058    1.088221   -0.753456
  H      2.381314    0.556264    1.694521
  H      1.833103   -1.080581    1.300184
  H      3.466909   -0.567761    0.860010

 Total Charge           Charge          ....    0
 Multiplicity           Mult            ....    1
 Number of Electrons    NEL             ....   56
 Basis Dimension        Dim             ....  118

ORBITAL ENERGIES
----------------

  NO   OCC          E(Eh)            E(eV)
   0   2.0000     -18.797577      -511.5081
   1   2.0000     -18.730839      -509.6921
   2   2.0000     -10.004419      -272.2341
   3   2.0000      -9.946084      -270.6467
   4   2.0000      -9.898273      -269.3457
   5   2.0000      -9.886901      -269.0363
   6   2.0000      -9.883501      -268.9437
   7   2.0000      -1.003750       -27.3134
   8   2.0000      -0.908249       -24.7147
   9   2.0000      -0.718827       -19.5603
  10   2.0000      -0.686987       -18.6939
  11   2.0000      -0.607946       -16.5431
  12   2.0000      -0.560752       -15.2588
  13   2.0000      -0.493610       -13.4318
  14   2.0000      -0.451124       -12.2757
  15   2.0000      -0.429659       -11.6916
  16   2.0000      -0.423292       -11.5184
  17   2.0000      -0.392409       -10.6780
  18   2.0000      -0.384834       -10.4719
  19   2.0000      -0.364498        -9.9185
  20   2.0000      -0.352810        -9.6004
  21   2.0000      -0.340538        -9.2665
  22   2.0000      -0.322443        -8.7741
  23   2.0000      -0.315179        -8.5765
  24   2.0000      -0.307732        -8.3738
  25   2.0000      -0.288945        -7.8626
  26   2.0000      -0.255343        -6.9482
  27   2.0000      -0.217563        -5.9202
  28   0.0000      -0.019924        -0.5422
  29   0.0000       0.042640         1.1603
  30   0.0000       0.061538         1.6745
  31   0.0000       0.078988         2.1494
  32   0.0000       0.088182         2.3996

MULLIKEN ATOMIC CHARGES
-----------------------
   0 C :   -0.296712
   1 C :   -0.152096
   2 C :    0.101937
   3 O :   -0.214045
   4 O :   -0.234262
   5 C :   -0.014268
   6 C :   -0.304144
   7 H :    0.109917
   8 H :    0.123920
   9 H :    0.107479
  10 H :    0.097807
  11 H :    0.114871
  12 H :    0.107431
  13 H :    0.101352
  14 H :    0.112335
  15 H :    0.126466
  16 H :    0.112012
Sum of atomic charges:   -0.0000000

LOEWDIN ATOMIC CHARGES
----------------------
   0 C :   -0.333104
   1 C :   -0.253737
   2 C :    0.037688
   3 O :   -0.174927
   4 O :   -0.066753
   5 C :   -0.113551
   6 C :   -0.356141
   7 H :    0.122087
   8 H :    0.127682
   9 H :    0.121208
  10 H :    0.127500
  11 H :    0.141793
  12 H :    0.119219
  13 H :    0.116774
  14 H :    0.123881
  15 H :    0.130267
  16 H :    0.130113

  Mayer bond orders larger than 0.100000
B(  0-C ,  1-C ) :   1.1423 B(  0-C ,  7-H ) :   0.9533 B(  0-C ,  8-H ) :   0.9482
B(  0-C ,  9-H ) :   0.9579 B(  1-C ,  2-C ) :   1.0228 B(  1-C , 10-H ) :   0.9150
B(  1-C , 11-H ) :   0.8991 B(  2-C ,  3-O ) :   2.0346 B(  2-C ,  4-O ) :   1.2235
B(  4-O ,  5-C ) :   0.9213 B(  5-C ,  6-C ) :   1.1728 B(  5-C , 12-H ) :   0.9132
B(  5-C , 13-H ) :   0.9373 B(  6-C , 14-H ) :   0.9493 B(  6-C , 15-H ) :   0.9465
B(  6-C , 16-H ) :   0.9446

Dispersion correction           -0.011965147
FINAL SINGLE POINT ENERGY      -346.245128081810

DIPOLE MOMENT
-------------

Method             : SCF
Type of density    : Electron Density
Multiplicity       :   1
Irrep              :   0
Energy             :  -346.3097780565884705 Eh
Relativity type    :
Basis              : AO
                                X                 Y                 Z
Electronic contribution:      0.311303948      -0.452833276      -3.719239227
Nuclear contribution   :     -0.056579548       1.057997124       3.896601120
                        -----------------------------------------
Total Dipole Moment    :      0.254724400       0.605163847       0.177361894
                        -----------------------------------------
Magnitude (a.u.)       :      0.680121345
Magnitude (Debye)      :      1.728731074

Rotational constants in cm-1:             0.180310             0.048132             0.047441
Rotational constants in MHz :          5405.561464          1442.953096          1422.234517

                             ****ORCA TERMINATED NORMALLY****
TOTAL RUN TIME: 0 days 0 hours 0 minutes 8 seconds 508 msec
