                         Program Version 6.0.0  -   RELEASE  -
|  1> ! pbe def2-sv(p) def2/J RI DEFGRID1 loosescf d4 GCP(DFT/SV(P)) printgap
|  2> %output
|  3>     printlevel normal
|  4> end
|  5> * xyz 0 1
|  6> C 1.8324799472 -1.2676508081 -0.0471525166
|  7> O 1.0401838706 -0.3801435988 -0.8521957493
|  8> S -0.0544242967 0.4820926294 -0.1376624772
|  9> O -0.3880056659 1.5261846669 -1.0502263496
| 10> O 0.3826546871 0.836201868 1.1826131351
| 11> O -1.3163095372 -0.4417238787 -0.0556459103
| 12> C -1.4478003469 -1.3176593872 1.0754283104
| 13> H 2.8250320544 -1.2820539638 -0.4927715961
| 14> H 1.3905461054 -2.2628642939 -0.0673189146
| 15> H 1.8724953587 -0.8747881483 0.9674527098
| 16> H -1.0807093945 -2.3075762975 0.8081373871
| 17> H -2.5089291682 -1.3559318776 1.3128872801
| 18> H -0.8829855925 -0.8995633121 1.9069786081
| 19> *
| 20>
| 21>                          ****END OF INPUT****

CARTESIAN COORDINATES (ANGSTROEM)
---------------------------------
  C      1.832480   -1.267651   -0.047153
  O      1.040184   -0.380144   -0.852196
  S     -0.054424    0.482093   -0.137662
  O     -0.388006    1.526185   -1.050226
  O      0.382655    0.836202    1.182613
  O     -1.316310   -0.441724   -0.055646
  C     -1.447800   -1.317659    1.075428
  H      2.825032   -1.282054   -0.492772
  H      1.390546   -2.262864   -0.067319
  H      1.872495   -0.874788    0.967453
  H     -1.080709   -2.307576    0.808137
  H     -2.508929   -1.355932    1.312887
  H     -0.882986   -0.899563    1.906979

 Total Charge           Charge          ....    0
 Multiplicity           Mult            ....    1
 Number of Electrons    NEL             ....   66
 Basis Dimension        Dim             ....  114

ORBITAL ENERGIES
----------------

  NO   OCC          E(Eh)            E(eV)
   0   2.0000     -88.285127     -2402.3604
   1   2.0000     -18.823558      -512.2151
   2   2.0000     -18.823450      -512.2121
   3   2.0000     -18.758094      -510.4337
   4   2.0000     -18.746876      -510.1284
   5   2.0000      -9.963713      -271.1264
   6   2.0000      -9.963605      -271.1235
   7   2.0000      -7.895850      -214.8570
   8   2.0000      -5.923716      -161.1925
   9   2.0000      -5.922685      -161.1644
  10   2.0000      -5.919973      -161.0907
  11   2.0000      -1.101510       -29.9736
  12   2.0000      -0.987805       -26.8795
  13   2.0000      -0.955678       -26.0053
  14   2.0000      -0.927256       -25.2319
  15   2.0000      -0.702547       -19.1173
  16   2.0000      -0.669622       -18.2214
  17   2.0000      -0.559755       -15.2317
  18   2.0000      -0.525075       -14.2880
  19   2.0000      -0.466141       -12.6843
  20   2.0000      -0.463909       -12.6236
  21   2.0000      -0.441277       -12.0078
  22   2.0000      -0.439390       -11.9564
  23   2.0000      -0.428919       -11.6715
  24   2.0000      -0.388243       -10.5646
  25   2.0000      -0.351567        -9.5666
  26   2.0000      -0.349939        -9.5223
  27   2.0000      -0.316506        -8.6126
  28   2.0000      -0.313420        -8.5286
  29   2.0000      -0.311050        -8.4641
  30   2.0000      -0.275297        -7.4912
  31   2.0000      -0.262586        -7.1453
  32   2.0000      -0.258003        -7.0206
  33   0.0000       0.010390         0.2827
  34   0.0000       0.023951         0.6517
  35   0.0000       0.056651         1.5416
  36   0.0000       0.057327         1.5599
  37   0.0000       0.070515         1.9188

MULLIKEN ATOMIC CHARGES
-----------------------
   0 C :   -0.141448
   1 O :   -0.367530
   2 S :    0.945373
   3 O :   -0.362741
   4 O :   -0.392712
   5 O :   -0.369193
   6 C :   -0.141784
   7 H :    0.144902
   8 H :    0.126099
   9 H :    0.143694
  10 H :    0.125826
  11 H :    0.144496
  12 H :    0.145018
Sum of atomic charges:   -0.0000000

LOEWDIN ATOMIC CHARGES
----------------------
   0 C :   -0.225059
   1 O :   -0.263810
   2 S :    1.117319
   3 O :   -0.428768
   4 O :   -0.448048
   5 O :   -0.264694
   6 C :   -0.224700
   7 H :    0.132416
   8 H :    0.114877
   9 H :    0.121590
  10 H :    0.114760
  11 H :    0.132064
  12 H :    0.122052

  Mayer bond orders larger than 0.100000
B(  0-C ,  1-O ) :   0.9073 B(  0-C ,  7-H ) :   0.9556 B(  0-C ,  8-H ) :   0.9505
B(  0-C ,  9-H ) :   0.9300 B(  1-O ,  2-S ) :   1.0401 B(  2-S ,  3-O ) :   1.8640
B(  2-S ,  4-O ) :   1.7513 B(  2-S ,  5-O ) :   1.0389 B(  5-O ,  6-C ) :   0.9070
B(  6-C , 10-H ) :   0.9506 B(  6-C , 11-H ) :   0.9556 B(  6-C , 12-H ) :   0.9297

Dispersion correction           -0.011900553
FINAL SINGLE POINT ENERGY      -777.740621557768

DIPOLE MOMENT
-------------

Method             : SCF
Type of density    : Electron Density
Multiplicity       :   1
Irrep              :   0
Energy             :  -777.7996587297288897 Eh
Relativity type    :
Basis              : AO
                                X                 Y                 Z
Electronic contribution:     -1.241063940       6.576515825      -3.433055448
Nuclear contribution   :      1.512963538      -8.418417339       4.153604443
                        -----------------------------------------
Total Dipole Moment    :      0.271899598      -1.841901513       0.720548995
                        -----------------------------------------
Magnitude (a.u.)       :      1.996427166
Magnitude (Debye)      :      5.074514578

Rotational constants in cm-1:             0.092444             0.085421             0.061096
Rotational constants in MHz :          2771.408722          2560.848447          1831.604128

                             ****ORCA TERMINATED NORMALLY****
TOTAL RUN TIME: 0 days 0 hours 0 minutes 7 seconds 62 msec
