                         Program Version 6.0.0  -   RELEASE  -
|  1> ! pbe def2-sv(p) def2/J RI DEFGRID1 loosescf d4 GCP(DFT/SV(P)) printgap
|  2> %output
|  3>     printlevel normal
|  4> end
|  5> * xyz 0 1
|  6> C 2.8163197695 0.2167916159 0.1530458182
|  7> C 1.4835336808 -0.3612709976 -0.3095845141
|  8> C 0.3066315573 0.4693934343 0.198714559
|  9> C -1.0552379186 0.0107273304 -0.334919412
| 10> C -2.1292384326 1.0331299332 0.0358100494
| 11> C -1.4422683171 -1.3648699398 0.2041077367
| 12> H 3.6430558849 -0.3882013437 -0.2113668399
| 13> H 2.942568173 1.2312268573 -0.2188453564
| 14> H 2.8621967177 0.2430903641 1.2395013297
| 15> H 1.4597912518 -0.3883080971 -1.4016404109
| 16> H 1.397671362 -1.3873357728 0.0511978325
| 17> H 0.2905391316 0.4416718156 1.290988193
| 18> H 0.4641329829 1.5087897206 -0.1009469116
| 19> H -0.9955390176 -0.0478317807 -1.4280661636
| 20> H -1.887204674 2.0118308798 -0.3722936069
| 21> H -2.2074067159 1.1218797305 1.1173688411
| 22> H -3.0975875273 0.728840796 -0.3542921361
| 23> H -1.4620021219 -1.351770189 1.2918516866
| 24> H -2.4307426263 -1.6445743376 -0.1532944111
| 25> H -0.7380413455 -2.1258007866 -0.1206449954
| 26> *
| 27>
| 28>                          ****END OF INPUT****

CARTESIAN COORDINATES (ANGSTROEM)
---------------------------------
  C      2.816320    0.216792    0.153046
  C      1.483534   -0.361271   -0.309585
  C      0.306632    0.469393    0.198715
  C     -1.055238    0.010727   -0.334919
  C     -2.129238    1.033130    0.035810
  C     -1.442268   -1.364870    0.204108
  H      3.643056   -0.388201   -0.211367
  H      2.942568    1.231227   -0.218845
  H      2.862197    0.243090    1.239501
  H      1.459791   -0.388308   -1.401640
  H      1.397671   -1.387336    0.051198
  H      0.290539    0.441672    1.290988
  H      0.464133    1.508790   -0.100947
  H     -0.995539   -0.047832   -1.428066
  H     -1.887205    2.011831   -0.372294
  H     -2.207407    1.121880    1.117369
  H     -3.097588    0.728841   -0.354292
  H     -1.462002   -1.351770    1.291852
  H     -2.430743   -1.644574   -0.153294
  H     -0.738041   -2.125801   -0.120645

 Total Charge           Charge          ....    0
 Multiplicity           Mult            ....    1
 Number of Electrons    NEL             ....   50
 Basis Dimension        Dim             ....  112

ORBITAL ENERGIES
----------------

  NO   OCC          E(Eh)            E(eV)
   0   2.0000      -9.889252      -269.1002
   1   2.0000      -9.878769      -268.8150
   2   2.0000      -9.876169      -268.7442
   3   2.0000      -9.869379      -268.5595
   4   2.0000      -9.868174      -268.5267
   5   2.0000      -9.867526      -268.5090
   6   2.0000      -0.732129       -19.9223
   7   2.0000      -0.682965       -18.5844
   8   2.0000      -0.606592       -16.5062
   9   2.0000      -0.599857       -16.3230
  10   2.0000      -0.522619       -14.2212
  11   2.0000      -0.493344       -13.4246
  12   2.0000      -0.422833       -11.5059
  13   2.0000      -0.398363       -10.8400
  14   2.0000      -0.391034       -10.6406
  15   2.0000      -0.370579       -10.0840
  16   2.0000      -0.349121        -9.5001
  17   2.0000      -0.336438        -9.1549
  18   2.0000      -0.332786        -9.0556
  19   2.0000      -0.318019        -8.6537
  20   2.0000      -0.302630        -8.2350
  21   2.0000      -0.289760        -7.8848
  22   2.0000      -0.277681        -7.5561
  23   2.0000      -0.273086        -7.4311
  24   2.0000      -0.265153        -7.2152
  25   0.0000       0.036266         0.9868
  26   0.0000       0.056036         1.5248
  27   0.0000       0.063410         1.7255
  28   0.0000       0.072262         1.9663
  29   0.0000       0.094385         2.5683

MULLIKEN ATOMIC CHARGES
-----------------------
   0 C :   -0.258868
   1 C :   -0.184517
   2 C :   -0.157215
   3 C :   -0.163473
   4 C :   -0.232036
   5 C :   -0.254765
   6 H :    0.099975
   7 H :    0.096274
   8 H :    0.095909
   9 H :    0.080611
  10 H :    0.089778
  11 H :    0.072257
  12 H :    0.074243
  13 H :    0.067362
  14 H :    0.095521
  15 H :    0.089940
  16 H :    0.095601
  17 H :    0.090601
  18 H :    0.096552
  19 H :    0.106250
Sum of atomic charges:   -0.0000000

LOEWDIN ATOMIC CHARGES
----------------------
   0 C :   -0.338833
   1 C :   -0.235152
   2 C :   -0.218210
   3 C :   -0.157575
   4 C :   -0.328484
   5 C :   -0.330708
   6 H :    0.117541
   7 H :    0.115628
   8 H :    0.116395
   9 H :    0.113503
  10 H :    0.114131
  11 H :    0.111969
  12 H :    0.111808
  13 H :    0.112277
  14 H :    0.115281
  15 H :    0.115605
  16 H :    0.115442
  17 H :    0.115915
  18 H :    0.117052
  19 H :    0.116418

  Mayer bond orders larger than 0.100000
B(  0-C ,  1-C ) :   1.1555 B(  0-C ,  6-H ) :   0.9530 B(  0-C ,  7-H ) :   0.9545
B(  0-C ,  8-H ) :   0.9546 B(  1-C ,  2-C ) :   1.1360 B(  1-C ,  9-H ) :   0.9249
B(  1-C , 10-H ) :   0.9183 B(  2-C ,  3-C ) :   1.0834 B(  2-C , 11-H ) :   0.9157
B(  2-C , 12-H ) :   0.9227 B(  3-C ,  4-C ) :   1.1148 B(  3-C ,  5-C ) :   1.1055
B(  3-C , 13-H ) :   0.9016 B(  4-C , 14-H ) :   0.9498 B(  4-C , 15-H ) :   0.9498
B(  4-C , 16-H ) :   0.9513 B(  5-C , 17-H ) :   0.9501 B(  5-C , 18-H ) :   0.9504
B(  5-C , 19-H ) :   0.9472

Dispersion correction           -0.014378763
FINAL SINGLE POINT ENERGY      -236.450353514472

DIPOLE MOMENT
-------------

Method             : SCF
Type of density    : Electron Density
Multiplicity       :   1
Irrep              :   0
Energy             :  -236.5184649395700944 Eh
Relativity type    :
Basis              : AO
                                X                 Y                 Z
Electronic contribution:     -0.215747376       0.026094389      -0.629006343
Nuclear contribution   :      0.226501637      -0.043617124       0.590588457
                        -----------------------------------------
Total Dipole Moment    :      0.010754261      -0.017522735      -0.038417886
                        -----------------------------------------
Magnitude (a.u.)       :      0.043573321
Magnitude (Debye)      :      0.110754581

Rotational constants in cm-1:             0.222709             0.057604             0.049645
Rotational constants in MHz :          6676.661351          1726.937009          1488.308455

                             ****ORCA TERMINATED NORMALLY****
TOTAL RUN TIME: 0 days 0 hours 0 minutes 7 seconds 933 msec
