                         Program Version 6.0.0  -   RELEASE  -
|  1> ! pbe def2-sv(p) def2/J RI DEFGRID1 loosescf d4 GCP(DFT/SV(P)) printgap
|  2> %output
|  3>     printlevel normal
|  4> end
|  5> * xyz 0 1
|  6> C -1.3809536971 0.0111376983 -0.5449271509
|  7> C -0.0199592327 0.1134397995 0.1653340637
|  8> C 1.0602654959 -0.7284918063 -0.5304747883
|  9> O 2.2794800814 -0.6792812534 0.1714298917
| 10> O 0.4356425585 1.442662117 0.3041460377
| 11> O -2.3678303337 -0.2818984971 0.4195193243
| 12> H -1.342242844 -0.7811472614 -1.3035314287
| 13> H -1.6031022336 0.9656366842 -1.0388618895
| 14> H -0.1512764555 -0.2478936866 1.1907922236
| 15> H 1.205152041 -0.3607643729 -1.5581555679
| 16> H 0.7616472531 -1.7770477919 -0.5660726012
| 17> H 2.4021806726 0.229775737 0.4889793073
| 18> H 0.5097038954 1.8517360642 -0.5711485798
| 19> H -3.2355643014 -0.3267264524 -0.005697693
| 20> *
| 21>
| 22>                          ****END OF INPUT****

CARTESIAN COORDINATES (ANGSTROEM)
---------------------------------
  C     -1.380954    0.011138   -0.544927
  C     -0.019959    0.113440    0.165334
  C      1.060265   -0.728492   -0.530475
  O      2.279480   -0.679281    0.171430
  O      0.435643    1.442662    0.304146
  O     -2.367830   -0.281898    0.419519
  H     -1.342243   -0.781147   -1.303531
  H     -1.603102    0.965637   -1.038862
  H     -0.151276   -0.247894    1.190792
  H      1.205152   -0.360764   -1.558156
  H      0.761647   -1.777048   -0.566073
  H      2.402181    0.229776    0.488979
  H      0.509704    1.851736   -0.571149
  H     -3.235564   -0.326726   -0.005698

 Total Charge           Charge          ....    0
 Multiplicity           Mult            ....    1
 Number of Electrons    NEL             ....   50
 Basis Dimension        Dim             ....  100

ORBITAL ENERGIES
----------------

  NO   OCC          E(Eh)            E(eV)
   0   2.0000     -18.760484      -510.4987
   1   2.0000     -18.751980      -510.2673
   2   2.0000     -18.735271      -509.8126
   3   2.0000      -9.940422      -270.4926
   4   2.0000      -9.939964      -270.4802
   5   2.0000      -9.929827      -270.2043
   6   2.0000      -0.944632       -25.7047
   7   2.0000      -0.925112       -25.1736
   8   2.0000      -0.906875       -24.6773
   9   2.0000      -0.684722       -18.6322
  10   2.0000      -0.601900       -16.3785
  11   2.0000      -0.557854       -15.1800
  12   2.0000      -0.482866       -13.1395
  13   2.0000      -0.462721       -12.5913
  14   2.0000      -0.430621       -11.7178
  15   2.0000      -0.417832       -11.3698
  16   2.0000      -0.392453       -10.6792
  17   2.0000      -0.379912       -10.3379
  18   2.0000      -0.348556        -9.4847
  19   2.0000      -0.308827        -8.4036
  20   2.0000      -0.282615        -7.6904
  21   2.0000      -0.274782        -7.4772
  22   2.0000      -0.238259        -6.4834
  23   2.0000      -0.221418        -6.0251
  24   2.0000      -0.206045        -5.6068
  25   0.0000       0.016871         0.4591
  26   0.0000       0.021260         0.5785
  27   0.0000       0.063255         1.7213
  28   0.0000       0.071036         1.9330
  29   0.0000       0.085882         2.3370

MULLIKEN ATOMIC CHARGES
-----------------------
   0 C :    0.037797
   1 C :   -0.021701
   2 C :    0.022951
   3 O :   -0.437414
   4 O :   -0.429661
   5 O :   -0.435290
   6 H :    0.073133
   7 H :    0.058294
   8 H :    0.100962
   9 H :    0.053667
  10 H :    0.092350
  11 H :    0.291813
  12 H :    0.294114
  13 H :    0.298987
Sum of atomic charges:    0.0000000

LOEWDIN ATOMIC CHARGES
----------------------
   0 C :   -0.128366
   1 C :   -0.091304
   2 C :   -0.139606
   3 O :   -0.343797
   4 O :   -0.316915
   5 O :   -0.341455
   6 H :    0.096479
   7 H :    0.094911
   8 H :    0.128265
   9 H :    0.087188
  10 H :    0.116117
  11 H :    0.274069
  12 H :    0.279132
  13 H :    0.285283

  Mayer bond orders larger than 0.100000
B(  0-C ,  1-C ) :   1.0214 B(  0-C ,  5-O ) :   1.0892 B(  0-C ,  6-H ) :   0.9236
B(  0-C ,  7-H ) :   0.9089 B(  1-C ,  2-C ) :   1.0580 B(  1-C ,  4-O ) :   1.0125
B(  1-C ,  8-H ) :   0.8951 B(  2-C ,  3-O ) :   1.0808 B(  2-C ,  9-H ) :   0.9006
B(  2-C , 10-H ) :   0.9162 B(  3-O , 11-H ) :   0.8333 B(  4-O , 12-H ) :   0.8481
B(  5-O , 13-H ) :   0.8502

Dispersion correction           -0.008907565
FINAL SINGLE POINT ENERGY      -344.001956081499

DIPOLE MOMENT
-------------

Method             : SCF
Type of density    : Electron Density
Multiplicity       :   1
Irrep              :   0
Energy             :  -344.0754493978026858 Eh
Relativity type    :
Basis              : AO
                                X                 Y                 Z
Electronic contribution:      0.582968371       0.816136266       2.058310952
Nuclear contribution   :     -1.358479099      -0.411679098      -3.142436889
                        -----------------------------------------
Total Dipole Moment    :     -0.775510728       0.404457168      -1.084125937
                        -----------------------------------------
Magnitude (a.u.)       :      1.392957837
Magnitude (Debye)      :      3.540617444

Rotational constants in cm-1:             0.223011             0.066304             0.057295
Rotational constants in MHz :          6685.692084          1987.741680          1717.669244

                             ****ORCA TERMINATED NORMALLY****
TOTAL RUN TIME: 0 days 0 hours 0 minutes 6 seconds 774 msec
