                         Program Version 6.0.0  -   RELEASE  -
|  1> ! r2scan-3c def2/J RI DEFGRID2 scfconv6 printgap
|  2> %output
|  3>     printlevel normal
|  4> end
|  5> * xyz 0 1
|  6> C -2.4347705133 0.8146543648 0.5386893387
|  7> C -1.2795420378 -0.1396955486 0.2347881402
|  8> C -1.6320782128 -1.0115768396 -0.9683778419
|  9> C -3.34063e-05 0.6720645043 4.85899e-05
| 10> C 1.2794760081 -0.1396494386 -0.2347505426
| 11> C 2.4346871924 0.8146785363 -0.5387820421
| 12> C 1.6322467945 -1.0114845582 0.9683970359
| 13> H -2.6149906276 1.4727022012 -0.3088641998
| 14> H -3.3471109562 0.2582362116 0.7406923511
| 15> H -2.208518756 1.4285474638 1.4074932713
| 16> H -1.1374763331 -0.7862482309 1.1064372545
| 17> H -2.5850585927 -1.5099389547 -0.8049174854
| 18> H -1.7133894214 -0.4020360139 -1.8659786475
| 19> H -0.8772282946 -1.7750610606 -1.1357357584
| 20> H 0.1611121373 1.3195913229 0.8662180663
| 21> H -0.1611945925 1.3196278435 -0.8660962595
| 22> H 1.1373271407 -0.7862466627 -1.1063515356
| 23> H 2.2082551717 1.428713558 -1.4074373594
| 24> H 2.6151290489 1.4725945897 0.3088269202
| 25> H 3.3469602471 0.2582581981 -0.7410830893
| 26> H 1.7147475229 -0.4017496771 1.8657528173
| 27> H 0.8769142863 -1.7743025432 1.1365617592
| 28> H 2.5846909444 -1.5106643794 0.8043308125
| 29> *
| 30>
| 31>                          ****END OF INPUT****

CARTESIAN COORDINATES (ANGSTROEM)
---------------------------------
  C     -2.434771    0.814654    0.538689
  C     -1.279542   -0.139696    0.234788
  C     -1.632078   -1.011577   -0.968378
  C     -0.000033    0.672065    0.000049
  C      1.279476   -0.139649   -0.234751
  C      2.434687    0.814679   -0.538782
  C      1.632247   -1.011485    0.968397
  H     -2.614991    1.472702   -0.308864
  H     -3.347111    0.258236    0.740692
  H     -2.208519    1.428547    1.407493
  H     -1.137476   -0.786248    1.106437
  H     -2.585059   -1.509939   -0.804917
  H     -1.713389   -0.402036   -1.865979
  H     -0.877228   -1.775061   -1.135736
  H      0.161112    1.319591    0.866218
  H     -0.161195    1.319628   -0.866096
  H      1.137327   -0.786247   -1.106352
  H      2.208255    1.428714   -1.407437
  H      2.615129    1.472595    0.308827
  H      3.346960    0.258258   -0.741083
  H      1.714748   -0.401750    1.865753
  H      0.876914   -1.774303    1.136562
  H      2.584691   -1.510664    0.804331

 Total Charge           Charge          ....    0
 Multiplicity           Mult            ....    1
 Number of Electrons    NEL             ....   58
 Basis Dimension        Dim             ....  213

ORBITAL ENERGIES
----------------

  NO   OCC          E(Eh)            E(eV)
   0   2.0000     -10.029313      -272.9115
   1   2.0000     -10.029311      -272.9114
   2   2.0000     -10.017387      -272.5870
   3   2.0000     -10.012596      -272.4566
   4   2.0000     -10.012593      -272.4565
   5   2.0000     -10.012022      -272.4410
   6   2.0000     -10.012021      -272.4409
   7   2.0000      -0.786319       -21.3968
   8   2.0000      -0.743140       -20.2219
   9   2.0000      -0.649148       -17.6642
  10   2.0000      -0.645937       -17.5768
  11   2.0000      -0.639233       -17.3944
  12   2.0000      -0.542070       -14.7505
  13   2.0000      -0.511196       -13.9103
  14   2.0000      -0.445603       -12.1255
  15   2.0000      -0.416846       -11.3429
  16   2.0000      -0.407505       -11.0888
  17   2.0000      -0.395652       -10.7662
  18   2.0000      -0.370996       -10.0953
  19   2.0000      -0.364771        -9.9259
  20   2.0000      -0.350628        -9.5411
  21   2.0000      -0.350431        -9.5357
  22   2.0000      -0.331530        -9.0214
  23   2.0000      -0.317908        -8.6507
  24   2.0000      -0.308729        -8.4009
  25   2.0000      -0.300905        -8.1880
  26   2.0000      -0.284841        -7.7509
  27   2.0000      -0.278183        -7.5697
  28   2.0000      -0.271298        -7.3824
  29   0.0000       0.082349         2.2408
  30   0.0000       0.100895         2.7455
  31   0.0000       0.120321         3.2741
  32   0.0000       0.123583         3.3629
  33   0.0000       0.133094         3.6217

MULLIKEN ATOMIC CHARGES
-----------------------
   0 C :   -0.487756
   1 C :   -0.020172
   2 C :   -0.505796
   3 C :   -0.330301
   4 C :   -0.020193
   5 C :   -0.487745
   6 C :   -0.505729
   7 H :    0.146891
   8 H :    0.146414
   9 H :    0.144099
  10 H :    0.148802
  11 H :    0.144697
  12 H :    0.152033
  13 H :    0.150980
  14 H :    0.144940
  15 H :    0.144949
  16 H :    0.148812
  17 H :    0.144092
  18 H :    0.146898
  19 H :    0.146417
  20 H :    0.152001
  21 H :    0.150960
  22 H :    0.144708
Sum of atomic charges:    0.0000000

LOEWDIN ATOMIC CHARGES
----------------------
   0 C :   -0.416799
   1 C :   -0.247312
   2 C :   -0.417878
   3 C :   -0.300538
   4 C :   -0.247306
   5 C :   -0.416798
   6 C :   -0.417870
   7 H :    0.153465
   8 H :    0.151495
   9 H :    0.152518
  10 H :    0.155144
  11 H :    0.153104
  12 H :    0.154271
  13 H :    0.152034
  14 H :    0.160223
  15 H :    0.160222
  16 H :    0.155151
  17 H :    0.152515
  18 H :    0.153463
  19 H :    0.151499
  20 H :    0.154267
  21 H :    0.152027
  22 H :    0.153105

  Mayer bond orders larger than 0.100000
B(  0-C ,  1-C ) :   0.9108 B(  0-C ,  7-H ) :   0.9886 B(  0-C ,  8-H ) :   0.9770
B(  0-C ,  9-H ) :   0.9778 B(  1-C ,  2-C ) :   0.8865 B(  1-C ,  3-C ) :   0.9009
B(  1-C , 10-H ) :   0.9612 B(  2-C , 11-H ) :   0.9724 B(  2-C , 12-H ) :   0.9856
B(  2-C , 13-H ) :   0.9742 B(  3-C ,  4-C ) :   0.9010 B(  3-C , 14-H ) :   0.9871
B(  3-C , 15-H ) :   0.9871 B(  4-C ,  5-C ) :   0.9108 B(  4-C ,  6-C ) :   0.8866
B(  4-C , 16-H ) :   0.9612 B(  5-C , 17-H ) :   0.9778 B(  5-C , 18-H ) :   0.9886
B(  5-C , 19-H ) :   0.9770 B(  6-C , 20-H ) :   0.9855 B(  6-C , 21-H ) :   0.9742
B(  6-C , 22-H ) :   0.9724

Dispersion correction           -0.006326927
FINAL SINGLE POINT ENERGY      -276.289598367971

DIPOLE MOMENT
-------------

Method             : SCF
Type of density    : Electron Density
Multiplicity       :   1
Irrep              :   0
Energy             :  -276.2942789764820759 Eh
Relativity type    :
Basis              : AO
                                X                 Y                 Z
Electronic contribution:     -0.000163991      -0.045081634       0.000142386
Nuclear contribution   :      0.000158479       0.011280328      -0.000141740
                        -----------------------------------------
Total Dipole Moment    :     -0.000005512      -0.033801307       0.000000647
                        -----------------------------------------
Magnitude (a.u.)       :      0.033801307
Magnitude (Debye)      :      0.085916095

Rotational constants in cm-1:             0.138076             0.045990             0.043605
Rotational constants in MHz :          4139.417384          1378.743857          1307.255504

                             ****ORCA TERMINATED NORMALLY****
TOTAL RUN TIME: 0 days 0 hours 0 minutes 23 seconds 904 msec
