                         Program Version 6.0.0  -   RELEASE  -
|  1> ! r2scan-3c def2/J RI DEFGRID2 scfconv6 printgap
|  2> %output
|  3>     printlevel normal
|  4> end
|  5> %cpcm
|  6>     smd true
|  7>     smdsolvent "water"
|  8> end
|  9> * xyz 0 1
| 10> C -2.4347705133 0.8146543648 0.5386893387
| 11> C -1.2795420378 -0.1396955486 0.2347881402
| 12> C -1.6320782128 -1.0115768396 -0.9683778419
| 13> C -3.34063e-05 0.6720645043 4.85899e-05
| 14> C 1.2794760081 -0.1396494386 -0.2347505426
| 15> C 2.4346871924 0.8146785363 -0.5387820421
| 16> C 1.6322467945 -1.0114845582 0.9683970359
| 17> H -2.6149906276 1.4727022012 -0.3088641998
| 18> H -3.3471109562 0.2582362116 0.7406923511
| 19> H -2.208518756 1.4285474638 1.4074932713
| 20> H -1.1374763331 -0.7862482309 1.1064372545
| 21> H -2.5850585927 -1.5099389547 -0.8049174854
| 22> H -1.7133894214 -0.4020360139 -1.8659786475
| 23> H -0.8772282946 -1.7750610606 -1.1357357584
| 24> H 0.1611121373 1.3195913229 0.8662180663
| 25> H -0.1611945925 1.3196278435 -0.8660962595
| 26> H 1.1373271407 -0.7862466627 -1.1063515356
| 27> H 2.2082551717 1.428713558 -1.4074373594
| 28> H 2.6151290489 1.4725945897 0.3088269202
| 29> H 3.3469602471 0.2582581981 -0.7410830893
| 30> H 1.7147475229 -0.4017496771 1.8657528173
| 31> H 0.8769142863 -1.7743025432 1.1365617592
| 32> H 2.5846909444 -1.5106643794 0.8043308125
| 33> *
| 34>
| 35>                          ****END OF INPUT****

CARTESIAN COORDINATES (ANGSTROEM)
---------------------------------
  C     -2.434771    0.814654    0.538689
  C     -1.279542   -0.139696    0.234788
  C     -1.632078   -1.011577   -0.968378
  C     -0.000033    0.672065    0.000049
  C      1.279476   -0.139649   -0.234751
  C      2.434687    0.814679   -0.538782
  C      1.632247   -1.011485    0.968397
  H     -2.614991    1.472702   -0.308864
  H     -3.347111    0.258236    0.740692
  H     -2.208519    1.428547    1.407493
  H     -1.137476   -0.786248    1.106437
  H     -2.585059   -1.509939   -0.804917
  H     -1.713389   -0.402036   -1.865979
  H     -0.877228   -1.775061   -1.135736
  H      0.161112    1.319591    0.866218
  H     -0.161195    1.319628   -0.866096
  H      1.137327   -0.786247   -1.106352
  H      2.208255    1.428714   -1.407437
  H      2.615129    1.472595    0.308827
  H      3.346960    0.258258   -0.741083
  H      1.714748   -0.401750    1.865753
  H      0.876914   -1.774303    1.136562
  H      2.584691   -1.510664    0.804331

 Total Charge           Charge          ....    0
 Multiplicity           Mult            ....    1
 Number of Electrons    NEL             ....   58
 Basis Dimension        Dim             ....  213

ORBITAL ENERGIES
----------------

  NO   OCC          E(Eh)            E(eV)
   0   2.0000     -10.021661      -272.7033
   1   2.0000     -10.021661      -272.7032
   2   2.0000     -10.009096      -272.3614
   3   2.0000     -10.004778      -272.2438
   4   2.0000     -10.004777      -272.2438
   5   2.0000     -10.004586      -272.2386
   6   2.0000     -10.004584      -272.2386
   7   2.0000      -0.778597       -21.1867
   8   2.0000      -0.735742       -20.0205
   9   2.0000      -0.642042       -17.4709
  10   2.0000      -0.638970       -17.3873
  11   2.0000      -0.632025       -17.1983
  12   2.0000      -0.534877       -14.5547
  13   2.0000      -0.503611       -13.7040
  14   2.0000      -0.437751       -11.9118
  15   2.0000      -0.409378       -11.1398
  16   2.0000      -0.400119       -10.8878
  17   2.0000      -0.388192       -10.5632
  18   2.0000      -0.363399        -9.8886
  19   2.0000      -0.357616        -9.7312
  20   2.0000      -0.343474        -9.3464
  21   2.0000      -0.343264        -9.3407
  22   2.0000      -0.323942        -8.8149
  23   2.0000      -0.310291        -8.4434
  24   2.0000      -0.301149        -8.1947
  25   2.0000      -0.293465        -7.9856
  26   2.0000      -0.276798        -7.5320
  27   2.0000      -0.270427        -7.3587
  28   2.0000      -0.263808        -7.1786
  29   0.0000       0.090902         2.4736
  30   0.0000       0.108534         2.9534
  31   0.0000       0.128363         3.4929
  32   0.0000       0.131077         3.5668
  33   0.0000       0.137945         3.7537

MULLIKEN ATOMIC CHARGES
-----------------------
   0 C :   -0.534277
   1 C :    0.000674
   2 C :   -0.550960
   3 C :   -0.354614
   4 C :    0.000662
   5 C :   -0.534273
   6 C :   -0.550901
   7 H :    0.158138
   8 H :    0.157600
   9 H :    0.155216
  10 H :    0.155888
  11 H :    0.155471
  12 H :    0.162763
  13 H :    0.162154
  14 H :    0.154620
  15 H :    0.154634
  16 H :    0.155888
  17 H :    0.155210
  18 H :    0.158149
  19 H :    0.157601
  20 H :    0.162734
  21 H :    0.162139
  22 H :    0.155482
Sum of atomic charges:    0.0000000

LOEWDIN ATOMIC CHARGES
----------------------
   0 C :   -0.426344
   1 C :   -0.245292
   2 C :   -0.426406
   3 C :   -0.303932
   4 C :   -0.245285
   5 C :   -0.426343
   6 C :   -0.426400
   7 H :    0.155576
   8 H :    0.153844
   9 H :    0.154642
  10 H :    0.157314
  11 H :    0.155056
  12 H :    0.156502
  13 H :    0.154895
  14 H :    0.162173
  15 H :    0.162175
  16 H :    0.157318
  17 H :    0.154640
  18 H :    0.155575
  19 H :    0.153847
  20 H :    0.156498
  21 H :    0.154890
  22 H :    0.155058

  Mayer bond orders larger than 0.100000
B(  0-C ,  1-C ) :   0.8971 B(  0-C ,  7-H ) :   0.9874 B(  0-C ,  8-H ) :   0.9748
B(  0-C ,  9-H ) :   0.9758 B(  1-C ,  2-C ) :   0.8788 B(  1-C ,  3-C ) :   0.9014
B(  1-C , 10-H ) :   0.9618 B(  2-C , 11-H ) :   0.9711 B(  2-C , 12-H ) :   0.9837
B(  2-C , 13-H ) :   0.9712 B(  3-C ,  4-C ) :   0.9014 B(  3-C , 14-H ) :   0.9853
B(  3-C , 15-H ) :   0.9852 B(  4-C ,  5-C ) :   0.8971 B(  4-C ,  6-C ) :   0.8789
B(  4-C , 16-H ) :   0.9618 B(  5-C , 17-H ) :   0.9758 B(  5-C , 18-H ) :   0.9874
B(  5-C , 19-H ) :   0.9748 B(  6-C , 20-H ) :   0.9837 B(  6-C , 21-H ) :   0.9712
B(  6-C , 22-H ) :   0.9711

Dispersion correction           -0.006326927
FINAL SINGLE POINT ENERGY      -276.285740839677

DIPOLE MOMENT
-------------

Method             : SCF
Type of density    : Electron Density
Multiplicity       :   1
Irrep              :   0
Energy             :  -276.2904214481878853 Eh
Relativity type    :
Basis              : AO
                                X                 Y                 Z
Electronic contribution:     -0.000169024      -0.064508763       0.000140086
Nuclear contribution   :      0.000158479       0.011280328      -0.000141740
                        -----------------------------------------
Total Dipole Moment    :     -0.000010545      -0.053228436      -0.000001654
                        -----------------------------------------
Magnitude (a.u.)       :      0.053228437
Magnitude (Debye)      :      0.135295934

Rotational constants in cm-1:             0.138076             0.045990             0.043605
Rotational constants in MHz :          4139.417384          1378.743857          1307.255504

                             ****ORCA TERMINATED NORMALLY****
TOTAL RUN TIME: 0 days 0 hours 0 minutes 27 seconds 961 msec
