                         Program Version 6.0.0  -   RELEASE  -
|  1> ! pbe def2-sv(p) def2/J RI DEFGRID1 loosescf d4 GCP(DFT/SV(P)) printgap
|  2> %output
|  3>     printlevel normal
|  4> end
|  5> * xyz 0 1
|  6> C -2.3964713969 -0.2297756368 -0.9364873926
|  7> C -1.7413349953 0.7263881718 0.0542330046
|  8> C -0.5837066817 0.1288825519 0.8584898602
|  9> C 0.7753120888 -0.0853931149 0.1563274703
| 10> C 1.2273367132 1.1593395404 -0.6080994067
| 11> C 0.7868158447 -1.3082804843 -0.7667235656
| 12> O 1.7598440903 -0.2752826964 1.1807308194
| 13> H -1.7489393813 -0.4351547423 -1.7830259658
| 14> H -3.3163684091 0.2079210893 -1.3179181855
| 15> H -2.6420560159 -1.1723226891 -0.4527763179
| 16> H -1.4097141579 1.6247940864 -0.46619779
| 17> H -2.5008906775 1.0349779238 0.7771506788
| 18> H -0.3800321557 0.8032724822 1.6956016887
| 19> H -0.9085362483 -0.826728118 1.2801412301
| 20> H 2.2604023313 1.0254764443 -0.9186158664
| 21> H 1.1758720017 2.0309250027 0.0389644494
| 22> H 0.6114817598 1.3197008419 -1.4863958379
| 23> H 0.3467307193 -2.1712243326 -0.2718773655
| 24> H 1.8165149322 -1.5432307842 -1.0290590061
| 25> H 0.2378842808 -1.1127082086 -1.6807126414
| 26> H 1.5458384598 -1.0772726988 1.6756402132
| 27> *
| 28>
| 29>                          ****END OF INPUT****

CARTESIAN COORDINATES (ANGSTROEM)
---------------------------------
  C     -2.396471   -0.229776   -0.936487
  C     -1.741335    0.726388    0.054233
  C     -0.583707    0.128883    0.858490
  C      0.775312   -0.085393    0.156327
  C      1.227337    1.159340   -0.608099
  C      0.786816   -1.308280   -0.766724
  O      1.759844   -0.275283    1.180731
  H     -1.748939   -0.435155   -1.783026
  H     -3.316368    0.207921   -1.317918
  H     -2.642056   -1.172323   -0.452776
  H     -1.409714    1.624794   -0.466198
  H     -2.500891    1.034978    0.777151
  H     -0.380032    0.803272    1.695602
  H     -0.908536   -0.826728    1.280141
  H      2.260402    1.025476   -0.918616
  H      1.175872    2.030925    0.038964
  H      0.611482    1.319701   -1.486396
  H      0.346731   -2.171224   -0.271877
  H      1.816515   -1.543231   -1.029059
  H      0.237884   -1.112708   -1.680713
  H      1.545838   -1.077273    1.675640

 Total Charge           Charge          ....    0
 Multiplicity           Mult            ....    1
 Number of Electrons    NEL             ....   58
 Basis Dimension        Dim             ....  126

ORBITAL ENERGIES
----------------

  NO   OCC          E(Eh)            E(eV)
   0   2.0000     -18.732599      -509.7399
   1   2.0000      -9.944265      -270.5972
   2   2.0000      -9.885268      -268.9918
   3   2.0000      -9.879776      -268.8424
   4   2.0000      -9.874382      -268.6956
   5   2.0000      -9.872202      -268.6363
   6   2.0000      -9.869123      -268.5525
   7   2.0000      -0.911422       -24.8010
   8   2.0000      -0.722143       -19.6505
   9   2.0000      -0.677621       -18.4390
  10   2.0000      -0.617948       -16.8152
  11   2.0000      -0.611141       -16.6300
  12   2.0000      -0.535079       -14.5602
  13   2.0000      -0.496967       -13.5232
  14   2.0000      -0.441702       -12.0193
  15   2.0000      -0.415682       -11.3113
  16   2.0000      -0.396455       -10.7881
  17   2.0000      -0.386361       -10.5134
  18   2.0000      -0.372632       -10.1398
  19   2.0000      -0.354656        -9.6507
  20   2.0000      -0.338846        -9.2205
  21   2.0000      -0.335027        -9.1166
  22   2.0000      -0.319013        -8.6808
  23   2.0000      -0.314667        -8.5625
  24   2.0000      -0.300429        -8.1751
  25   2.0000      -0.288338        -7.8461
  26   2.0000      -0.277863        -7.5610
  27   2.0000      -0.260742        -7.0951
  28   2.0000      -0.207742        -5.6529
  29   0.0000       0.024333         0.6621
  30   0.0000       0.047475         1.2919
  31   0.0000       0.059923         1.6306
  32   0.0000       0.073044         1.9876
  33   0.0000       0.080769         2.1978

MULLIKEN ATOMIC CHARGES
-----------------------
   0 C :   -0.282272
   1 C :   -0.177160
   2 C :   -0.130111
   3 C :   -0.049660
   4 C :   -0.221417
   5 C :   -0.222875
   6 O :   -0.423980
   7 H :    0.108126
   8 H :    0.101524
   9 H :    0.094953
  10 H :    0.090866
  11 H :    0.083507
  12 H :    0.084882
  13 H :    0.060911
  14 H :    0.103501
  15 H :    0.101524
  16 H :    0.102578
  17 H :    0.082671
  18 H :    0.102827
  19 H :    0.100739
  20 H :    0.288868
Sum of atomic charges:    0.0000000

LOEWDIN ATOMIC CHARGES
----------------------
   0 C :   -0.343648
   1 C :   -0.234961
   2 C :   -0.231235
   3 C :   -0.011726
   4 C :   -0.326952
   5 C :   -0.340490
   6 O :   -0.325104
   7 H :    0.114720
   8 H :    0.119745
   9 H :    0.116465
  10 H :    0.117148
  11 H :    0.119084
  12 H :    0.119899
  13 H :    0.106896
  14 H :    0.125436
  15 H :    0.122675
  16 H :    0.119788
  17 H :    0.112309
  18 H :    0.122241
  19 H :    0.119774
  20 H :    0.277934

  Mayer bond orders larger than 0.100000
B(  0-C ,  1-C ) :   1.1617 B(  0-C ,  7-H ) :   0.9450 B(  0-C ,  8-H ) :   0.9485
B(  0-C ,  9-H ) :   0.9529 B(  1-C ,  2-C ) :   1.1163 B(  1-C , 10-H ) :   0.9169
B(  1-C , 11-H ) :   0.9185 B(  2-C ,  3-C ) :   1.0526 B(  2-C , 12-H ) :   0.9045
B(  2-C , 13-H ) :   0.9087 B(  3-C ,  4-C ) :   1.0825 B(  3-C ,  5-C ) :   1.0919
B(  3-C ,  6-O ) :   1.0115 B(  4-C , 14-H ) :   0.9398 B(  4-C , 15-H ) :   0.9426
B(  4-C , 16-H ) :   0.9371 B(  5-C , 17-H ) :   0.9385 B(  5-C , 18-H ) :   0.9394
B(  5-C , 19-H ) :   0.9271 B(  6-O , 20-H ) :   0.8562

Dispersion correction           -0.017184379
FINAL SINGLE POINT ENERGY      -311.517931785577

DIPOLE MOMENT
-------------

Method             : SCF
Type of density    : Electron Density
Multiplicity       :   1
Irrep              :   0
Energy             :  -311.5968510215939773 Eh
Relativity type    :
Basis              : AO
                                X                 Y                 Z
Electronic contribution:      4.135252987      -0.041426622       3.607020408
Nuclear contribution   :     -4.581966046      -0.277629228      -3.677978978
                        -----------------------------------------
Total Dipole Moment    :     -0.446713060      -0.319055850      -0.070958570
                        -----------------------------------------
Magnitude (a.u.)       :      0.553519929
Magnitude (Debye)      :      1.406935848

Rotational constants in cm-1:             0.128241             0.055298             0.052898
Rotational constants in MHz :          3844.563964          1657.796774          1585.840592

                             ****ORCA TERMINATED NORMALLY****
TOTAL RUN TIME: 0 days 0 hours 0 minutes 9 seconds 418 msec
