                         Program Version 6.0.0  -   RELEASE  -
|  1> ! pbe def2-sv(p) def2/J RI DEFGRID1 loosescf d4 GCP(DFT/SV(P)) printgap
|  2> %output
|  3>     printlevel normal
|  4> end
|  5> * xyz 0 1
|  6> C -2.4415964408 -0.112891356 1.0362634565
|  7> C -2.1609929022 0.5572903328 -0.3036645095
|  8> C -0.850994831 0.0802769623 -0.9172424892
|  9> O 0.2401288204 0.5437133507 -0.107608503
| 10> C 1.336233979 -0.1971411924 -0.0238797723
| 11> O 1.4797966828 -1.2516062109 -0.6104449089
| 12> C 2.3553348018 0.423713924 0.8841015903
| 13> H -2.5070336618 -1.1920643073 0.916719019
| 14> H -1.6452473408 0.1083140358 1.7427004316
| 15> H -3.3794627997 0.2476876344 1.4488285735
| 16> H -2.107162848 1.6382396335 -0.1713512907
| 17> H -2.9616805518 0.333142397 -1.0082799238
| 18> H -0.8041096942 -1.0123109131 -0.9736782708
| 19> H -0.7157356131 0.4909333911 -1.922631185
| 20> H 2.4579813793 -0.1992287565 1.7696281096
| 21> H 2.0408073979 1.4224985485 1.1659315453
| 22> H 3.3172393194 0.4473535162 0.3797399834
| 23> *
| 24>
| 25>                          ****END OF INPUT****

CARTESIAN COORDINATES (ANGSTROEM)
---------------------------------
  C     -2.441596   -0.112891    1.036263
  C     -2.160993    0.557290   -0.303665
  C     -0.850995    0.080277   -0.917242
  O      0.240129    0.543713   -0.107609
  C      1.336234   -0.197141   -0.023880
  O      1.479797   -1.251606   -0.610445
  C      2.355335    0.423714    0.884102
  H     -2.507034   -1.192064    0.916719
  H     -1.645247    0.108314    1.742700
  H     -3.379463    0.247688    1.448829
  H     -2.107163    1.638240   -0.171351
  H     -2.961681    0.333142   -1.008280
  H     -0.804110   -1.012311   -0.973678
  H     -0.715736    0.490933   -1.922631
  H      2.457981   -0.199229    1.769628
  H      2.040807    1.422499    1.165932
  H      3.317239    0.447354    0.379740

 Total Charge           Charge          ....    0
 Multiplicity           Mult            ....    1
 Number of Electrons    NEL             ....   56
 Basis Dimension        Dim             ....  118

ORBITAL ENERGIES
----------------

  NO   OCC          E(Eh)            E(eV)
   0   2.0000     -18.798309      -511.5280
   1   2.0000     -18.730165      -509.6737
   2   2.0000     -10.004901      -272.2472
   3   2.0000      -9.941286      -270.5161
   4   2.0000      -9.896189      -269.2890
   5   2.0000      -9.890977      -269.1472
   6   2.0000      -9.880524      -268.8627
   7   2.0000      -1.003897       -27.3174
   8   2.0000      -0.906469       -24.6663
   9   2.0000      -0.724966       -19.7273
  10   2.0000      -0.676856       -18.4182
  11   2.0000      -0.622308       -16.9339
  12   2.0000      -0.548514       -14.9258
  13   2.0000      -0.503070       -13.6892
  14   2.0000      -0.444656       -12.0997
  15   2.0000      -0.434171       -11.8144
  16   2.0000      -0.410224       -11.1627
  17   2.0000      -0.401110       -10.9147
  18   2.0000      -0.394591       -10.7374
  19   2.0000      -0.364915        -9.9298
  20   2.0000      -0.358010        -9.7420
  21   2.0000      -0.342184        -9.3113
  22   2.0000      -0.318079        -8.6554
  23   2.0000      -0.311972        -8.4892
  24   2.0000      -0.307848        -8.3770
  25   2.0000      -0.289678        -7.8826
  26   2.0000      -0.253756        -6.9050
  27   2.0000      -0.216288        -5.8855
  28   0.0000      -0.017932        -0.4880
  29   0.0000       0.037203         1.0124
  30   0.0000       0.056057         1.5254
  31   0.0000       0.078889         2.1467
  32   0.0000       0.082173         2.2360

MULLIKEN ATOMIC CHARGES
-----------------------
   0 C :   -0.291531
   1 C :   -0.184241
   2 C :   -0.005579
   3 O :   -0.241742
   4 C :    0.082449
   5 O :   -0.215291
   6 C :   -0.253782
   7 H :    0.103050
   8 H :    0.109276
   9 H :    0.108719
  10 H :    0.097904
  11 H :    0.095701
  12 H :    0.107395
  13 H :    0.103157
  14 H :    0.135355
  15 H :    0.116340
  16 H :    0.132819
Sum of atomic charges:    0.0000000

LOEWDIN ATOMIC CHARGES
----------------------
   0 C :   -0.343578
   1 C :   -0.245391
   2 C :   -0.105958
   3 O :   -0.067946
   4 C :    0.028131
   5 O :   -0.176912
   6 C :   -0.360411
   7 H :    0.119671
   8 H :    0.119994
   9 H :    0.121825
  10 H :    0.122579
  11 H :    0.125164
  12 H :    0.118316
  13 H :    0.115901
  14 H :    0.149091
  15 H :    0.133328
  16 H :    0.146195

  Mayer bond orders larger than 0.100000
B(  0-C ,  1-C ) :   1.1471 B(  0-C ,  7-H ) :   0.9554 B(  0-C ,  8-H ) :   0.9544
B(  0-C ,  9-H ) :   0.9541 B(  1-C ,  2-C ) :   1.1139 B(  1-C , 10-H ) :   0.9214
B(  1-C , 11-H ) :   0.9204 B(  2-C ,  3-O ) :   0.9148 B(  2-C , 12-H ) :   0.9102
B(  2-C , 13-H ) :   0.9333 B(  3-O ,  4-C ) :   1.2043 B(  4-C ,  5-O ) :   2.0548
B(  4-C ,  6-C ) :   1.0810 B(  6-C , 14-H ) :   0.9272 B(  6-C , 15-H ) :   0.9387
B(  6-C , 16-H ) :   0.9341

Dispersion correction           -0.011794455
FINAL SINGLE POINT ENERGY      -346.244073063849

DIPOLE MOMENT
-------------

Method             : SCF
Type of density    : Electron Density
Multiplicity       :   1
Irrep              :   0
Energy             :  -346.3089546018886153 Eh
Relativity type    :
Basis              : AO
                                X                 Y                 Z
Electronic contribution:      5.472424521      -1.522943477      -2.867609375
Nuclear contribution   :     -5.889085560       2.132808791       3.129969111
                        -----------------------------------------
Total Dipole Moment    :     -0.416661039       0.609865314       0.262359736
                        -----------------------------------------
Magnitude (a.u.)       :      0.783820613
Magnitude (Debye)      :      1.992313667

Rotational constants in cm-1:             0.173199             0.047542             0.044072
Rotational constants in MHz :          5192.367793          1425.262397          1321.244549

                             ****ORCA TERMINATED NORMALLY****
TOTAL RUN TIME: 0 days 0 hours 0 minutes 8 seconds 434 msec
