                         Program Version 6.0.0  -   RELEASE  -
|  1> ! pbe def2-sv(p) def2/J RI DEFGRID1 loosescf d4 GCP(DFT/SV(P)) printgap
|  2> %output
|  3>     printlevel normal
|  4> end
|  5> * xyz 0 1
|  6> C -2.422815211 0.0042728233 0.1388651137
|  7> O -1.1695707097 0.1194236848 -0.5035034352
|  8> C -0.0798161345 -0.0913832376 0.3693241023
|  9> C 1.211867935 0.0869997664 -0.4337574662
| 10> O 2.3654324829 -0.0546757199 0.3574133463
| 11> H -2.5551626079 -0.997945955 0.5606301953
| 12> H -3.17255677 0.1848018215 -0.6267891389
| 13> H -2.5213859713 0.7456736345 0.9388669063
| 14> H -0.1046841574 0.6318053286 1.1978539242
| 15> H -0.1307627015 -1.106315183 0.7940944791
| 16> H 1.2414495458 1.1003958137 -0.8391669854
| 17> H 1.2120209606 -0.6194525046 -1.2723859375
| 18> H 2.4296216895 -0.9654121228 0.6788997751
| 19> *
| 20>
| 21>                          ****END OF INPUT****

CARTESIAN COORDINATES (ANGSTROEM)
---------------------------------
  C     -2.422815    0.004273    0.138865
  O     -1.169571    0.119424   -0.503503
  C     -0.079816   -0.091383    0.369324
  C      1.211868    0.087000   -0.433757
  O      2.365432   -0.054676    0.357413
  H     -2.555163   -0.997946    0.560630
  H     -3.172557    0.184802   -0.626789
  H     -2.521386    0.745674    0.938867
  H     -0.104684    0.631805    1.197854
  H     -0.130763   -1.106315    0.794094
  H      1.241450    1.100396   -0.839167
  H      1.212021   -0.619453   -1.272386
  H      2.429622   -0.965412    0.678900

 Total Charge           Charge          ....    0
 Multiplicity           Mult            ....    1
 Number of Electrons    NEL             ....   42
 Basis Dimension        Dim             ....   86

ORBITAL ENERGIES
----------------

  NO   OCC          E(Eh)            E(eV)
   0   2.0000     -18.756263      -510.3839
   1   2.0000     -18.746926      -510.1298
   2   2.0000      -9.930442      -270.2211
   3   2.0000      -9.928673      -270.1729
   4   2.0000      -9.927428      -270.1391
   5   2.0000      -0.937358       -25.5068
   6   2.0000      -0.921024       -25.0623
   7   2.0000      -0.676344       -18.4042
   8   2.0000      -0.598453       -16.2847
   9   2.0000      -0.548589       -14.9279
  10   2.0000      -0.464492       -12.6395
  11   2.0000      -0.440408       -11.9841
  12   2.0000      -0.428427       -11.6581
  13   2.0000      -0.400244       -10.8912
  14   2.0000      -0.379964       -10.3393
  15   2.0000      -0.350748        -9.5443
  16   2.0000      -0.334379        -9.0989
  17   2.0000      -0.278756        -7.5853
  18   2.0000      -0.269715        -7.3393
  19   2.0000      -0.218216        -5.9380
  20   2.0000      -0.209091        -5.6897
  21   0.0000       0.023677         0.6443
  22   0.0000       0.038093         1.0366
  23   0.0000       0.080995         2.2040
  24   0.0000       0.082910         2.2561
  25   0.0000       0.094143         2.5618

MULLIKEN ATOMIC CHARGES
-----------------------
   0 C :   -0.100894
   1 O :   -0.344767
   2 C :   -0.029184
   3 C :    0.017031
   4 O :   -0.436992
   5 H :    0.085153
   6 H :    0.116658
   7 H :    0.087754
   8 H :    0.076779
   9 H :    0.054324
  10 H :    0.097383
  11 H :    0.081364
  12 H :    0.295391
Sum of atomic charges:   -0.0000000

LOEWDIN ATOMIC CHARGES
----------------------
   0 C :   -0.205170
   1 O :   -0.184319
   2 C :   -0.135576
   3 C :   -0.132907
   4 O :   -0.335363
   5 H :    0.096307
   6 H :    0.116160
   7 H :    0.097758
   8 H :    0.097500
   9 H :    0.086732
  10 H :    0.117602
  11 H :    0.098446
  12 H :    0.282828

  Mayer bond orders larger than 0.100000
B(  0-C ,  1-O ) :   1.0183 B(  0-C ,  5-H ) :   0.9435 B(  0-C ,  6-H ) :   0.9644
B(  0-C ,  7-H ) :   0.9435 B(  1-O ,  2-C ) :   1.0175 B(  2-C ,  3-C ) :   1.0840
B(  2-C ,  8-H ) :   0.9101 B(  2-C ,  9-H ) :   0.9118 B(  3-C ,  4-O ) :   1.0576
B(  3-C , 10-H ) :   0.9252 B(  3-C , 11-H ) :   0.9267 B(  4-O , 12-H ) :   0.8544

Dispersion correction           -0.007036665
FINAL SINGLE POINT ENERGY      -268.933886294012

DIPOLE MOMENT
-------------

Method             : SCF
Type of density    : Electron Density
Multiplicity       :   1
Irrep              :   0
Energy             :  -268.9942505553169667 Eh
Relativity type    :
Basis              : AO
                                X                 Y                 Z
Electronic contribution:      2.926956516       0.388907778      -0.988524358
Nuclear contribution   :     -3.361016058      -0.962024203       1.341294872
                        -----------------------------------------
Total Dipole Moment    :     -0.434059542      -0.573116425       0.352770514
                        -----------------------------------------
Magnitude (a.u.)       :      0.800822801
Magnitude (Debye)      :      2.035529793

Rotational constants in cm-1:             0.750199             0.070923             0.067614
Rotational constants in MHz :         22490.406975          2126.214841          2027.021340

                             ****ORCA TERMINATED NORMALLY****
TOTAL RUN TIME: 0 days 0 hours 0 minutes 5 seconds 936 msec
