                         Program Version 6.0.0  -   RELEASE  -
|  1> ! r2scan-3c def2/J RI DEFGRID2 scfconv6 printgap
|  2> %output
|  3>     printlevel normal
|  4> end
|  5> * xyz 0 1
|  6> C 2.7147641005 -0.1926720955 0.129138165
|  7> C 1.235777587 -0.1407563251 0.4921155675
|  8> C 0.3546581469 -0.1933237877 -0.7542949503
|  9> C -1.1343946964 0.0350093035 -0.4662947669
| 10> H -1.67202138 -0.0324315268 -1.4287485365
| 11> C -1.7199315193 -1.0019510029 0.4921400012
| 12> O -1.2753419892 1.3531071085 0.0414139968
| 13> H 3.327838337 -0.1626440755 1.0264472935
| 14> H 2.9837975647 0.6530636609 -0.4996313498
| 15> H 2.941080578 -1.1083302467 -0.4128803088
| 16> H 1.0000087916 -0.9806594317 1.1470952156
| 17> H 1.0205290392 0.7839603349 1.03051053
| 18> H 0.6777498314 0.5892064199 -1.4443725757
| 19> H 0.4695919103 -1.1564904326 -1.253896711
| 20> H -2.8011325062 -0.8968423603 0.550028644
| 21> H -1.4884740685 -2.0026005766 0.1397966268
| 22> H -1.3042362628 -0.8690510126 1.4871112612
| 23> H -2.1998121125 1.50373963 0.2785735013
| 24> *
| 25>
| 26>                          ****END OF INPUT****

CARTESIAN COORDINATES (ANGSTROEM)
---------------------------------
  C      2.714764   -0.192672    0.129138
  C      1.235778   -0.140756    0.492116
  C      0.354658   -0.193324   -0.754295
  C     -1.134395    0.035009   -0.466295
  H     -1.672021   -0.032432   -1.428749
  C     -1.719932   -1.001951    0.492140
  O     -1.275342    1.353107    0.041414
  H      3.327838   -0.162644    1.026447
  H      2.983798    0.653064   -0.499631
  H      2.941081   -1.108330   -0.412880
  H      1.000009   -0.980659    1.147095
  H      1.020529    0.783960    1.030511
  H      0.677750    0.589206   -1.444373
  H      0.469592   -1.156490   -1.253897
  H     -2.801133   -0.896842    0.550029
  H     -1.488474   -2.002601    0.139797
  H     -1.304236   -0.869051    1.487111
  H     -2.199812    1.503740    0.278574

 Total Charge           Charge          ....    0
 Multiplicity           Mult            ....    1
 Number of Electrons    NEL             ....   50
 Basis Dimension        Dim             ....  179

ORBITAL ENERGIES
----------------

  NO   OCC          E(Eh)            E(eV)
   0   2.0000     -18.944106      -515.4953
   1   2.0000     -10.079880      -274.2875
   2   2.0000     -10.020337      -272.6672
   3   2.0000     -10.019828      -272.6534
   4   2.0000     -10.017235      -272.5828
   5   2.0000     -10.011472      -272.4260
   6   2.0000      -0.982213       -26.7274
   7   2.0000      -0.760656       -20.6985
   8   2.0000      -0.709625       -19.3099
   9   2.0000      -0.648652       -17.6507
  10   2.0000      -0.576821       -15.6961
  11   2.0000      -0.530480       -14.4351
  12   2.0000      -0.473017       -12.8714
  13   2.0000      -0.431890       -11.7523
  14   2.0000      -0.410916       -11.1816
  15   2.0000      -0.404299       -11.0015
  16   2.0000      -0.376564       -10.2468
  17   2.0000      -0.350854        -9.5472
  18   2.0000      -0.347150        -9.4464
  19   2.0000      -0.333680        -9.0799
  20   2.0000      -0.319095        -8.6830
  21   2.0000      -0.297962        -8.1080
  22   2.0000      -0.289834        -7.8868
  23   2.0000      -0.277598        -7.5538
  24   2.0000      -0.232169        -6.3176
  25   0.0000       0.060503         1.6464
  26   0.0000       0.107575         2.9273
  27   0.0000       0.111731         3.0403
  28   0.0000       0.127481         3.4689
  29   0.0000       0.137943         3.7536

MULLIKEN ATOMIC CHARGES
-----------------------
   0 C :   -0.476442
   1 C :   -0.273551
   2 C :   -0.277869
   3 C :    0.074388
   4 H :    0.133384
   5 C :   -0.514546
   6 O :   -0.433260
   7 H :    0.146037
   8 H :    0.144962
   9 H :    0.137063
  10 H :    0.137798
  11 H :    0.172354
  12 H :    0.149733
  13 H :    0.137038
  14 H :    0.139447
  15 H :    0.149218
  16 H :    0.168943
  17 H :    0.285304
Sum of atomic charges:   -0.0000000

LOEWDIN ATOMIC CHARGES
----------------------
   0 C :   -0.423328
   1 C :   -0.312154
   2 C :   -0.278260
   3 C :    0.046432
   4 H :    0.160440
   5 C :   -0.404811
   6 O :   -0.620902
   7 H :    0.149653
   8 H :    0.150193
   9 H :    0.148155
  10 H :    0.150623
  11 H :    0.165909
  12 H :    0.166812
  13 H :    0.159331
  14 H :    0.150910
  15 H :    0.160341
  16 H :    0.162210
  17 H :    0.268447

  Mayer bond orders larger than 0.100000
B(  0-C ,  1-C ) :   0.8956 B(  0-C ,  7-H ) :   0.9760 B(  0-C ,  8-H ) :   0.9882
B(  0-C ,  9-H ) :   0.9796 B(  1-C ,  2-C ) :   0.9023 B(  1-C , 10-H ) :   0.9576
B(  1-C , 11-H ) :   0.9782 B(  2-C ,  3-C ) :   0.9531 B(  2-C , 12-H ) :   0.9809
B(  2-C , 13-H ) :   0.9711 B(  3-C ,  4-H ) :   0.9650 B(  3-C ,  5-C ) :   0.8992
B(  3-C ,  6-O ) :   0.8947 B(  5-C , 14-H ) :   0.9661 B(  5-C , 15-H ) :   0.9719
B(  5-C , 16-H ) :   0.9810 B(  6-O , 17-H ) :   0.9037

Dispersion correction           -0.004229026
FINAL SINGLE POINT ENERGY      -272.902389563468

DIPOLE MOMENT
-------------

Method             : SCF
Type of density    : Electron Density
Multiplicity       :   1
Irrep              :   0
Energy             :  -272.9076527945157409 Eh
Relativity type    :
Basis              : AO
                                X                 Y                 Z
Electronic contribution:     -3.192650758       3.055278927      -0.594370725
Nuclear contribution   :      2.753271557      -3.431497961       0.582307565
                        -----------------------------------------
Total Dipole Moment    :     -0.439379201      -0.376219034      -0.012063160
                        -----------------------------------------
Magnitude (a.u.)       :      0.578567510
Magnitude (Debye)      :      1.470601740

Rotational constants in cm-1:             0.206162             0.063756             0.057506
Rotational constants in MHz :          6180.570251          1911.355232          1723.998592

                             ****ORCA TERMINATED NORMALLY****
TOTAL RUN TIME: 0 days 0 hours 0 minutes 22 seconds 627 msec
