                         Program Version 6.0.0  -   RELEASE  -
|  1> ! r2scan-3c def2/J RI DEFGRID2 scfconv6 printgap
|  2> %output
|  3>     printlevel normal
|  4> end
|  5> %cpcm
|  6>     smd true
|  7>     smdsolvent "water"
|  8> end
|  9> * xyz 0 1
| 10> C 2.7147641005 -0.1926720955 0.129138165
| 11> C 1.235777587 -0.1407563251 0.4921155675
| 12> C 0.3546581469 -0.1933237877 -0.7542949503
| 13> C -1.1343946964 0.0350093035 -0.4662947669
| 14> H -1.67202138 -0.0324315268 -1.4287485365
| 15> C -1.7199315193 -1.0019510029 0.4921400012
| 16> O -1.2753419892 1.3531071085 0.0414139968
| 17> H 3.327838337 -0.1626440755 1.0264472935
| 18> H 2.9837975647 0.6530636609 -0.4996313498
| 19> H 2.941080578 -1.1083302467 -0.4128803088
| 20> H 1.0000087916 -0.9806594317 1.1470952156
| 21> H 1.0205290392 0.7839603349 1.03051053
| 22> H 0.6777498314 0.5892064199 -1.4443725757
| 23> H 0.4695919103 -1.1564904326 -1.253896711
| 24> H -2.8011325062 -0.8968423603 0.550028644
| 25> H -1.4884740685 -2.0026005766 0.1397966268
| 26> H -1.3042362628 -0.8690510126 1.4871112612
| 27> H -2.1998121125 1.50373963 0.2785735013
| 28> *
| 29>
| 30>                          ****END OF INPUT****

CARTESIAN COORDINATES (ANGSTROEM)
---------------------------------
  C      2.714764   -0.192672    0.129138
  C      1.235778   -0.140756    0.492116
  C      0.354658   -0.193324   -0.754295
  C     -1.134395    0.035009   -0.466295
  H     -1.672021   -0.032432   -1.428749
  C     -1.719932   -1.001951    0.492140
  O     -1.275342    1.353107    0.041414
  H      3.327838   -0.162644    1.026447
  H      2.983798    0.653064   -0.499631
  H      2.941081   -1.108330   -0.412880
  H      1.000009   -0.980659    1.147095
  H      1.020529    0.783960    1.030511
  H      0.677750    0.589206   -1.444373
  H      0.469592   -1.156490   -1.253897
  H     -2.801133   -0.896842    0.550029
  H     -1.488474   -2.002601    0.139797
  H     -1.304236   -0.869051    1.487111
  H     -2.199812    1.503740    0.278574

 Total Charge           Charge          ....    0
 Multiplicity           Mult            ....    1
 Number of Electrons    NEL             ....   50
 Basis Dimension        Dim             ....  179

ORBITAL ENERGIES
----------------

  NO   OCC          E(Eh)            E(eV)
   0   2.0000     -18.947369      -515.5841
   1   2.0000     -10.074846      -274.1505
   2   2.0000     -10.015270      -272.5294
   3   2.0000     -10.014876      -272.5186
   4   2.0000     -10.009043      -272.3599
   5   2.0000     -10.007606      -272.3208
   6   2.0000      -0.984372       -26.7861
   7   2.0000      -0.756742       -20.5920
   8   2.0000      -0.703829       -19.1522
   9   2.0000      -0.642516       -17.4838
  10   2.0000      -0.573269       -15.5995
  11   2.0000      -0.527361       -14.3502
  12   2.0000      -0.469133       -12.7658
  13   2.0000      -0.426752       -11.6125
  14   2.0000      -0.407687       -11.0937
  15   2.0000      -0.400898       -10.9090
  16   2.0000      -0.370597       -10.0844
  17   2.0000      -0.344599        -9.3770
  18   2.0000      -0.341577        -9.2948
  19   2.0000      -0.328603        -8.9417
  20   2.0000      -0.319613        -8.6971
  21   2.0000      -0.295685        -8.0460
  22   2.0000      -0.286263        -7.7896
  23   2.0000      -0.275268        -7.4904
  24   2.0000      -0.235476        -6.4076
  25   0.0000       0.076553         2.0831
  26   0.0000       0.113374         3.0851
  27   0.0000       0.120076         3.2674
  28   0.0000       0.134168         3.6509
  29   0.0000       0.143945         3.9170

MULLIKEN ATOMIC CHARGES
-----------------------
   0 C :   -0.516344
   1 C :   -0.272887
   2 C :   -0.297690
   3 C :    0.081983
   4 H :    0.145075
   5 C :   -0.545138
   6 O :   -0.519665
   7 H :    0.156334
   8 H :    0.154965
   9 H :    0.151611
  10 H :    0.154170
  11 H :    0.157262
  12 H :    0.155501
  13 H :    0.157179
  14 H :    0.162063
  15 H :    0.165517
  16 H :    0.169721
  17 H :    0.340341
Sum of atomic charges:   -0.0000000

LOEWDIN ATOMIC CHARGES
----------------------
   0 C :   -0.431247
   1 C :   -0.315103
   2 C :   -0.282760
   3 C :    0.048455
   4 H :    0.167023
   5 C :   -0.406909
   6 O :   -0.656964
   7 H :    0.152032
   8 H :    0.152215
   9 H :    0.152433
  10 H :    0.155856
  11 H :    0.159213
  12 H :    0.165540
  13 H :    0.166878
  14 H :    0.158810
  15 H :    0.165868
  16 H :    0.162025
  17 H :    0.286633

  Mayer bond orders larger than 0.100000
B(  0-C ,  1-C ) :   0.8896 B(  0-C ,  7-H ) :   0.9728 B(  0-C ,  8-H ) :   0.9855
B(  0-C ,  9-H ) :   0.9772 B(  1-C ,  2-C ) :   0.8956 B(  1-C , 10-H ) :   0.9549
B(  1-C , 11-H ) :   0.9811 B(  2-C ,  3-C ) :   0.9445 B(  2-C , 12-H ) :   0.9853
B(  2-C , 13-H ) :   0.9642 B(  3-C ,  4-H ) :   0.9631 B(  3-C ,  5-C ) :   0.9114
B(  3-C ,  6-O ) :   0.8806 B(  5-C , 14-H ) :   0.9621 B(  5-C , 15-H ) :   0.9683
B(  5-C , 16-H ) :   0.9754 B(  6-O , 17-H ) :   0.8782

Dispersion correction           -0.004229026
FINAL SINGLE POINT ENERGY      -272.908196729584

DIPOLE MOMENT
-------------

Method             : SCF
Type of density    : Electron Density
Multiplicity       :   1
Irrep              :   0
Energy             :  -272.9134599606319398 Eh
Relativity type    :
Basis              : AO
                                X                 Y                 Z
Electronic contribution:     -3.383333470       2.826946247      -0.639175402
Nuclear contribution   :      2.753271557      -3.431497961       0.582307565
                        -----------------------------------------
Total Dipole Moment    :     -0.630061913      -0.604551714      -0.056867837
                        -----------------------------------------
Magnitude (a.u.)       :      0.875039851
Magnitude (Debye)      :      2.224174543

Rotational constants in cm-1:             0.206162             0.063756             0.057506
Rotational constants in MHz :          6180.570251          1911.355232          1723.998592

                             ****ORCA TERMINATED NORMALLY****
TOTAL RUN TIME: 0 days 0 hours 0 minutes 26 seconds 710 msec
