                         Program Version 6.0.0  -   RELEASE  -
|  1> ! r2scan-3c def2/J RI DEFGRID2 scfconv6 printgap
|  2> %output
|  3>     printlevel normal
|  4> end
|  5> * xyz 0 1
|  6> C -2.7064384255 0.382193567 -0.5551570103
|  7> C -1.9940216337 -0.2649724715 0.6273691105
|  8> C -0.5264161869 0.1542795366 0.7519156325
|  9> C 0.3133165246 -0.3704636018 -0.3996438481
| 10> Cl 2.0486723789 0.0353044924 -0.1493677083
| 11> H -2.6078310489 1.4641868604 -0.5125826491
| 12> H -2.297032739 0.0338177342 -1.499166967
| 13> H -3.7645741546 0.1343494485 -0.5339854528
| 14> H -2.0529897862 -1.3511794056 0.5393643766
| 15> H -2.5048233767 0.022023883 1.5478576972
| 16> H -0.4574413212 1.2429629899 0.7842412169
| 17> H -0.1226857329 -0.2355989289 1.6881331763
| 18> H 0.036499385 0.0826407349 -1.3487023789
| 19> H 0.2621622876 -1.4557366257 -0.4695520799
| 20> *
| 21>
| 22>                          ****END OF INPUT****

CARTESIAN COORDINATES (ANGSTROEM)
---------------------------------
  C     -2.706438    0.382194   -0.555157
  C     -1.994022   -0.264972    0.627369
  C     -0.526416    0.154280    0.751916
  C      0.313317   -0.370464   -0.399644
  Cl     2.048672    0.035304   -0.149368
  H     -2.607831    1.464187   -0.512583
  H     -2.297033    0.033818   -1.499167
  H     -3.764574    0.134349   -0.533985
  H     -2.052990   -1.351179    0.539364
  H     -2.504823    0.022024    1.547858
  H     -0.457441    1.242963    0.784241
  H     -0.122686   -0.235599    1.688133
  H      0.036499    0.082641   -1.348702
  H      0.262162   -1.455737   -0.469552

 Total Charge           Charge          ....    0
 Multiplicity           Mult            ....    1
 Number of Electrons    NEL             ....   50
 Basis Dimension        Dim             ....  148

ORBITAL ENERGIES
----------------

  NO   OCC          E(Eh)            E(eV)
   0   2.0000    -101.196657     -2753.7010
   1   2.0000     -10.090958      -274.5889
   2   2.0000     -10.040379      -273.2126
   3   2.0000     -10.038944      -273.1736
   4   2.0000     -10.026656      -272.8392
   5   2.0000      -9.352669      -254.4991
   6   2.0000      -7.098879      -193.1703
   7   2.0000      -7.088732      -192.8942
   8   2.0000      -7.088699      -192.8933
   9   2.0000      -0.821040       -22.3416
  10   2.0000      -0.762050       -20.7364
  11   2.0000      -0.681504       -18.5447
  12   2.0000      -0.609458       -16.5842
  13   2.0000      -0.551207       -14.9991
  14   2.0000      -0.455698       -12.4002
  15   2.0000      -0.436013       -11.8645
  16   2.0000      -0.414322       -11.2743
  17   2.0000      -0.383698       -10.4409
  18   2.0000      -0.371962       -10.1216
  19   2.0000      -0.357453        -9.7268
  20   2.0000      -0.319279        -8.6880
  21   2.0000      -0.313513        -8.5311
  22   2.0000      -0.311730        -8.4826
  23   2.0000      -0.262953        -7.1553
  24   2.0000      -0.260628        -7.0921
  25   0.0000       0.006795         0.1849
  26   0.0000       0.092658         2.5214
  27   0.0000       0.103261         2.8099
  28   0.0000       0.112678         3.0661
  29   0.0000       0.126810         3.4507

MULLIKEN ATOMIC CHARGES
-----------------------
   0 C :   -0.476626
   1 C :   -0.239759
   2 C :   -0.255532
   3 C :   -0.178436
   4 Cl:   -0.202137
   5 H :    0.146824
   6 H :    0.145348
   7 H :    0.148791
   8 H :    0.135115
   9 H :    0.148137
  10 H :    0.149819
  11 H :    0.156950
  12 H :    0.163717
  13 H :    0.157789
Sum of atomic charges:    0.0000000

LOEWDIN ATOMIC CHARGES
----------------------
   0 C :   -0.425614
   1 C :   -0.316224
   2 C :   -0.332320
   3 C :   -0.322205
   4 Cl:   -0.003689
   5 H :    0.152173
   6 H :    0.148036
   7 H :    0.153207
   8 H :    0.152694
   9 H :    0.156537
  10 H :    0.160495
  11 H :    0.162301
  12 H :    0.157475
  13 H :    0.157135

  Mayer bond orders larger than 0.100000
B(  0-C ,  1-C ) :   0.9007 B(  0-C ,  5-H ) :   0.9783 B(  0-C ,  6-H ) :   0.9831
B(  0-C ,  7-H ) :   0.9673 B(  1-C ,  2-C ) :   0.8898 B(  1-C ,  8-H ) :   0.9761
B(  1-C ,  9-H ) :   0.9638 B(  2-C ,  3-C ) :   0.9337 B(  2-C , 10-H ) :   0.9727
B(  2-C , 11-H ) :   0.9624 B(  3-C ,  4-Cl) :   0.9775 B(  3-C , 12-H ) :   0.9629
B(  3-C , 13-H ) :   0.9587

Dispersion correction           -0.003272873
FINAL SINGLE POINT ENERGY      -617.968373010368

DIPOLE MOMENT
-------------

Method             : SCF
Type of density    : Electron Density
Multiplicity       :   1
Irrep              :   0
Energy             :  -617.9740095150102661 Eh
Relativity type    :
Basis              : AO
                                X                 Y                 Z
Electronic contribution:     14.493977910      -0.042386370      -0.384880676
Nuclear contribution   :    -15.423151405      -0.106051109       0.383987494
                        -----------------------------------------
Total Dipole Moment    :     -0.929173495      -0.148437479      -0.000893182
                        -----------------------------------------
Magnitude (a.u.)       :      0.940955827
Magnitude (Debye)      :      2.391719638

Rotational constants in cm-1:             0.415576             0.049733             0.047362
Rotational constants in MHz :         12458.661065          1490.972320          1419.882755

                             ****ORCA TERMINATED NORMALLY****
TOTAL RUN TIME: 0 days 0 hours 0 minutes 18 seconds 440 msec
