                         Program Version 6.0.0  -   RELEASE  -
|  1> ! r2scan-3c def2/J RI DEFGRID2 scfconv6 printgap
|  2> %output
|  3>     printlevel normal
|  4> end
|  5> %cpcm
|  6>     smd true
|  7>     smdsolvent "water"
|  8> end
|  9> * xyz 0 1
| 10> C -2.7064384255 0.382193567 -0.5551570103
| 11> C -1.9940216337 -0.2649724715 0.6273691105
| 12> C -0.5264161869 0.1542795366 0.7519156325
| 13> C 0.3133165246 -0.3704636018 -0.3996438481
| 14> Cl 2.0486723789 0.0353044924 -0.1493677083
| 15> H -2.6078310489 1.4641868604 -0.5125826491
| 16> H -2.297032739 0.0338177342 -1.499166967
| 17> H -3.7645741546 0.1343494485 -0.5339854528
| 18> H -2.0529897862 -1.3511794056 0.5393643766
| 19> H -2.5048233767 0.022023883 1.5478576972
| 20> H -0.4574413212 1.2429629899 0.7842412169
| 21> H -0.1226857329 -0.2355989289 1.6881331763
| 22> H 0.036499385 0.0826407349 -1.3487023789
| 23> H 0.2621622876 -1.4557366257 -0.4695520799
| 24> *
| 25>
| 26>                          ****END OF INPUT****

CARTESIAN COORDINATES (ANGSTROEM)
---------------------------------
  C     -2.706438    0.382194   -0.555157
  C     -1.994022   -0.264972    0.627369
  C     -0.526416    0.154280    0.751916
  C      0.313317   -0.370464   -0.399644
  Cl     2.048672    0.035304   -0.149368
  H     -2.607831    1.464187   -0.512583
  H     -2.297033    0.033818   -1.499167
  H     -3.764574    0.134349   -0.533985
  H     -2.052990   -1.351179    0.539364
  H     -2.504823    0.022024    1.547858
  H     -0.457441    1.242963    0.784241
  H     -0.122686   -0.235599    1.688133
  H      0.036499    0.082641   -1.348702
  H      0.262162   -1.455737   -0.469552

 Total Charge           Charge          ....    0
 Multiplicity           Mult            ....    1
 Number of Electrons    NEL             ....   50
 Basis Dimension        Dim             ....  148

ORBITAL ENERGIES
----------------

  NO   OCC          E(Eh)            E(eV)
   0   2.0000    -101.198187     -2753.7427
   1   2.0000     -10.079882      -274.2875
   2   2.0000     -10.026907      -272.8460
   3   2.0000     -10.022523      -272.7267
   4   2.0000     -10.008775      -272.3526
   5   2.0000      -9.354593      -254.5514
   6   2.0000      -7.100374      -193.2110
   7   2.0000      -7.090833      -192.9514
   8   2.0000      -7.090805      -192.9506
   9   2.0000      -0.816893       -22.2288
  10   2.0000      -0.749337       -20.3905
  11   2.0000      -0.669229       -18.2107
  12   2.0000      -0.596410       -16.2291
  13   2.0000      -0.536382       -14.5957
  14   2.0000      -0.441810       -12.0223
  15   2.0000      -0.422695       -11.5021
  16   2.0000      -0.401170       -10.9164
  17   2.0000      -0.370466       -10.0809
  18   2.0000      -0.362147        -9.8545
  19   2.0000      -0.343046        -9.3347
  20   2.0000      -0.306404        -8.3377
  21   2.0000      -0.297907        -8.1065
  22   2.0000      -0.296225        -8.0607
  23   2.0000      -0.264240        -7.1903
  24   2.0000      -0.260632        -7.0922
  25   0.0000       0.011801         0.3211
  26   0.0000       0.107358         2.9214
  27   0.0000       0.115752         3.1498
  28   0.0000       0.128320         3.4918
  29   0.0000       0.144308         3.9268

MULLIKEN ATOMIC CHARGES
-----------------------
   0 C :   -0.513769
   1 C :   -0.251081
   2 C :   -0.268136
   3 C :   -0.184316
   4 Cl:   -0.251709
   5 H :    0.155263
   6 H :    0.160227
   7 H :    0.156389
   8 H :    0.148074
   9 H :    0.157486
  10 H :    0.159128
  11 H :    0.162084
  12 H :    0.187438
  13 H :    0.182923
Sum of atomic charges:    0.0000000

LOEWDIN ATOMIC CHARGES
----------------------
   0 C :   -0.433005
   1 C :   -0.314671
   2 C :   -0.333830
   3 C :   -0.316460
   4 Cl:   -0.037504
   5 H :    0.153963
   6 H :    0.152671
   7 H :    0.154201
   8 H :    0.156981
   9 H :    0.159121
  10 H :    0.162211
  11 H :    0.162901
  12 H :    0.166751
  13 H :    0.166671

  Mayer bond orders larger than 0.100000
B(  0-C ,  1-C ) :   0.8970 B(  0-C ,  5-H ) :   0.9765 B(  0-C ,  6-H ) :   0.9791
B(  0-C ,  7-H ) :   0.9664 B(  1-C ,  2-C ) :   0.8922 B(  1-C ,  8-H ) :   0.9763
B(  1-C ,  9-H ) :   0.9643 B(  2-C ,  3-C ) :   0.9305 B(  2-C , 10-H ) :   0.9720
B(  2-C , 11-H ) :   0.9621 B(  3-C ,  4-Cl) :   0.9346 B(  3-C , 12-H ) :   0.9549
B(  3-C , 13-H ) :   0.9521

Dispersion correction           -0.003272873
FINAL SINGLE POINT ENERGY      -617.970247748513

DIPOLE MOMENT
-------------

Method             : SCF
Type of density    : Electron Density
Multiplicity       :   1
Irrep              :   0
Energy             :  -617.9758842531555274 Eh
Relativity type    :
Basis              : AO
                                X                 Y                 Z
Electronic contribution:     14.255681803      -0.121221860      -0.432948330
Nuclear contribution   :    -15.423151405      -0.106051109       0.383987494
                        -----------------------------------------
Total Dipole Moment    :     -1.167469602      -0.227272969      -0.048960836
                        -----------------------------------------
Magnitude (a.u.)       :      1.190392976
Magnitude (Debye)      :      3.025738487

Rotational constants in cm-1:             0.415576             0.049733             0.047362
Rotational constants in MHz :         12458.661065          1490.972320          1419.882755

                             ****ORCA TERMINATED NORMALLY****
TOTAL RUN TIME: 0 days 0 hours 0 minutes 23 seconds 687 msec
