                         Program Version 6.0.0  -   RELEASE  -
|  1> ! pbe def2-sv(p) def2/J RI DEFGRID1 loosescf d4 GCP(DFT/SV(P)) printgap
|  2> %output
|  3>     printlevel normal
|  4> end
|  5> * xyz 0 1
|  6> C -2.1453288646 -0.788580559 0.3774900415
|  7> C -1.238091405 -0.2039389416 -0.6878280391
|  8> S -0.0001430751 0.9558612947 -0.0006327414
|  9> C 1.2390146235 -0.2017740474 0.6882439193
| 10> C 2.1446865143 -0.7898101151 -0.3766029215
| 11> H -2.8895450867 -1.4313115504 -0.086966413
| 12> H -1.5777676681 -1.3800350159 1.0925947346
| 13> H -2.6536975132 0.007819274 0.9155305552
| 14> H -1.8052734567 0.3969961356 -1.3970406449
| 15> H -0.6966831773 -0.977324956 -1.2301524008
| 16> H 1.807460319 0.4016529014 1.3944063883
| 17> H 0.6985975519 -0.9733961006 1.2340750807
| 18> H 2.8909321146 -1.4290899945 0.0891939288
| 19> H 1.5766480855 -1.385574979 -1.0877339192
| 20> H 2.6505335022 0.0050411194 -0.9193051277
| 21> *
| 22>
| 23>                          ****END OF INPUT****

CARTESIAN COORDINATES (ANGSTROEM)
---------------------------------
  C     -2.145329   -0.788581    0.377490
  C     -1.238091   -0.203939   -0.687828
  S     -0.000143    0.955861   -0.000633
  C      1.239015   -0.201774    0.688244
  C      2.144687   -0.789810   -0.376603
  H     -2.889545   -1.431312   -0.086966
  H     -1.577768   -1.380035    1.092595
  H     -2.653698    0.007819    0.915531
  H     -1.805273    0.396996   -1.397041
  H     -0.696683   -0.977325   -1.230152
  H      1.807460    0.401653    1.394406
  H      0.698598   -0.973396    1.234075
  H      2.890932   -1.429090    0.089194
  H      1.576648   -1.385575   -1.087734
  H      2.650534    0.005041   -0.919305

 Total Charge           Charge          ....    0
 Multiplicity           Mult            ....    1
 Number of Electrons    NEL             ....   50
 Basis Dimension        Dim             ....   94

ORBITAL ENERGIES
----------------

  NO   OCC          E(Eh)            E(eV)
   0   2.0000     -88.006415     -2394.7763
   1   2.0000      -9.912361      -269.7291
   2   2.0000      -9.912274      -269.7267
   3   2.0000      -9.880223      -268.8545
   4   2.0000      -9.880205      -268.8540
   5   2.0000      -7.650467      -208.1798
   6   2.0000      -5.679255      -154.5404
   7   2.0000      -5.675124      -154.4280
   8   2.0000      -5.666619      -154.1965
   9   2.0000      -0.735596       -20.0166
  10   2.0000      -0.686877       -18.6909
  11   2.0000      -0.616128       -16.7657
  12   2.0000      -0.560189       -15.2435
  13   2.0000      -0.502680       -13.6786
  14   2.0000      -0.426612       -11.6087
  15   2.0000      -0.411356       -11.1936
  16   2.0000      -0.384367       -10.4592
  17   2.0000      -0.366693        -9.9782
  18   2.0000      -0.351921        -9.5762
  19   2.0000      -0.337378        -9.1805
  20   2.0000      -0.322459        -8.7746
  21   2.0000      -0.315258        -8.5786
  22   2.0000      -0.293343        -7.9823
  23   2.0000      -0.257013        -6.9937
  24   2.0000      -0.176570        -4.8047
  25   0.0000       0.026360         0.7173
  26   0.0000       0.029470         0.8019
  27   0.0000       0.059906         1.6301
  28   0.0000       0.067423         1.8347
  29   0.0000       0.077498         2.1088

MULLIKEN ATOMIC CHARGES
-----------------------
   0 C :   -0.245757
   1 C :   -0.304366
   2 S :   -0.072017
   3 C :   -0.304350
   4 C :   -0.245898
   5 H :    0.103600
   6 H :    0.109939
   7 H :    0.111226
   8 H :    0.133536
   9 H :    0.127801
  10 H :    0.133540
  11 H :    0.127854
  12 H :    0.103619
  13 H :    0.110021
  14 H :    0.111253
Sum of atomic charges:   -0.0000000

LOEWDIN ATOMIC CHARGES
----------------------
   0 C :   -0.359096
   1 C :   -0.339825
   2 S :    0.184879
   3 C :   -0.339799
   4 C :   -0.359114
   5 H :    0.120900
   6 H :    0.117683
   7 H :    0.122547
   8 H :    0.126986
   9 H :    0.118342
  10 H :    0.126999
  11 H :    0.118333
  12 H :    0.120935
  13 H :    0.117679
  14 H :    0.122552

  Mayer bond orders larger than 0.100000
B(  0-C ,  1-C ) :   1.1152 B(  0-C ,  5-H ) :   0.9376 B(  0-C ,  6-H ) :   0.9508
B(  0-C ,  7-H ) :   0.9525 B(  1-C ,  2-S ) :   1.0458 B(  1-C ,  8-H ) :   0.9286
B(  1-C ,  9-H ) :   0.9187 B(  2-S ,  3-C ) :   1.0459 B(  3-C ,  4-C ) :   1.1152
B(  3-C , 10-H ) :   0.9286 B(  3-C , 11-H ) :   0.9187 B(  4-C , 12-H ) :   0.9376
B(  4-C , 13-H ) :   0.9508 B(  4-C , 14-H ) :   0.9525

Dispersion correction           -0.011318418
FINAL SINGLE POINT ENERGY      -555.917387845054

DIPOLE MOMENT
-------------

Method             : SCF
Type of density    : Electron Density
Multiplicity       :   1
Irrep              :   0
Energy             :  -555.9660795444632413 Eh
Relativity type    :
Basis              : AO
                                X                 Y                 Z
Electronic contribution:     -0.000548422       5.768493397      -0.003895205
Nuclear contribution   :      0.001134250      -6.374073814       0.004335598
                        -----------------------------------------
Total Dipole Moment    :      0.000585828      -0.605580417       0.000440393
                        -----------------------------------------
Magnitude (a.u.)       :      0.605580861
Magnitude (Debye)      :      1.539264221

Rotational constants in cm-1:             0.207240             0.077737             0.068407
Rotational constants in MHz :          6212.899829          2330.498516          2050.786069

                             ****ORCA TERMINATED NORMALLY****
TOTAL RUN TIME: 0 days 0 hours 0 minutes 6 seconds 607 msec
