                         Program Version 6.0.0  -   RELEASE  -
|  1> ! r2scan-3c def2/J RI DEFGRID2 scfconv6 printgap
|  2> %output
|  3>     printlevel normal
|  4> end
|  5> * xyz 0 1
|  6> C 2.2586249621 -1.0036418612 -0.6772794827
|  7> C 1.6017454383 0.3309947801 -0.3476463471
|  8> C 0.3521958737 0.204645523 0.5365867757
|  9> H 0.6309266901 -0.3335952993 1.4516494339
| 10> C -0.8154853022 -0.563208768 -0.1219827649
| 11> C -1.9151265647 -0.7994690859 0.9132268183
| 12> C -1.3916364565 0.1578079416 -1.3401680768
| 13> O -0.0497350885 1.4825384334 1.0009419009
| 14> H 3.20368487 -0.8343789441 -1.1869868699
| 15> H 1.6266225442 -1.6034482119 -1.3263861742
| 16> H 2.4540177278 -1.5665988117 0.2323474497
| 17> H 2.3133032167 0.9561381703 0.1975743695
| 18> H 1.3464830822 0.8533108504 -1.2717965566
| 19> H -0.4256201628 -1.5341961677 -0.439360741
| 20> H -1.5431780296 -1.4081181203 1.7341131418
| 21> H -2.2522504716 0.1510915039 1.3208253275
| 22> H -2.7626910376 -1.3076441172 0.4606516165
| 23> H -2.1722768897 -0.4522382964 -1.7882095308
| 24> H -0.6297966997 0.335351186 -2.0946698533
| 25> H -1.836087634 1.1074262903 -1.0504478534
| 26> H -0.2399487248 2.0384614522 0.2326646654
| 27> *
| 28>
| 29>                          ****END OF INPUT****

CARTESIAN COORDINATES (ANGSTROEM)
---------------------------------
  C      2.258625   -1.003642   -0.677279
  C      1.601745    0.330995   -0.347646
  C      0.352196    0.204646    0.536587
  H      0.630927   -0.333595    1.451649
  C     -0.815485   -0.563209   -0.121983
  C     -1.915127   -0.799469    0.913227
  C     -1.391636    0.157808   -1.340168
  O     -0.049735    1.482538    1.000942
  H      3.203685   -0.834379   -1.186987
  H      1.626623   -1.603448   -1.326386
  H      2.454018   -1.566599    0.232347
  H      2.313303    0.956138    0.197574
  H      1.346483    0.853311   -1.271797
  H     -0.425620   -1.534196   -0.439361
  H     -1.543178   -1.408118    1.734113
  H     -2.252250    0.151092    1.320825
  H     -2.762691   -1.307644    0.460652
  H     -2.172277   -0.452238   -1.788210
  H     -0.629797    0.335351   -2.094670
  H     -1.836088    1.107426   -1.050448
  H     -0.239949    2.038461    0.232665

 Total Charge           Charge          ....    0
 Multiplicity           Mult            ....    1
 Number of Electrons    NEL             ....   58
 Basis Dimension        Dim             ....  208

ORBITAL ENERGIES
----------------

  NO   OCC          E(Eh)            E(eV)
   0   2.0000     -18.943986      -515.4921
   1   2.0000     -10.075729      -274.1745
   2   2.0000     -10.032930      -273.0099
   3   2.0000     -10.026201      -272.8268
   4   2.0000     -10.021813      -272.7074
   5   2.0000     -10.021588      -272.7013
   6   2.0000     -10.010527      -272.4003
   7   2.0000      -0.983049       -26.7501
   8   2.0000      -0.771917       -21.0049
   9   2.0000      -0.732512       -19.9327
  10   2.0000      -0.653551       -17.7840
  11   2.0000      -0.637511       -17.3476
  12   2.0000      -0.574006       -15.6195
  13   2.0000      -0.533077       -14.5058
  14   2.0000      -0.451303       -12.2806
  15   2.0000      -0.446083       -12.1385
  16   2.0000      -0.423397       -11.5212
  17   2.0000      -0.408331       -11.1112
  18   2.0000      -0.386384       -10.5141
  19   2.0000      -0.369590       -10.0571
  20   2.0000      -0.354811        -9.6549
  21   2.0000      -0.348509        -9.4834
  22   2.0000      -0.340401        -9.2628
  23   2.0000      -0.321835        -8.7576
  24   2.0000      -0.311168        -8.4673
  25   2.0000      -0.303606        -8.2615
  26   2.0000      -0.295919        -8.0524
  27   2.0000      -0.274519        -7.4700
  28   2.0000      -0.231040        -6.2869
  29   0.0000       0.056781         1.5451
  30   0.0000       0.083444         2.2706
  31   0.0000       0.106297         2.8925
  32   0.0000       0.121824         3.3150
  33   0.0000       0.126680         3.4471

MULLIKEN ATOMIC CHARGES
-----------------------
   0 C :   -0.501412
   1 C :   -0.251589
   2 C :   -0.037613
   3 H :    0.147770
   4 C :    0.042567
   5 C :   -0.524411
   6 C :   -0.560641
   7 O :   -0.427586
   8 H :    0.149714
   9 H :    0.150062
  10 H :    0.150163
  11 H :    0.162371
  12 H :    0.133075
  13 H :    0.148699
  14 H :    0.143832
  15 H :    0.177398
  16 H :    0.142696
  17 H :    0.154901
  18 H :    0.153603
  19 H :    0.148964
  20 H :    0.297436
Sum of atomic charges:    0.0000000

LOEWDIN ATOMIC CHARGES
----------------------
   0 C :   -0.420744
   1 C :   -0.291825
   2 C :    0.053618
   3 H :    0.184755
   4 C :   -0.226381
   5 C :   -0.409884
   6 C :   -0.417134
   7 O :   -0.609549
   8 H :    0.152836
   9 H :    0.149000
  10 H :    0.152980
  11 H :    0.164716
  12 H :    0.153029
  13 H :    0.161240
  14 H :    0.154299
  15 H :    0.165534
  16 H :    0.150603
  17 H :    0.158148
  18 H :    0.153566
  19 H :    0.153731
  20 H :    0.267461

  Mayer bond orders larger than 0.100000
B(  0-C ,  1-C ) :   0.8778 B(  0-C ,  8-H ) :   0.9674 B(  0-C ,  9-H ) :   0.9793
B(  0-C , 10-H ) :   0.9835 B(  1-C ,  2-C ) :   0.9408 B(  1-C , 11-H ) :   0.9755
B(  1-C , 12-H ) :   0.9714 B(  2-C ,  3-H ) :   0.9754 B(  2-C ,  4-C ) :   0.8690
B(  2-C ,  7-O ) :   0.9289 B(  4-C ,  5-C ) :   0.9043 B(  4-C ,  6-C ) :   0.8467
B(  4-C , 13-H ) :   0.9528 B(  5-C , 14-H ) :   0.9747 B(  5-C , 15-H ) :   0.9852
B(  5-C , 16-H ) :   0.9781 B(  6-C , 17-H ) :   0.9686 B(  6-C , 18-H ) :   0.9783
B(  6-C , 19-H ) :   0.9859 B(  7-O , 20-H ) :   0.8942

Dispersion correction           -0.005728296
FINAL SINGLE POINT ENERGY      -312.202859251509

DIPOLE MOMENT
-------------

Method             : SCF
Type of density    : Electron Density
Multiplicity       :   1
Irrep              :   0
Energy             :  -312.2084084727162008 Eh
Relativity type    :
Basis              : AO
                                X                 Y                 Z
Electronic contribution:      0.355322863       3.149023176       2.708284411
Nuclear contribution   :     -0.269814219      -3.353921824      -3.295015864
                        -----------------------------------------
Total Dipole Moment    :      0.085508644      -0.204898648      -0.586731453
                        -----------------------------------------
Magnitude (a.u.)       :      0.627334825
Magnitude (Debye)      :      1.594558402

Rotational constants in cm-1:             0.109084             0.059708             0.052442
Rotational constants in MHz :          3270.241430          1790.003397          1572.182320

                             ****ORCA TERMINATED NORMALLY****
TOTAL RUN TIME: 0 days 0 hours 0 minutes 28 seconds 429 msec
