                         Program Version 6.0.0  -   RELEASE  -
|  1> ! r2scan-3c def2/J RI DEFGRID2 scfconv6 printgap
|  2> %output
|  3>     printlevel normal
|  4> end
|  5> * xyz 0 1
|  6> C -2.7774633487 1.0434002573 0.2642278924
|  7> C -2.2386866205 -0.1278100095 -0.5555565132
|  8> C -2.5988413996 -1.4541947997 0.1115371432
|  9> C -0.730918988 -0.0033904888 -0.8286794587
| 10> C 0.144787063 -0.0185316224 0.4232215714
| 11> C 1.6598089564 0.1093518309 0.1729309166
| 12> C 2.1802946099 -1.0554973286 -0.6728828929
| 13> C 1.9953872947 1.4331507092 -0.518589993
| 14> C 2.3608762176 0.0769428291 1.5366909491
| 15> H -2.4018436212 1.0092117567 1.2836281573
| 16> H -3.8637195154 1.0038350358 0.3046569795
| 17> H -2.4852373748 1.9908330346 -0.1827913164
| 18> H -2.7325111714 -0.1031337474 -1.5353850759
| 19> H -2.223336969 -1.4905602016 1.1309379906
| 20> H -3.6793790025 -1.5743622159 0.1466047861
| 21> H -2.1786954514 -2.2893507077 -0.4442851529
| 22> H -0.4409725803 -0.8279392295 -1.4824462794
| 23> H -0.566350461 0.9278973712 -1.3736080797
| 24> H -0.026066417 -0.9513359725 0.9636933722
| 25> H -0.1554751866 0.8037030096 1.0752388936
| 26> H 1.7832541043 -1.0141801272 -1.6836149441
| 27> H 3.2655707262 -1.0155888925 -0.7365794737
| 28> H 1.8983462501 -2.0071498816 -0.2278071194
| 29> H 1.6036519516 1.4562957847 -1.5320697993
| 30> H 1.576284092 2.2706075879 0.034973472
| 31> H 3.0741429339 1.5636952799 -0.5723924482
| 32> H 2.1485135938 -0.8556689436 2.0547718932
| 33> H 2.0221319747 0.9005381802 2.1613617488
| 34> H 3.4383712596 0.1618808123 1.4147380776
| 35> *
| 36>
| 37>                          ****END OF INPUT****

CARTESIAN COORDINATES (ANGSTROEM)
---------------------------------
  C     -2.777463    1.043400    0.264228
  C     -2.238687   -0.127810   -0.555557
  C     -2.598841   -1.454195    0.111537
  C     -0.730919   -0.003390   -0.828679
  C      0.144787   -0.018532    0.423222
  C      1.659809    0.109352    0.172931
  C      2.180295   -1.055497   -0.672883
  C      1.995387    1.433151   -0.518590
  C      2.360876    0.076943    1.536691
  H     -2.401844    1.009212    1.283628
  H     -3.863720    1.003835    0.304657
  H     -2.485237    1.990833   -0.182791
  H     -2.732511   -0.103134   -1.535385
  H     -2.223337   -1.490560    1.130938
  H     -3.679379   -1.574362    0.146605
  H     -2.178695   -2.289351   -0.444285
  H     -0.440973   -0.827939   -1.482446
  H     -0.566350    0.927897   -1.373608
  H     -0.026066   -0.951336    0.963693
  H     -0.155475    0.803703    1.075239
  H      1.783254   -1.014180   -1.683615
  H      3.265571   -1.015589   -0.736579
  H      1.898346   -2.007150   -0.227807
  H      1.603652    1.456296   -1.532070
  H      1.576284    2.270608    0.034973
  H      3.074143    1.563695   -0.572392
  H      2.148514   -0.855669    2.054772
  H      2.022132    0.900538    2.161362
  H      3.438371    0.161881    1.414738

 Total Charge           Charge          ....    0
 Multiplicity           Mult            ....    1
 Number of Electrons    NEL             ....   74
 Basis Dimension        Dim             ....  271

ORBITAL ENERGIES
----------------

  NO   OCC          E(Eh)            E(eV)
   0   2.0000     -10.038593      -273.1640
   1   2.0000     -10.030495      -272.9437
   2   2.0000     -10.017659      -272.5943
   3   2.0000     -10.017098      -272.5791
   4   2.0000     -10.012052      -272.4418
   5   2.0000     -10.012050      -272.4417
   6   2.0000     -10.011285      -272.4209
   7   2.0000     -10.011258      -272.4202
   8   2.0000     -10.010903      -272.4105
   9   2.0000      -0.794974       -21.6323
  10   2.0000      -0.765331       -20.8257
  11   2.0000      -0.683564       -18.6007
  12   2.0000      -0.649436       -17.6720
  13   2.0000      -0.648695       -17.6519
  14   2.0000      -0.646915       -17.6035
  15   2.0000      -0.600512       -16.3408
  16   2.0000      -0.516209       -14.0468
  17   2.0000      -0.490824       -13.3560
  18   2.0000      -0.437513       -11.9053
  19   2.0000      -0.431320       -11.7368
  20   2.0000      -0.410710       -11.1760
  21   2.0000      -0.401388       -10.9223
  22   2.0000      -0.401253       -10.9186
  23   2.0000      -0.390394       -10.6232
  24   2.0000      -0.367355        -9.9962
  25   2.0000      -0.360382        -9.8065
  26   2.0000      -0.350397        -9.5348
  27   2.0000      -0.335277        -9.1233
  28   2.0000      -0.332128        -9.0377
  29   2.0000      -0.329002        -8.9526
  30   2.0000      -0.312239        -8.4965
  31   2.0000      -0.304353        -8.2819
  32   2.0000      -0.298201        -8.1145
  33   2.0000      -0.292678        -7.9642
  34   2.0000      -0.280450        -7.6314
  35   2.0000      -0.272155        -7.4057
  36   2.0000      -0.266183        -7.2432
  37   0.0000       0.071936         1.9575
  38   0.0000       0.086828         2.3627
  39   0.0000       0.107145         2.9156
  40   0.0000       0.115675         3.1477
  41   0.0000       0.120512         3.2793

MULLIKEN ATOMIC CHARGES
-----------------------
   0 C :   -0.520124
   1 C :    0.016630
   2 C :   -0.519680
   3 C :   -0.306956
   4 C :   -0.344603
   5 C :    0.172940
   6 C :   -0.526402
   7 C :   -0.527012
   8 C :   -0.488246
   9 H :    0.153976
  10 H :    0.146836
  11 H :    0.147965
  12 H :    0.148364
  13 H :    0.154025
  14 H :    0.146824
  15 H :    0.147912
  16 H :    0.150106
  17 H :    0.150251
  18 H :    0.154079
  19 H :    0.153959
  20 H :    0.157320
  21 H :    0.152834
  22 H :    0.154846
  23 H :    0.157287
  24 H :    0.154993
  25 H :    0.152879
  26 H :    0.151948
  27 H :    0.151955
  28 H :    0.155095
Sum of atomic charges:   -0.0000000

LOEWDIN ATOMIC CHARGES
----------------------
   0 C :   -0.419650
   1 C :   -0.246426
   2 C :   -0.419605
   3 C :   -0.299676
   4 C :   -0.293419
   5 C :   -0.213234
   6 C :   -0.408665
   7 C :   -0.408739
   8 C :   -0.409436
   9 H :    0.151958
  10 H :    0.153093
  11 H :    0.153799
  12 H :    0.154602
  13 H :    0.152005
  14 H :    0.153079
  15 H :    0.153802
  16 H :    0.158830
  17 H :    0.158902
  18 H :    0.162036
  19 H :    0.162042
  20 H :    0.155253
  21 H :    0.156566
  22 H :    0.157266
  23 H :    0.155256
  24 H :    0.157289
  25 H :    0.156590
  26 H :    0.156046
  27 H :    0.156046
  28 H :    0.154391

  Mayer bond orders larger than 0.100000
B(  0-C ,  1-C ) :   0.9048 B(  0-C ,  9-H ) :   0.9840 B(  0-C , 10-H ) :   0.9710
B(  0-C , 11-H ) :   0.9745 B(  1-C ,  2-C ) :   0.9046 B(  1-C ,  3-C ) :   0.9084
B(  1-C , 12-H ) :   0.9661 B(  2-C , 13-H ) :   0.9840 B(  2-C , 14-H ) :   0.9710
B(  2-C , 15-H ) :   0.9745 B(  3-C ,  4-C ) :   0.8748 B(  3-C , 16-H ) :   0.9788
B(  3-C , 17-H ) :   0.9789 B(  4-C ,  5-C ) :   0.8898 B(  4-C , 18-H ) :   0.9814
B(  4-C , 19-H ) :   0.9814 B(  5-C ,  6-C ) :   0.9173 B(  5-C ,  7-C ) :   0.9164
B(  5-C ,  8-C ) :   0.9282 B(  6-C , 20-H ) :   0.9769 B(  6-C , 21-H ) :   0.9733
B(  6-C , 22-H ) :   0.9752 B(  7-C , 23-H ) :   0.9768 B(  7-C , 24-H ) :   0.9753
B(  7-C , 25-H ) :   0.9733 B(  8-C , 26-H ) :   0.9790 B(  8-C , 27-H ) :   0.9789
B(  8-C , 28-H ) :   0.9800

Dispersion correction           -0.009076353
FINAL SINGLE POINT ENERGY      -354.888888530522

DIPOLE MOMENT
-------------

Method             : SCF
Type of density    : Electron Density
Multiplicity       :   1
Irrep              :   0
Energy             :  -354.8939658863564546 Eh
Relativity type    :
Basis              : AO
                                X                 Y                 Z
Electronic contribution:     -0.086615943       0.038495340      -0.795303537
Nuclear contribution   :      0.053174199      -0.038250795       0.750178259
                        -----------------------------------------
Total Dipole Moment    :     -0.033441744       0.000244546      -0.045125279
                        -----------------------------------------
Magnitude (a.u.)       :      0.056166723
Magnitude (Debye)      :      0.142764465

Rotational constants in cm-1:             0.088217             0.026318             0.025054
Rotational constants in MHz :          2644.686129           789.004125           751.095330

                             ****ORCA TERMINATED NORMALLY****
TOTAL RUN TIME: 0 days 0 hours 0 minutes 32 seconds 894 msec
