                         Program Version 6.0.0  -   RELEASE  -
|  1> ! r2scan-3c def2/J RI DEFGRID2 scfconv6 printgap
|  2> %output
|  3>     printlevel normal
|  4> end
|  5> %cpcm
|  6>     smd true
|  7>     smdsolvent "water"
|  8> end
|  9> * xyz 0 1
| 10> C -2.7774633487 1.0434002573 0.2642278924
| 11> C -2.2386866205 -0.1278100095 -0.5555565132
| 12> C -2.5988413996 -1.4541947997 0.1115371432
| 13> C -0.730918988 -0.0033904888 -0.8286794587
| 14> C 0.144787063 -0.0185316224 0.4232215714
| 15> C 1.6598089564 0.1093518309 0.1729309166
| 16> C 2.1802946099 -1.0554973286 -0.6728828929
| 17> C 1.9953872947 1.4331507092 -0.518589993
| 18> C 2.3608762176 0.0769428291 1.5366909491
| 19> H -2.4018436212 1.0092117567 1.2836281573
| 20> H -3.8637195154 1.0038350358 0.3046569795
| 21> H -2.4852373748 1.9908330346 -0.1827913164
| 22> H -2.7325111714 -0.1031337474 -1.5353850759
| 23> H -2.223336969 -1.4905602016 1.1309379906
| 24> H -3.6793790025 -1.5743622159 0.1466047861
| 25> H -2.1786954514 -2.2893507077 -0.4442851529
| 26> H -0.4409725803 -0.8279392295 -1.4824462794
| 27> H -0.566350461 0.9278973712 -1.3736080797
| 28> H -0.026066417 -0.9513359725 0.9636933722
| 29> H -0.1554751866 0.8037030096 1.0752388936
| 30> H 1.7832541043 -1.0141801272 -1.6836149441
| 31> H 3.2655707262 -1.0155888925 -0.7365794737
| 32> H 1.8983462501 -2.0071498816 -0.2278071194
| 33> H 1.6036519516 1.4562957847 -1.5320697993
| 34> H 1.576284092 2.2706075879 0.034973472
| 35> H 3.0741429339 1.5636952799 -0.5723924482
| 36> H 2.1485135938 -0.8556689436 2.0547718932
| 37> H 2.0221319747 0.9005381802 2.1613617488
| 38> H 3.4383712596 0.1618808123 1.4147380776
| 39> *
| 40>
| 41>                          ****END OF INPUT****

CARTESIAN COORDINATES (ANGSTROEM)
---------------------------------
  C     -2.777463    1.043400    0.264228
  C     -2.238687   -0.127810   -0.555557
  C     -2.598841   -1.454195    0.111537
  C     -0.730919   -0.003390   -0.828679
  C      0.144787   -0.018532    0.423222
  C      1.659809    0.109352    0.172931
  C      2.180295   -1.055497   -0.672883
  C      1.995387    1.433151   -0.518590
  C      2.360876    0.076943    1.536691
  H     -2.401844    1.009212    1.283628
  H     -3.863720    1.003835    0.304657
  H     -2.485237    1.990833   -0.182791
  H     -2.732511   -0.103134   -1.535385
  H     -2.223337   -1.490560    1.130938
  H     -3.679379   -1.574362    0.146605
  H     -2.178695   -2.289351   -0.444285
  H     -0.440973   -0.827939   -1.482446
  H     -0.566350    0.927897   -1.373608
  H     -0.026066   -0.951336    0.963693
  H     -0.155475    0.803703    1.075239
  H      1.783254   -1.014180   -1.683615
  H      3.265571   -1.015589   -0.736579
  H      1.898346   -2.007150   -0.227807
  H      1.603652    1.456296   -1.532070
  H      1.576284    2.270608    0.034973
  H      3.074143    1.563695   -0.572392
  H      2.148514   -0.855669    2.054772
  H      2.022132    0.900538    2.161362
  H      3.438371    0.161881    1.414738

 Total Charge           Charge          ....    0
 Multiplicity           Mult            ....    1
 Number of Electrons    NEL             ....   74
 Basis Dimension        Dim             ....  271

ORBITAL ENERGIES
----------------

  NO   OCC          E(Eh)            E(eV)
   0   2.0000     -10.031198      -272.9628
   1   2.0000     -10.022835      -272.7352
   2   2.0000     -10.008904      -272.3561
   3   2.0000     -10.008202      -272.3370
   4   2.0000     -10.004304      -272.2310
   5   2.0000     -10.004288      -272.2305
   6   2.0000     -10.003334      -272.2046
   7   2.0000     -10.003290      -272.2034
   8   2.0000     -10.003284      -272.2032
   9   2.0000      -0.786996       -21.4153
  10   2.0000      -0.757644       -20.6165
  11   2.0000      -0.675608       -18.3842
  12   2.0000      -0.642145       -17.4737
  13   2.0000      -0.641568       -17.4579
  14   2.0000      -0.639806       -17.4100
  15   2.0000      -0.592615       -16.1259
  16   2.0000      -0.508754       -13.8439
  17   2.0000      -0.483228       -13.1493
  18   2.0000      -0.429692       -11.6925
  19   2.0000      -0.423024       -11.5111
  20   2.0000      -0.403208       -10.9718
  21   2.0000      -0.393657       -10.7119
  22   2.0000      -0.393440       -10.7061
  23   2.0000      -0.382855       -10.4180
  24   2.0000      -0.359720        -9.7885
  25   2.0000      -0.352747        -9.5987
  26   2.0000      -0.342787        -9.3277
  27   2.0000      -0.327518        -8.9122
  28   2.0000      -0.324230        -8.8227
  29   2.0000      -0.321355        -8.7445
  30   2.0000      -0.304337        -8.2814
  31   2.0000      -0.296440        -8.0665
  32   2.0000      -0.290624        -7.9083
  33   2.0000      -0.285189        -7.7604
  34   2.0000      -0.272212        -7.4073
  35   2.0000      -0.264228        -7.1900
  36   2.0000      -0.258177        -7.0254
  37   0.0000       0.080732         2.1968
  38   0.0000       0.095090         2.5875
  39   0.0000       0.115309         3.1377
  40   0.0000       0.123494         3.3604
  41   0.0000       0.128125         3.4865

MULLIKEN ATOMIC CHARGES
-----------------------
   0 C :   -0.560453
   1 C :    0.029562
   2 C :   -0.560110
   3 C :   -0.322557
   4 C :   -0.366523
   5 C :    0.226148
   6 C :   -0.573573
   7 C :   -0.574105
   8 C :   -0.540789
   9 H :    0.164518
  10 H :    0.157271
  11 H :    0.157658
  12 H :    0.153825
  13 H :    0.164507
  14 H :    0.157278
  15 H :    0.157603
  16 H :    0.158072
  17 H :    0.158071
  18 H :    0.162975
  19 H :    0.162987
  20 H :    0.168022
  21 H :    0.163903
  22 H :    0.165340
  23 H :    0.167963
  24 H :    0.165428
  25 H :    0.163934
  26 H :    0.163123
  27 H :    0.163181
  28 H :    0.166740
Sum of atomic charges:   -0.0000000

LOEWDIN ATOMIC CHARGES
----------------------
   0 C :   -0.428207
   1 C :   -0.245309
   2 C :   -0.428165
   3 C :   -0.302014
   4 C :   -0.295540
   5 C :   -0.208752
   6 C :   -0.417188
   7 C :   -0.417247
   8 C :   -0.418693
   9 H :    0.154462
  10 H :    0.154929
  11 H :    0.155969
  12 H :    0.156015
  13 H :    0.154492
  14 H :    0.154921
  15 H :    0.155965
  16 H :    0.160706
  17 H :    0.160749
  18 H :    0.164068
  19 H :    0.164101
  20 H :    0.157714
  21 H :    0.158531
  22 H :    0.159510
  23 H :    0.157715
  24 H :    0.159516
  25 H :    0.158552
  26 H :    0.158152
  27 H :    0.158174
  28 H :    0.156877

  Mayer bond orders larger than 0.100000
B(  0-C ,  1-C ) :   0.8980 B(  0-C ,  9-H ) :   0.9811 B(  0-C , 10-H ) :   0.9698
B(  0-C , 11-H ) :   0.9722 B(  1-C ,  2-C ) :   0.8978 B(  1-C ,  3-C ) :   0.9050
B(  1-C , 12-H ) :   0.9676 B(  2-C , 13-H ) :   0.9811 B(  2-C , 14-H ) :   0.9698
B(  2-C , 15-H ) :   0.9722 B(  3-C ,  4-C ) :   0.8806 B(  3-C , 16-H ) :   0.9771
B(  3-C , 17-H ) :   0.9771 B(  4-C ,  5-C ) :   0.8863 B(  4-C , 18-H ) :   0.9797
B(  4-C , 19-H ) :   0.9797 B(  5-C ,  6-C ) :   0.9068 B(  5-C ,  7-C ) :   0.9061
B(  5-C ,  8-C ) :   0.9095 B(  6-C , 20-H ) :   0.9740 B(  6-C , 21-H ) :   0.9729
B(  6-C , 22-H ) :   0.9737 B(  7-C , 23-H ) :   0.9739 B(  7-C , 24-H ) :   0.9738
B(  7-C , 25-H ) :   0.9729 B(  8-C , 26-H ) :   0.9782 B(  8-C , 27-H ) :   0.9781
B(  8-C , 28-H ) :   0.9783

Dispersion correction           -0.009076353
FINAL SINGLE POINT ENERGY      -354.884541866302

DIPOLE MOMENT
-------------

Method             : SCF
Type of density    : Electron Density
Multiplicity       :   1
Irrep              :   0
Energy             :  -354.8896192221364458 Eh
Relativity type    :
Basis              : AO
                                X                 Y                 Z
Electronic contribution:     -0.090396591       0.038938503      -0.806983174
Nuclear contribution   :      0.053174199      -0.038250795       0.750178259
                        -----------------------------------------
Total Dipole Moment    :     -0.037222392       0.000687708      -0.056804916
                        -----------------------------------------
Magnitude (a.u.)       :      0.067917434
Magnitude (Debye)      :      0.172632398

Rotational constants in cm-1:             0.088217             0.026318             0.025054
Rotational constants in MHz :          2644.686129           789.004125           751.095330

                             ****ORCA TERMINATED NORMALLY****
TOTAL RUN TIME: 0 days 0 hours 0 minutes 43 seconds 828 msec
