                         Program Version 6.0.0  -   RELEASE  -
|  1> ! r2scan-3c def2/J RI DEFGRID2 scfconv6 printgap
|  2> %output
|  3>     printlevel normal
|  4> end
|  5> * xyz 0 1
|  6> C -3.0257616403 0.6052851029 0.0909911995
|  7> C -1.7201463336 -0.1296090896 0.3818384492
|  8> C -1.5264040188 -1.2976158953 -0.5819223637
|  9> C -0.5507845814 0.8545119003 0.2822733217
| 10> O 0.662303564 0.2482064136 0.7447265671
| 11> C 1.6508797392 0.0270755098 -0.1132636131
| 12> O 1.6090889782 0.3311645079 -1.2881569556
| 13> C 2.8200150244 -0.6316172414 0.5568677005
| 14> H -3.8642431974 -0.0805694752 0.1701323179
| 15> H -3.0099634379 1.0169407403 -0.9152728909
| 16> H -3.1757673002 1.4186258458 0.7958214427
| 17> H -1.7420397073 -0.5161047802 1.4058374696
| 18> H -2.3549260415 -1.9957761109 -0.5005975339
| 19> H -0.604797143 -1.8318960973 -0.3597386869
| 20> H -1.4723890456 -0.9378924879 -1.6076535924
| 21> H -0.4075813396 1.1856937361 -0.7511678736
| 22> H -0.7210160579 1.7193851377 0.9277816325
| 23> H 3.6806214273 0.029284897 0.490862757
| 24> H 3.0635325218 -1.5481670546 0.025968735
| 25> H 2.5833466859 -0.8403745309 1.5943028349
| 26> *
| 27>
| 28>                          ****END OF INPUT****

CARTESIAN COORDINATES (ANGSTROEM)
---------------------------------
  C     -3.025762    0.605285    0.090991
  C     -1.720146   -0.129609    0.381838
  C     -1.526404   -1.297616   -0.581922
  C     -0.550785    0.854512    0.282273
  O      0.662304    0.248206    0.744727
  C      1.650880    0.027076   -0.113264
  O      1.609089    0.331165   -1.288157
  C      2.820015   -0.631617    0.556868
  H     -3.864243   -0.080569    0.170132
  H     -3.009963    1.016941   -0.915273
  H     -3.175767    1.418626    0.795821
  H     -1.742040   -0.516105    1.405837
  H     -2.354926   -1.995776   -0.500598
  H     -0.604797   -1.831896   -0.359739
  H     -1.472389   -0.937892   -1.607654
  H     -0.407581    1.185694   -0.751168
  H     -0.721016    1.719385    0.927782
  H      3.680621    0.029285    0.490863
  H      3.063533   -1.548167    0.025969
  H      2.583347   -0.840375    1.594303

 Total Charge           Charge          ....    0
 Multiplicity           Mult            ....    1
 Number of Electrons    NEL             ....   64
 Basis Dimension        Dim             ....  222

ORBITAL ENERGIES
----------------

  NO   OCC          E(Eh)            E(eV)
   0   2.0000     -18.997945      -516.9604
   1   2.0000     -18.926554      -515.0177
   2   2.0000     -10.155742      -276.3518
   3   2.0000     -10.084831      -274.4222
   4   2.0000     -10.044303      -273.3194
   5   2.0000     -10.038867      -273.1714
   6   2.0000     -10.025865      -272.8176
   7   2.0000     -10.019046      -272.6321
   8   2.0000      -1.071916       -29.1683
   9   2.0000      -0.975400       -26.5420
  10   2.0000      -0.783945       -21.3322
  11   2.0000      -0.727970       -19.8091
  12   2.0000      -0.663341       -18.0504
  13   2.0000      -0.657430       -17.8896
  14   2.0000      -0.554759       -15.0958
  15   2.0000      -0.529013       -14.3952
  16   2.0000      -0.466780       -12.7017
  17   2.0000      -0.452867       -12.3231
  18   2.0000      -0.442907       -12.0521
  19   2.0000      -0.426313       -11.6006
  20   2.0000      -0.408829       -11.1248
  21   2.0000      -0.391027       -10.6404
  22   2.0000      -0.378367       -10.2959
  23   2.0000      -0.363188        -9.8828
  24   2.0000      -0.356125        -9.6907
  25   2.0000      -0.351099        -9.5539
  26   2.0000      -0.322604        -8.7785
  27   2.0000      -0.319874        -8.7042
  28   2.0000      -0.310611        -8.4522
  29   2.0000      -0.298632        -8.1262
  30   2.0000      -0.265513        -7.2250
  31   2.0000      -0.237013        -6.4495
  32   0.0000      -0.014052        -0.3824
  33   0.0000       0.073350         1.9960
  34   0.0000       0.081595         2.2203
  35   0.0000       0.118605         3.2274
  36   0.0000       0.125843         3.4244

MULLIKEN ATOMIC CHARGES
-----------------------
   0 C :   -0.482868
   1 C :   -0.006596
   2 C :   -0.494110
   3 C :   -0.243718
   4 O :   -0.167756
   5 C :    0.436075
   6 O :   -0.432729
   7 C :   -0.522089
   8 H :    0.151340
   9 H :    0.152360
  10 H :    0.145273
  11 H :    0.148005
  12 H :    0.147658
  13 H :    0.149355
  14 H :    0.160762
  15 H :    0.193212
  16 H :    0.146305
  17 H :    0.174202
  18 H :    0.172873
  19 H :    0.172446
Sum of atomic charges:   -0.0000000

LOEWDIN ATOMIC CHARGES
----------------------
   0 C :   -0.410174
   1 C :   -0.219226
   2 C :   -0.406553
   3 C :    0.040150
   4 O :   -0.602058
   5 C :    0.354104
   6 O :   -0.441624
   7 C :   -0.335868
   8 H :    0.157480
   9 H :    0.157003
  10 H :    0.154309
  11 H :    0.161856
  12 H :    0.153731
  13 H :    0.160128
  14 H :    0.160249
  15 H :    0.201073
  16 H :    0.181512
  17 H :    0.180641
  18 H :    0.179345
  19 H :    0.173924

  Mayer bond orders larger than 0.100000
B(  0-C ,  1-C ) :   0.9165 B(  0-C ,  8-H ) :   0.9701 B(  0-C ,  9-H ) :   0.9819
B(  0-C , 10-H ) :   0.9720 B(  1-C ,  2-C ) :   0.9019 B(  1-C ,  3-C ) :   0.9386
B(  1-C , 11-H ) :   0.9499 B(  2-C , 12-H ) :   0.9733 B(  2-C , 13-H ) :   0.9670
B(  2-C , 14-H ) :   0.9784 B(  3-C ,  4-O ) :   0.8045 B(  3-C , 15-H ) :   0.9759
B(  3-C , 16-H ) :   0.9576 B(  4-O ,  5-C ) :   1.0459 B(  5-C ,  6-O ) :   1.8301
B(  5-C ,  7-C ) :   0.9461 B(  7-C , 17-H ) :   0.9511 B(  7-C , 18-H ) :   0.9532
B(  7-C , 19-H ) :   0.9868

Dispersion correction           -0.005288496
FINAL SINGLE POINT ENERGY      -386.237782939522

DIPOLE MOMENT
-------------

Method             : SCF
Type of density    : Electron Density
Multiplicity       :   1
Irrep              :   0
Energy             :  -386.2445247517152893 Eh
Relativity type    :
Basis              : AO
                                X                 Y                 Z
Electronic contribution:      7.155731513       2.066301397      -0.431960488
Nuclear contribution   :     -7.495316040      -2.225043345       1.189302139
                        -----------------------------------------
Total Dipole Moment    :     -0.339584527      -0.158741948       0.757341652
                        -----------------------------------------
Magnitude (a.u.)       :      0.845034339
Magnitude (Debye)      :      2.147906593

Rotational constants in cm-1:             0.145068             0.034886             0.034069
Rotational constants in MHz :          4349.039115          1045.847906          1021.375782

                             ****ORCA TERMINATED NORMALLY****
TOTAL RUN TIME: 0 days 0 hours 0 minutes 33 seconds 633 msec
