                         Program Version 6.0.0  -   RELEASE  -
|  1> ! r2scan-3c def2/J RI DEFGRID2 scfconv6 printgap
|  2> %output
|  3>     printlevel normal
|  4> end
|  5> %cpcm
|  6>     smd true
|  7>     smdsolvent "water"
|  8> end
|  9> * xyz 0 1
| 10> C -3.0257616403 0.6052851029 0.0909911995
| 11> C -1.7201463336 -0.1296090896 0.3818384492
| 12> C -1.5264040188 -1.2976158953 -0.5819223637
| 13> C -0.5507845814 0.8545119003 0.2822733217
| 14> O 0.662303564 0.2482064136 0.7447265671
| 15> C 1.6508797392 0.0270755098 -0.1132636131
| 16> O 1.6090889782 0.3311645079 -1.2881569556
| 17> C 2.8200150244 -0.6316172414 0.5568677005
| 18> H -3.8642431974 -0.0805694752 0.1701323179
| 19> H -3.0099634379 1.0169407403 -0.9152728909
| 20> H -3.1757673002 1.4186258458 0.7958214427
| 21> H -1.7420397073 -0.5161047802 1.4058374696
| 22> H -2.3549260415 -1.9957761109 -0.5005975339
| 23> H -0.604797143 -1.8318960973 -0.3597386869
| 24> H -1.4723890456 -0.9378924879 -1.6076535924
| 25> H -0.4075813396 1.1856937361 -0.7511678736
| 26> H -0.7210160579 1.7193851377 0.9277816325
| 27> H 3.6806214273 0.029284897 0.490862757
| 28> H 3.0635325218 -1.5481670546 0.025968735
| 29> H 2.5833466859 -0.8403745309 1.5943028349
| 30> *
| 31>
| 32>                          ****END OF INPUT****

CARTESIAN COORDINATES (ANGSTROEM)
---------------------------------
  C     -3.025762    0.605285    0.090991
  C     -1.720146   -0.129609    0.381838
  C     -1.526404   -1.297616   -0.581922
  C     -0.550785    0.854512    0.282273
  O      0.662304    0.248206    0.744727
  C      1.650880    0.027076   -0.113264
  O      1.609089    0.331165   -1.288157
  C      2.820015   -0.631617    0.556868
  H     -3.864243   -0.080569    0.170132
  H     -3.009963    1.016941   -0.915273
  H     -3.175767    1.418626    0.795821
  H     -1.742040   -0.516105    1.405837
  H     -2.354926   -1.995776   -0.500598
  H     -0.604797   -1.831896   -0.359739
  H     -1.472389   -0.937892   -1.607654
  H     -0.407581    1.185694   -0.751168
  H     -0.721016    1.719385    0.927782
  H      3.680621    0.029285    0.490863
  H      3.063533   -1.548167    0.025969
  H      2.583347   -0.840375    1.594303

 Total Charge           Charge          ....    0
 Multiplicity           Mult            ....    1
 Number of Electrons    NEL             ....   64
 Basis Dimension        Dim             ....  222

ORBITAL ENERGIES
----------------

  NO   OCC          E(Eh)            E(eV)
   0   2.0000     -19.003420      -517.1094
   1   2.0000     -18.942249      -515.4448
   2   2.0000     -10.166014      -276.6313
   3   2.0000     -10.077670      -274.2273
   4   2.0000     -10.034334      -273.0481
   5   2.0000     -10.030074      -272.9322
   6   2.0000     -10.012044      -272.4416
   7   2.0000     -10.010025      -272.3866
   8   2.0000      -1.078952       -29.3598
   9   2.0000      -0.989144       -26.9160
  10   2.0000      -0.775555       -21.1039
  11   2.0000      -0.723072       -19.6758
  12   2.0000      -0.657143       -17.8818
  13   2.0000      -0.646690       -17.5973
  14   2.0000      -0.548936       -14.9373
  15   2.0000      -0.524702       -14.2779
  16   2.0000      -0.466515       -12.6945
  17   2.0000      -0.458912       -12.4876
  18   2.0000      -0.447634       -12.1808
  19   2.0000      -0.418839       -11.3972
  20   2.0000      -0.400594       -10.9007
  21   2.0000      -0.387630       -10.5480
  22   2.0000      -0.373635       -10.1671
  23   2.0000      -0.354107        -9.6357
  24   2.0000      -0.349437        -9.5087
  25   2.0000      -0.341586        -9.2950
  26   2.0000      -0.321497        -8.7484
  27   2.0000      -0.319695        -8.6994
  28   2.0000      -0.301501        -8.2043
  29   2.0000      -0.291236        -7.9249
  30   2.0000      -0.269063        -7.3216
  31   2.0000      -0.253475        -6.8974
  32   0.0000      -0.021221        -0.5775
  33   0.0000       0.077836         2.1180
  34   0.0000       0.092515         2.5175
  35   0.0000       0.126337         3.4378
  36   0.0000       0.133799         3.6409

MULLIKEN ATOMIC CHARGES
-----------------------
   0 C :   -0.529758
   1 C :    0.027803
   2 C :   -0.554227
   3 C :   -0.247862
   4 O :   -0.187318
   5 C :    0.482759
   6 O :   -0.521992
   7 C :   -0.558723
   8 H :    0.164811
   9 H :    0.163619
  10 H :    0.160595
  11 H :    0.159900
  12 H :    0.164629
  13 H :    0.161545
  14 H :    0.168503
  15 H :    0.188964
  16 H :    0.172587
  17 H :    0.199636
  18 H :    0.196303
  19 H :    0.188227
Sum of atomic charges:   -0.0000000

LOEWDIN ATOMIC CHARGES
----------------------
   0 C :   -0.415458
   1 C :   -0.214529
   2 C :   -0.416622
   3 C :    0.044165
   4 O :   -0.603308
   5 C :    0.365073
   6 O :   -0.504767
   7 C :   -0.333750
   8 H :    0.160943
   9 H :    0.159766
  10 H :    0.159019
  11 H :    0.165886
  12 H :    0.158930
  13 H :    0.161424
  14 H :    0.159937
  15 H :    0.200116
  16 H :    0.192446
  17 H :    0.190370
  18 H :    0.188592
  19 H :    0.181767

  Mayer bond orders larger than 0.100000
B(  0-C ,  1-C ) :   0.9101 B(  0-C ,  8-H ) :   0.9672 B(  0-C ,  9-H ) :   0.9806
B(  0-C , 10-H ) :   0.9687 B(  1-C ,  2-C ) :   0.8742 B(  1-C ,  3-C ) :   0.9337
B(  1-C , 11-H ) :   0.9513 B(  2-C , 12-H ) :   0.9694 B(  2-C , 13-H ) :   0.9654
B(  2-C , 14-H ) :   0.9808 B(  3-C ,  4-O ) :   0.7909 B(  3-C , 15-H ) :   0.9722
B(  3-C , 16-H ) :   0.9493 B(  4-O ,  5-C ) :   1.0749 B(  5-C ,  6-O ) :   1.7557
B(  5-C ,  7-C ) :   0.9466 B(  7-C , 17-H ) :   0.9395 B(  7-C , 18-H ) :   0.9432
B(  7-C , 19-H ) :   0.9767

Dispersion correction           -0.005288496
FINAL SINGLE POINT ENERGY      -386.242885029598

DIPOLE MOMENT
-------------

Method             : SCF
Type of density    : Electron Density
Multiplicity       :   1
Irrep              :   0
Energy             :  -386.2496268417907572 Eh
Relativity type    :
Basis              : AO
                                X                 Y                 Z
Electronic contribution:      7.055505080       2.031666577      -0.085926486
Nuclear contribution   :     -7.495316040      -2.225043345       1.189302139
                        -----------------------------------------
Total Dipole Moment    :     -0.439810960      -0.193376768       1.103375653
                        -----------------------------------------
Magnitude (a.u.)       :      1.203439275
Magnitude (Debye)      :      3.058899541

Rotational constants in cm-1:             0.145068             0.034886             0.034069
Rotational constants in MHz :          4349.039115          1045.847906          1021.375782

                             ****ORCA TERMINATED NORMALLY****
TOTAL RUN TIME: 0 days 0 hours 0 minutes 37 seconds 574 msec
