                         Program Version 6.0.0  -   RELEASE  -
|  1> ! pbe def2-sv(p) def2/J RI DEFGRID1 loosescf d4 GCP(DFT/SV(P)) printgap
|  2> %output
|  3>     printlevel normal
|  4> end
|  5> * xyz 0 1
|  6> C 1.5565085101 0.2410699067 -1.1918056423
|  7> C 1.1130049899 -0.2140518213 0.1971574231
|  8> H 0.934749453 -1.2935492787 0.1922349847
|  9> C -0.127702022 0.5192833119 0.7324376855
| 10> C -1.5064833693 0.1423190296 0.164433062
| 11> C -1.7724550556 0.7152937714 -1.2267313008
| 12> C -1.750428653 -1.365376135 0.1751236744
| 13> O 2.1812319313 -0.0599228146 1.1261563242
| 14> H 2.5533970966 -0.1466894846 -1.3915311182
| 15> H 0.8853592893 -0.1354092922 -1.9553265658
| 16> H 1.5828303025 1.3269883588 -1.2502691939
| 17> H -0.1497594746 0.3188791583 1.8078360074
| 18> H 0.0194775288 1.5950052435 0.6017988407
| 19> H -2.2350278002 0.6013727166 0.8445483539
| 20> H -1.5320624588 1.7748870324 -1.2607611661
| 21> H -2.8241197108 0.595891425 -1.4778542565
| 22> H -1.1887332769 0.2018110454 -1.9843418199
| 23> H -2.7943140463 -1.5748637886 -0.0463127282
| 24> H -1.1405110743 -1.8628305717 -0.5748308338
| 25> H -1.5145271983 -1.785797903 1.1498013707
| 26> H 2.4222195909 0.8762672413 1.1654654329
| 27> *
| 28>
| 29>                          ****END OF INPUT****

CARTESIAN COORDINATES (ANGSTROEM)
---------------------------------
  C      1.556509    0.241070   -1.191806
  C      1.113005   -0.214052    0.197157
  H      0.934749   -1.293549    0.192235
  C     -0.127702    0.519283    0.732438
  C     -1.506483    0.142319    0.164433
  C     -1.772455    0.715294   -1.226731
  C     -1.750429   -1.365376    0.175124
  O      2.181232   -0.059923    1.126156
  H      2.553397   -0.146689   -1.391531
  H      0.885359   -0.135409   -1.955327
  H      1.582830    1.326988   -1.250269
  H     -0.149759    0.318879    1.807836
  H      0.019478    1.595005    0.601799
  H     -2.235028    0.601373    0.844548
  H     -1.532062    1.774887   -1.260761
  H     -2.824120    0.595891   -1.477854
  H     -1.188733    0.201811   -1.984342
  H     -2.794314   -1.574864   -0.046313
  H     -1.140511   -1.862831   -0.574831
  H     -1.514527   -1.785798    1.149801
  H      2.422220    0.876267    1.165465

 Total Charge           Charge          ....    0
 Multiplicity           Mult            ....    1
 Number of Electrons    NEL             ....   58
 Basis Dimension        Dim             ....  126

ORBITAL ENERGIES
----------------

  NO   OCC          E(Eh)            E(eV)
   0   2.0000     -18.733531      -509.7653
   1   2.0000      -9.933385      -270.3011
   2   2.0000      -9.896650      -269.3015
   3   2.0000      -9.879318      -268.8299
   4   2.0000      -9.873923      -268.6831
   5   2.0000      -9.873658      -268.6759
   6   2.0000      -9.873118      -268.6612
   7   2.0000      -0.911686       -24.8082
   8   2.0000      -0.731484       -19.9047
   9   2.0000      -0.670587       -18.2476
  10   2.0000      -0.615928       -16.7603
  11   2.0000      -0.610588       -16.6150
  12   2.0000      -0.545090       -14.8326
  13   2.0000      -0.494845       -13.4654
  14   2.0000      -0.435335       -11.8461
  15   2.0000      -0.418657       -11.3922
  16   2.0000      -0.395930       -10.7738
  17   2.0000      -0.393407       -10.7051
  18   2.0000      -0.373188       -10.1550
  19   2.0000      -0.365895        -9.9565
  20   2.0000      -0.347980        -9.4690
  21   2.0000      -0.328989        -8.9522
  22   2.0000      -0.321260        -8.7419
  23   2.0000      -0.315343        -8.5809
  24   2.0000      -0.296043        -8.0558
  25   2.0000      -0.285254        -7.7622
  26   2.0000      -0.276334        -7.5194
  27   2.0000      -0.258648        -7.0382
  28   2.0000      -0.207707        -5.6520
  29   0.0000       0.026188         0.7126
  30   0.0000       0.042067         1.1447
  31   0.0000       0.055651         1.5143
  32   0.0000       0.070722         1.9245
  33   0.0000       0.085667         2.3311

MULLIKEN ATOMIC CHARGES
-----------------------
   0 C :   -0.253980
   1 C :    0.013263
   2 H :    0.073732
   3 C :   -0.135069
   4 C :   -0.161840
   5 C :   -0.247757
   6 C :   -0.260935
   7 O :   -0.431901
   8 H :    0.108150
   9 H :    0.106397
  10 H :    0.082593
  11 H :    0.086301
  12 H :    0.061279
  13 H :    0.071001
  14 H :    0.094668
  15 H :    0.097532
  16 H :    0.100331
  17 H :    0.098828
  18 H :    0.105795
  19 H :    0.104470
  20 H :    0.287140
Sum of atomic charges:   -0.0000000

LOEWDIN ATOMIC CHARGES
----------------------
   0 C :   -0.354328
   1 C :   -0.056890
   2 H :    0.113240
   3 C :   -0.234769
   4 C :   -0.156112
   5 C :   -0.332453
   6 C :   -0.331643
   7 O :   -0.332168
   8 H :    0.123426
   9 H :    0.121696
  10 H :    0.113734
  11 H :    0.119759
  12 H :    0.107653
  13 H :    0.117694
  14 H :    0.115961
  15 H :    0.118493
  16 H :    0.114213
  17 H :    0.119328
  18 H :    0.115969
  19 H :    0.119698
  20 H :    0.277498

  Mayer bond orders larger than 0.100000
B(  0-C ,  1-C ) :   1.1190 B(  0-C ,  8-H ) :   0.9411 B(  0-C ,  9-H ) :   0.9272
B(  0-C , 10-H ) :   0.9396 B(  1-C ,  2-H ) :   0.8962 B(  1-C ,  3-C ) :   1.0780
B(  1-C ,  7-O ) :   1.0227 B(  3-C ,  4-C ) :   1.0722 B(  3-C , 11-H ) :   0.9080
B(  3-C , 12-H ) :   0.9066 B(  4-C ,  5-C ) :   1.1192 B(  4-C ,  6-C ) :   1.1118
B(  4-C , 13-H ) :   0.8951 B(  5-C , 14-H ) :   0.9496 B(  5-C , 15-H ) :   0.9478
B(  5-C , 16-H ) :   0.9397 B(  6-C , 17-H ) :   0.9489 B(  6-C , 18-H ) :   0.9418
B(  6-C , 19-H ) :   0.9501 B(  7-O , 20-H ) :   0.8579

Dispersion correction           -0.016800619
FINAL SINGLE POINT ENERGY      -311.514723528496

DIPOLE MOMENT
-------------

Method             : SCF
Type of density    : Electron Density
Multiplicity       :   1
Irrep              :   0
Energy             :  -311.5940051118764700 Eh
Relativity type    :
Basis              : AO
                                X                 Y                 Z
Electronic contribution:      4.348083701      -0.018672088       3.637200608
Nuclear contribution   :     -4.640641890       0.460651423      -3.904381566
                        -----------------------------------------
Total Dipole Moment    :     -0.292558189       0.441979334      -0.267180958
                        -----------------------------------------
Magnitude (a.u.)       :      0.593566922
Magnitude (Debye)      :      1.508727214

Rotational constants in cm-1:             0.129318             0.052979             0.046330
Rotational constants in MHz :          3876.850253          1588.261491          1388.937035

                             ****ORCA TERMINATED NORMALLY****
TOTAL RUN TIME: 0 days 0 hours 0 minutes 9 seconds 883 msec
