                         Program Version 6.0.0  -   RELEASE  -
|  1> ! pbe def2-sv(p) def2/J RI DEFGRID1 loosescf d4 GCP(DFT/SV(P)) printgap
|  2> %output
|  3>     printlevel normal
|  4> end
|  5> * xyz 0 1
|  6> C -2.6604306854 -0.1325304394 -0.7347809768
|  7> C -1.7291087218 0.683709909 0.1588346702
|  8> C -0.412629533 -0.0236352773 0.3595769789
|  9> O -0.2920646812 -1.1956160404 0.6486848727
| 10> O 0.6137385372 0.8032259451 0.1978184063
| 11> C 1.9450824795 0.2830670781 0.3551819407
| 12> C 2.4449513932 -0.3437218469 -0.9374268894
| 13> H -2.7588229725 -1.1411500864 -0.3408076502
| 14> H -3.6413061616 0.3308484807 -0.7734855466
| 15> H -2.261999096 -0.1951603156 -1.7441941925
| 16> H -2.1829388152 0.8004309607 1.1452540139
| 17> H -1.5341937956 1.6702102077 -0.2589787762
| 18> H 2.545654349 1.1485217312 0.6363497465
| 19> H 1.9380601223 -0.4548405601 1.1632118459
| 20> H 3.4739122397 -0.66303599 -0.8085740477
| 21> H 1.8357758278 -1.2085953657 -1.190836551
| 22> H 2.390963575 0.3777151028 -1.748356034
| 23> *
| 24>
| 25>                          ****END OF INPUT****

CARTESIAN COORDINATES (ANGSTROEM)
---------------------------------
  C     -2.660431   -0.132530   -0.734781
  C     -1.729109    0.683710    0.158835
  C     -0.412630   -0.023635    0.359577
  O     -0.292065   -1.195616    0.648685
  O      0.613739    0.803226    0.197818
  C      1.945082    0.283067    0.355182
  C      2.444951   -0.343722   -0.937427
  H     -2.758823   -1.141150   -0.340808
  H     -3.641306    0.330848   -0.773486
  H     -2.261999   -0.195160   -1.744194
  H     -2.182939    0.800431    1.145254
  H     -1.534194    1.670210   -0.258979
  H      2.545654    1.148522    0.636350
  H      1.938060   -0.454841    1.163212
  H      3.473912   -0.663036   -0.808574
  H      1.835776   -1.208595   -1.190837
  H      2.390964    0.377715   -1.748356

 Total Charge           Charge          ....    0
 Multiplicity           Mult            ....    1
 Number of Electrons    NEL             ....   56
 Basis Dimension        Dim             ....  118

ORBITAL ENERGIES
----------------

  NO   OCC          E(Eh)            E(eV)
   0   2.0000     -18.797472      -511.5052
   1   2.0000     -18.731459      -509.7089
   2   2.0000     -10.004765      -272.2435
   3   2.0000      -9.946182      -270.6494
   4   2.0000      -9.898559      -269.3535
   5   2.0000      -9.886524      -269.0260
   6   2.0000      -9.882000      -268.9029
   7   2.0000      -1.003748       -27.3134
   8   2.0000      -0.908710       -24.7273
   9   2.0000      -0.718458       -19.5502
  10   2.0000      -0.686650       -18.6847
  11   2.0000      -0.608174       -16.5493
  12   2.0000      -0.560051       -15.2398
  13   2.0000      -0.492951       -13.4139
  14   2.0000      -0.451232       -12.2786
  15   2.0000      -0.429546       -11.6886
  16   2.0000      -0.424088       -11.5400
  17   2.0000      -0.392941       -10.6925
  18   2.0000      -0.384994       -10.4762
  19   2.0000      -0.363194        -9.8830
  20   2.0000      -0.351356        -9.5609
  21   2.0000      -0.340472        -9.2647
  22   2.0000      -0.322347        -8.7715
  23   2.0000      -0.315722        -8.5912
  24   2.0000      -0.306446        -8.3388
  25   2.0000      -0.289043        -7.8653
  26   2.0000      -0.255723        -6.9586
  27   2.0000      -0.218171        -5.9367
  28   0.0000      -0.019998        -0.5442
  29   0.0000       0.042794         1.1645
  30   0.0000       0.061102         1.6627
  31   0.0000       0.079213         2.1555
  32   0.0000       0.088313         2.4031

MULLIKEN ATOMIC CHARGES
-----------------------
   0 C :   -0.292260
   1 C :   -0.159005
   2 C :    0.103141
   3 O :   -0.212509
   4 O :   -0.234591
   5 C :   -0.012657
   6 C :   -0.305415
   7 H :    0.123904
   8 H :    0.107603
   9 H :    0.107038
  10 H :    0.116660
  11 H :    0.099036
  12 H :    0.101189
  13 H :    0.106522
  14 H :    0.111799
  15 H :    0.127447
  16 H :    0.112098
Sum of atomic charges:    0.0000000

LOEWDIN ATOMIC CHARGES
----------------------
   0 C :   -0.334445
   1 C :   -0.254969
   2 C :    0.037898
   3 O :   -0.173569
   4 O :   -0.067332
   5 C :   -0.113156
   6 C :   -0.356478
   7 H :    0.127923
   8 H :    0.121570
   9 H :    0.121348
  10 H :    0.143186
  11 H :    0.128181
  12 H :    0.116702
  13 H :    0.118892
  14 H :    0.129978
  15 H :    0.130433
  16 H :    0.123837

  Mayer bond orders larger than 0.100000
B(  0-C ,  1-C ) :   1.1438 B(  0-C ,  7-H ) :   0.9468 B(  0-C ,  8-H ) :   0.9528
B(  0-C ,  9-H ) :   0.9592 B(  1-C ,  2-C ) :   1.0225 B(  1-C , 10-H ) :   0.8965
B(  1-C , 11-H ) :   0.9158 B(  2-C ,  3-O ) :   2.0350 B(  2-C ,  4-O ) :   1.2235
B(  4-O ,  5-C ) :   0.9222 B(  5-C ,  6-C ) :   1.1718 B(  5-C , 12-H ) :   0.9376
B(  5-C , 13-H ) :   0.9143 B(  6-C , 14-H ) :   0.9445 B(  6-C , 15-H ) :   0.9463
B(  6-C , 16-H ) :   0.9491

Dispersion correction           -0.011957733
FINAL SINGLE POINT ENERGY      -346.245330735055

DIPOLE MOMENT
-------------

Method             : SCF
Type of density    : Electron Density
Multiplicity       :   1
Irrep              :   0
Energy             :  -346.3100544964116239 Eh
Relativity type    :
Basis              : AO
                                X                 Y                 Z
Electronic contribution:      0.438803352      -0.030309006       3.468768349
Nuclear contribution   :     -0.178074654       0.618011170      -3.665456435
                        -----------------------------------------
Total Dipole Moment    :      0.260728699       0.587702164      -0.196688086
                        -----------------------------------------
Magnitude (a.u.)       :      0.672353695
Magnitude (Debye)      :      1.708987277

Rotational constants in cm-1:             0.187814             0.047817             0.046498
Rotational constants in MHz :          5630.518763          1433.521253          1393.971545

                             ****ORCA TERMINATED NORMALLY****
TOTAL RUN TIME: 0 days 0 hours 0 minutes 8 seconds 592 msec
