                         Program Version 6.0.0  -   RELEASE  -
|  1> ! r2scan-3c def2/J RI DEFGRID2 scfconv6 printgap
|  2> %output
|  3>     printlevel normal
|  4> end
|  5> * xyz 0 1
|  6> C 0.0630821749 -2.5611975312 0.0453952694
|  7> C -0.0649204541 -1.0735207483 -0.2172001795
|  8> O 0.8471814355 -0.3417298599 0.5928341342
|  9> C 1.8181592503 0.3735386379 0.0003955464
| 10> O 2.0136503259 0.3594090673 -1.1920587721
| 11> C 2.6247893795 1.1215208902 1.0105730919
| 12> O -1.3766466505 -0.6792848086 0.1443790911
| 13> C -1.7580900046 0.5850492756 -0.1072490681
| 14> O -1.0319273092 1.394641519 -0.6380577795
| 15> C -3.1532870218 0.8306497286 0.3624295374
| 16> H -0.690367131 -3.0882956041 -0.5297089649
| 17> H -0.0884896006 -2.7471463558 1.1042778258
| 18> H 1.0524850807 -2.8946913852 -0.2503356595
| 19> H 0.1245621545 -0.807472427 -1.269025033
| 20> H 3.304054057 0.4217048335 1.4929698401
| 21> H 3.1983826935 1.8966887343 0.5137002529
| 22> H 1.9698424812 1.5413500811 1.7672136735
| 23> H -3.1248714562 1.0245291484 1.4327907923
| 24> H -3.5620325184 1.6978974782 -0.1454806541
| 25> H -3.7586033928 -0.0534486595 0.1911972135
| 26> *
| 27>
| 28>                          ****END OF INPUT****

CARTESIAN COORDINATES (ANGSTROEM)
---------------------------------
  C      0.063082   -2.561198    0.045395
  C     -0.064920   -1.073521   -0.217200
  O      0.847181   -0.341730    0.592834
  C      1.818159    0.373539    0.000396
  O      2.013650    0.359409   -1.192059
  C      2.624789    1.121521    1.010573
  O     -1.376647   -0.679285    0.144379
  C     -1.758090    0.585049   -0.107249
  O     -1.031927    1.394642   -0.638058
  C     -3.153287    0.830650    0.362430
  H     -0.690367   -3.088296   -0.529709
  H     -0.088490   -2.747146    1.104278
  H      1.052485   -2.894691   -0.250336
  H      0.124562   -0.807472   -1.269025
  H      3.304054    0.421705    1.492970
  H      3.198383    1.896689    0.513700
  H      1.969842    1.541350    1.767214
  H     -3.124871    1.024529    1.432791
  H     -3.562033    1.697897   -0.145481
  H     -3.758603   -0.053449    0.191197

 Total Charge           Charge          ....    0
 Multiplicity           Mult            ....    1
 Number of Electrons    NEL             ....   78
 Basis Dimension        Dim             ....  260

ORBITAL ENERGIES
----------------

  NO   OCC          E(Eh)            E(eV)
   0   2.0000     -19.007180      -517.2117
   1   2.0000     -19.001369      -517.0535
   2   2.0000     -18.938805      -515.3511
   3   2.0000     -18.931775      -515.1598
   4   2.0000     -10.166085      -276.6332
   5   2.0000     -10.160550      -276.4826
   6   2.0000     -10.156012      -276.3591
   7   2.0000     -10.046588      -273.3816
   8   2.0000     -10.040644      -273.2198
   9   2.0000     -10.040556      -273.2174
  10   2.0000      -1.100159       -29.9368
  11   2.0000      -1.062184       -28.9035
  12   2.0000      -0.992834       -27.0164
  13   2.0000      -0.975300       -26.5393
  14   2.0000      -0.773655       -21.0522
  15   2.0000      -0.727212       -19.7884
  16   2.0000      -0.712155       -19.3787
  17   2.0000      -0.631827       -17.1929
  18   2.0000      -0.585291       -15.9266
  19   2.0000      -0.535961       -14.5842
  20   2.0000      -0.472567       -12.8592
  21   2.0000      -0.462881       -12.5956
  22   2.0000      -0.455927       -12.4064
  23   2.0000      -0.441216       -12.0061
  24   2.0000      -0.435091       -11.8394
  25   2.0000      -0.426598       -11.6083
  26   2.0000      -0.397987       -10.8298
  27   2.0000      -0.394111       -10.7243
  28   2.0000      -0.386262       -10.5107
  29   2.0000      -0.376061       -10.2332
  30   2.0000      -0.374910       -10.2018
  31   2.0000      -0.365336        -9.9413
  32   2.0000      -0.346025        -9.4158
  33   2.0000      -0.342839        -9.3291
  34   2.0000      -0.317728        -8.6458
  35   2.0000      -0.292974        -7.9722
  36   2.0000      -0.280376        -7.6294
  37   2.0000      -0.245060        -6.6684
  38   2.0000      -0.238369        -6.4863
  39   0.0000      -0.026978        -0.7341
  40   0.0000      -0.017310        -0.4710
  41   0.0000       0.073078         1.9885
  42   0.0000       0.092097         2.5061
  43   0.0000       0.105643         2.8747

MULLIKEN ATOMIC CHARGES
-----------------------
   0 C :   -0.484723
   1 C :    0.027499
   2 O :   -0.113744
   3 C :    0.430850
   4 O :   -0.414232
   5 C :   -0.535159
   6 O :   -0.133685
   7 C :    0.436333
   8 O :   -0.394745
   9 C :   -0.544465
  10 H :    0.160042
  11 H :    0.168556
  12 H :    0.161797
  13 H :    0.187413
  14 H :    0.171062
  15 H :    0.179310
  16 H :    0.172188
  17 H :    0.175442
  18 H :    0.180259
  19 H :    0.170005
Sum of atomic charges:    0.0000000

LOEWDIN ATOMIC CHARGES
----------------------
   0 C :   -0.338051
   1 C :    0.318860
   2 O :   -0.525432
   3 C :    0.367295
   4 O :   -0.417615
   5 C :   -0.331159
   6 O :   -0.528687
   7 C :    0.368416
   8 O :   -0.394355
   9 C :   -0.331591
  10 H :    0.169301
  11 H :    0.171672
  12 H :    0.169271
  13 H :    0.226295
  14 H :    0.181344
  15 H :    0.177408
  16 H :    0.178448
  17 H :    0.183387
  18 H :    0.177409
  19 H :    0.177785

  Mayer bond orders larger than 0.100000
B(  0-C ,  1-C ) :   0.9246 B(  0-C , 10-H ) :   0.9685 B(  0-C , 11-H ) :   0.9783
B(  0-C , 12-H ) :   0.9679 B(  1-C ,  2-O ) :   0.7815 B(  1-C ,  6-O ) :   0.9234
B(  1-C , 13-H ) :   0.9437 B(  2-O ,  3-C ) :   0.9758 B(  3-C ,  4-O ) :   1.8600
B(  3-C ,  5-C ) :   0.9413 B(  5-C , 14-H ) :   0.9377 B(  5-C , 15-H ) :   0.9874
B(  5-C , 16-H ) :   0.9701 B(  6-O ,  7-C ) :   0.9884 B(  7-C ,  8-O ) :   1.8031
B(  7-C ,  9-C ) :   0.9267 B(  9-C , 17-H ) :   0.9366 B(  9-C , 18-H ) :   0.9881
B(  9-C , 19-H ) :   0.9717

Dispersion correction           -0.005616761
FINAL SINGLE POINT ENERGY      -535.491970272453

DIPOLE MOMENT
-------------

Method             : SCF
Type of density    : Electron Density
Multiplicity       :   1
Irrep              :   0
Energy             :  -535.5008888743058151 Eh
Relativity type    :
Basis              : AO
                                X                 Y                 Z
Electronic contribution:      0.905681665       2.115827296      -3.003631109
Nuclear contribution   :     -1.470952725      -2.811984688       4.025068720
                        -----------------------------------------
Total Dipole Moment    :     -0.565271060      -0.696157392       1.021437611
                        -----------------------------------------
Magnitude (a.u.)       :      1.359228193
Magnitude (Debye)      :      3.454883501

Rotational constants in cm-1:             0.064472             0.031971             0.025261
Rotational constants in MHz :          1932.822963           958.454330           757.315731

                             ****ORCA TERMINATED NORMALLY****
TOTAL RUN TIME: 0 days 0 hours 0 minutes 35 seconds 233 msec
