                         Program Version 6.0.0  -   RELEASE  -
|  1> ! r2scan-3c def2/J RI DEFGRID2 scfconv6 printgap
|  2> %output
|  3>     printlevel normal
|  4> end
|  5> %cpcm
|  6>     smd true
|  7>     smdsolvent "water"
|  8> end
|  9> * xyz 0 1
| 10> C 0.0630821749 -2.5611975312 0.0453952694
| 11> C -0.0649204541 -1.0735207483 -0.2172001795
| 12> O 0.8471814355 -0.3417298599 0.5928341342
| 13> C 1.8181592503 0.3735386379 0.0003955464
| 14> O 2.0136503259 0.3594090673 -1.1920587721
| 15> C 2.6247893795 1.1215208902 1.0105730919
| 16> O -1.3766466505 -0.6792848086 0.1443790911
| 17> C -1.7580900046 0.5850492756 -0.1072490681
| 18> O -1.0319273092 1.394641519 -0.6380577795
| 19> C -3.1532870218 0.8306497286 0.3624295374
| 20> H -0.690367131 -3.0882956041 -0.5297089649
| 21> H -0.0884896006 -2.7471463558 1.1042778258
| 22> H 1.0524850807 -2.8946913852 -0.2503356595
| 23> H 0.1245621545 -0.807472427 -1.269025033
| 24> H 3.304054057 0.4217048335 1.4929698401
| 25> H 3.1983826935 1.8966887343 0.5137002529
| 26> H 1.9698424812 1.5413500811 1.7672136735
| 27> H -3.1248714562 1.0245291484 1.4327907923
| 28> H -3.5620325184 1.6978974782 -0.1454806541
| 29> H -3.7586033928 -0.0534486595 0.1911972135
| 30> *
| 31>
| 32>                          ****END OF INPUT****

CARTESIAN COORDINATES (ANGSTROEM)
---------------------------------
  C      0.063082   -2.561198    0.045395
  C     -0.064920   -1.073521   -0.217200
  O      0.847181   -0.341730    0.592834
  C      1.818159    0.373539    0.000396
  O      2.013650    0.359409   -1.192059
  C      2.624789    1.121521    1.010573
  O     -1.376647   -0.679285    0.144379
  C     -1.758090    0.585049   -0.107249
  O     -1.031927    1.394642   -0.638058
  C     -3.153287    0.830650    0.362430
  H     -0.690367   -3.088296   -0.529709
  H     -0.088490   -2.747146    1.104278
  H      1.052485   -2.894691   -0.250336
  H      0.124562   -0.807472   -1.269025
  H      3.304054    0.421705    1.492970
  H      3.198383    1.896689    0.513700
  H      1.969842    1.541350    1.767214
  H     -3.124871    1.024529    1.432791
  H     -3.562033    1.697897   -0.145481
  H     -3.758603   -0.053449    0.191197

 Total Charge           Charge          ....    0
 Multiplicity           Mult            ....    1
 Number of Electrons    NEL             ....   78
 Basis Dimension        Dim             ....  260

ORBITAL ENERGIES
----------------

  NO   OCC          E(Eh)            E(eV)
   0   2.0000     -19.011959      -517.3417
   1   2.0000     -19.009782      -517.2825
   2   2.0000     -18.952230      -515.7164
   3   2.0000     -18.950415      -515.6670
   4   2.0000     -10.174436      -276.8605
   5   2.0000     -10.174001      -276.8486
   6   2.0000     -10.154642      -276.3219
   7   2.0000     -10.033578      -273.0275
   8   2.0000     -10.033264      -273.0190
   9   2.0000     -10.027058      -272.8501
  10   2.0000      -1.107157       -30.1273
  11   2.0000      -1.072337       -29.1798
  12   2.0000      -1.007289       -27.4097
  13   2.0000      -0.989203       -26.9176
  14   2.0000      -0.771415       -20.9913
  15   2.0000      -0.722147       -19.6506
  16   2.0000      -0.703926       -19.1548
  17   2.0000      -0.626456       -17.0467
  18   2.0000      -0.586497       -15.9594
  19   2.0000      -0.538241       -14.6463
  20   2.0000      -0.475829       -12.9480
  21   2.0000      -0.471696       -12.8355
  22   2.0000      -0.466915       -12.7054
  23   2.0000      -0.444644       -12.0994
  24   2.0000      -0.437542       -11.9061
  25   2.0000      -0.431985       -11.7549
  26   2.0000      -0.393151       -10.6982
  27   2.0000      -0.383681       -10.4405
  28   2.0000      -0.380233       -10.3467
  29   2.0000      -0.371888       -10.1196
  30   2.0000      -0.365205        -9.9377
  31   2.0000      -0.359039        -9.7699
  32   2.0000      -0.348425        -9.4811
  33   2.0000      -0.346471        -9.4279
  34   2.0000      -0.322708        -8.7813
  35   2.0000      -0.303198        -8.2504
  36   2.0000      -0.291140        -7.9223
  37   2.0000      -0.260334        -7.0841
  38   2.0000      -0.255553        -6.9539
  39   0.0000      -0.032718        -0.8903
  40   0.0000      -0.028169        -0.7665
  41   0.0000       0.075259         2.0479
  42   0.0000       0.097573         2.6551
  43   0.0000       0.113807         3.0968

MULLIKEN ATOMIC CHARGES
-----------------------
   0 C :   -0.530355
   1 C :    0.026288
   2 O :   -0.122728
   3 C :    0.462212
   4 O :   -0.500401
   5 C :   -0.566116
   6 O :   -0.139427
   7 C :    0.484881
   8 O :   -0.475476
   9 C :   -0.578987
  10 H :    0.183304
  11 H :    0.184399
  12 H :    0.181049
  13 H :    0.201843
  14 H :    0.207970
  15 H :    0.190227
  16 H :    0.195522
  17 H :    0.208856
  18 H :    0.192122
  19 H :    0.194819
Sum of atomic charges:    0.0000000

LOEWDIN ATOMIC CHARGES
----------------------
   0 C :   -0.337223
   1 C :    0.321967
   2 O :   -0.525090
   3 C :    0.375013
   4 O :   -0.479315
   5 C :   -0.328571
   6 O :   -0.523878
   7 C :    0.382061
   8 O :   -0.453513
   9 C :   -0.327904
  10 H :    0.178068
  11 H :    0.176831
  12 H :    0.176916
  13 H :    0.227829
  14 H :    0.197073
  15 H :    0.182133
  16 H :    0.188781
  17 H :    0.197074
  18 H :    0.182856
  19 H :    0.188892

  Mayer bond orders larger than 0.100000
B(  0-C ,  1-C ) :   0.9334 B(  0-C , 10-H ) :   0.9609 B(  0-C , 11-H ) :   0.9725
B(  0-C , 12-H ) :   0.9593 B(  1-C ,  2-O ) :   0.7630 B(  1-C ,  6-O ) :   0.9056
B(  1-C , 13-H ) :   0.9357 B(  2-O ,  3-C ) :   1.0003 B(  3-C ,  4-O ) :   1.7843
B(  3-C ,  5-C ) :   0.9474 B(  5-C , 14-H ) :   0.9223 B(  5-C , 15-H ) :   0.9781
B(  5-C , 16-H ) :   0.9567 B(  6-O ,  7-C ) :   1.0111 B(  7-C ,  8-O ) :   1.7374
B(  7-C ,  9-C ) :   0.9269 B(  9-C , 17-H ) :   0.9217 B(  9-C , 18-H ) :   0.9794
B(  9-C , 19-H ) :   0.9599

Dispersion correction           -0.005616761
FINAL SINGLE POINT ENERGY      -535.503708368322

DIPOLE MOMENT
-------------

Method             : SCF
Type of density    : Electron Density
Multiplicity       :   1
Irrep              :   0
Energy             :  -535.5126269701745514 Eh
Relativity type    :
Basis              : AO
                                X                 Y                 Z
Electronic contribution:      0.684142404       1.767434920      -2.544782954
Nuclear contribution   :     -1.470952725      -2.811984688       4.025068720
                        -----------------------------------------
Total Dipole Moment    :     -0.786810321      -1.044549768       1.480285766
                        -----------------------------------------
Magnitude (a.u.)       :      1.975196357
Magnitude (Debye)      :      5.020550149

Rotational constants in cm-1:             0.064472             0.031971             0.025261
Rotational constants in MHz :          1932.822963           958.454330           757.315731

                             ****ORCA TERMINATED NORMALLY****
TOTAL RUN TIME: 0 days 0 hours 0 minutes 42 seconds 185 msec
