                         Program Version 6.0.0  -   RELEASE  -
|  1> ! r2scan-3c def2/J RI DEFGRID2 scfconv6 printgap
|  2> %output
|  3>     printlevel normal
|  4> end
|  5> * xyz 0 1
|  6> C -3.0656467172 0.7988226085 0.055883642
|  7> C -1.5418915257 0.8360487759 0.0616358243
|  8> C -0.9607695011 -0.5704710439 -0.0508632807
|  9> C 0.5438884049 -0.6331709555 -0.0584265203
| 10> O 1.17172508 -1.6675243901 -0.1821655572
| 11> O 1.1127950459 0.5550418743 0.0792755721
| 12> C 2.5406047792 0.6415182353 0.0894193703
| 13> H -3.4369469852 0.2125104735 0.8927742557
| 14> H -3.4676799814 1.8049509095 0.1357470017
| 15> H -3.4335662017 0.3535151407 -0.8651650193
| 16> H -1.188149702 1.3011652559 0.982518638
| 17> H -1.1854097172 1.4422187004 -0.7721171811
| 18> H -1.3049933628 -1.058178449 -0.9661150106
| 19> H -1.3001414351 -1.1930715036 0.7808486541
| 20> H 2.8755667723 0.7622775652 1.1191093746
| 21> H 2.8045236317 1.5153549544 -0.5007761305
| 22> H 2.9715974354 -0.2649804762 -0.3372190063
| 23> *
| 24>
| 25>                          ****END OF INPUT****

CARTESIAN COORDINATES (ANGSTROEM)
---------------------------------
  C     -3.065647    0.798823    0.055884
  C     -1.541892    0.836049    0.061636
  C     -0.960770   -0.570471   -0.050863
  C      0.543888   -0.633171   -0.058427
  O      1.171725   -1.667524   -0.182166
  O      1.112795    0.555042    0.079276
  C      2.540605    0.641518    0.089419
  H     -3.436947    0.212510    0.892774
  H     -3.467680    1.804951    0.135747
  H     -3.433566    0.353515   -0.865165
  H     -1.188150    1.301165    0.982519
  H     -1.185410    1.442219   -0.772117
  H     -1.304993   -1.058178   -0.966115
  H     -1.300141   -1.193072    0.780849
  H      2.875567    0.762278    1.119109
  H      2.804524    1.515355   -0.500776
  H      2.971597   -0.264980   -0.337219

 Total Charge           Charge          ....    0
 Multiplicity           Mult            ....    1
 Number of Electrons    NEL             ....   56
 Basis Dimension        Dim             ....  193

ORBITAL ENERGIES
----------------

  NO   OCC          E(Eh)            E(eV)
   0   2.0000     -19.001326      -517.0524
   1   2.0000     -18.925496      -514.9889
   2   2.0000     -10.153561      -276.2925
   3   2.0000     -10.086560      -274.4692
   4   2.0000     -10.043746      -273.3042
   5   2.0000     -10.032643      -273.0021
   6   2.0000     -10.021756      -272.7058
   7   2.0000      -1.074332       -29.2341
   8   2.0000      -0.974111       -26.5069
   9   2.0000      -0.773786       -21.0558
  10   2.0000      -0.711013       -19.3477
  11   2.0000      -0.663273       -18.0486
  12   2.0000      -0.571746       -15.5580
  13   2.0000      -0.536723       -14.6050
  14   2.0000      -0.470705       -12.8085
  15   2.0000      -0.465424       -12.6648
  16   2.0000      -0.435386       -11.8475
  17   2.0000      -0.433721       -11.8022
  18   2.0000      -0.395630       -10.7656
  19   2.0000      -0.385412       -10.4876
  20   2.0000      -0.373416       -10.1612
  21   2.0000      -0.340443        -9.2639
  22   2.0000      -0.338034        -9.1984
  23   2.0000      -0.324342        -8.8258
  24   2.0000      -0.310466        -8.4482
  25   2.0000      -0.308320        -8.3898
  26   2.0000      -0.270630        -7.3642
  27   2.0000      -0.233826        -6.3627
  28   0.0000      -0.013058        -0.3553
  29   0.0000       0.062619         1.7040
  30   0.0000       0.097699         2.6585
  31   0.0000       0.102591         2.7916
  32   0.0000       0.122335         3.3289

MULLIKEN ATOMIC CHARGES
-----------------------
   0 C :   -0.459027
   1 C :   -0.246541
   2 C :   -0.324453
   3 C :    0.370588
   4 O :   -0.425595
   5 O :   -0.162155
   6 C :   -0.303029
   7 H :    0.141312
   8 H :    0.148877
   9 H :    0.141566
  10 H :    0.148787
  11 H :    0.147845
  12 H :    0.168237
  13 H :    0.168124
  14 H :    0.150093
  15 H :    0.148612
  16 H :    0.186759
Sum of atomic charges:    0.0000000

LOEWDIN ATOMIC CHARGES
----------------------
   0 C :   -0.422059
   1 C :   -0.297816
   2 C :   -0.228037
   3 C :    0.361279
   4 O :   -0.442167
   5 O :   -0.610807
   6 C :   -0.042773
   7 H :    0.150454
   8 H :    0.152116
   9 H :    0.150468
  10 H :    0.161235
  11 H :    0.160483
  12 H :    0.183869
  13 H :    0.183895
  14 H :    0.173033
  15 H :    0.174707
  16 H :    0.192120

  Mayer bond orders larger than 0.100000
B(  0-C ,  1-C ) :   0.8892 B(  0-C ,  7-H ) :   0.9823 B(  0-C ,  8-H ) :   0.9747
B(  0-C ,  9-H ) :   0.9820 B(  1-C ,  2-C ) :   0.9264 B(  1-C , 10-H ) :   0.9665
B(  1-C , 11-H ) :   0.9674 B(  2-C ,  3-C ) :   1.0299 B(  2-C , 12-H ) :   0.9475
B(  2-C , 13-H ) :   0.9439 B(  3-C ,  4-O ) :   1.8582 B(  3-C ,  5-O ) :   1.0817
B(  5-O ,  6-C ) :   0.8358 B(  6-C , 14-H ) :   0.9600 B(  6-C , 15-H ) :   0.9689
B(  6-C , 16-H ) :   0.9678

Dispersion correction           -0.003961662
FINAL SINGLE POINT ENERGY      -346.929029042528

DIPOLE MOMENT
-------------

Method             : SCF
Type of density    : Electron Density
Multiplicity       :   1
Irrep              :   0
Energy             :  -346.9358790731818658 Eh
Relativity type    :
Basis              : AO
                                X                 Y                 Z
Electronic contribution:      6.069559426      -3.697156824      -0.341446879
Nuclear contribution   :     -6.219200952       4.557786686       0.439043086
                        -----------------------------------------
Total Dipole Moment    :     -0.149641526       0.860629862       0.097596207
                        -----------------------------------------
Magnitude (a.u.)       :      0.878977455
Magnitude (Debye)      :      2.234183136

Rotational constants in cm-1:             0.186176             0.047138             0.038702
Rotational constants in MHz :          5581.406151          1413.173646          1160.249502

                             ****ORCA TERMINATED NORMALLY****
TOTAL RUN TIME: 0 days 0 hours 0 minutes 22 seconds 686 msec
