                         Program Version 6.0.0  -   RELEASE  -
|  1> ! r2scan-3c def2/J RI DEFGRID2 scfconv6 printgap
|  2> %output
|  3>     printlevel normal
|  4> end
|  5> %cpcm
|  6>     smd true
|  7>     smdsolvent "water"
|  8> end
|  9> * xyz 0 1
| 10> C -3.0656467172 0.7988226085 0.055883642
| 11> C -1.5418915257 0.8360487759 0.0616358243
| 12> C -0.9607695011 -0.5704710439 -0.0508632807
| 13> C 0.5438884049 -0.6331709555 -0.0584265203
| 14> O 1.17172508 -1.6675243901 -0.1821655572
| 15> O 1.1127950459 0.5550418743 0.0792755721
| 16> C 2.5406047792 0.6415182353 0.0894193703
| 17> H -3.4369469852 0.2125104735 0.8927742557
| 18> H -3.4676799814 1.8049509095 0.1357470017
| 19> H -3.4335662017 0.3535151407 -0.8651650193
| 20> H -1.188149702 1.3011652559 0.982518638
| 21> H -1.1854097172 1.4422187004 -0.7721171811
| 22> H -1.3049933628 -1.058178449 -0.9661150106
| 23> H -1.3001414351 -1.1930715036 0.7808486541
| 24> H 2.8755667723 0.7622775652 1.1191093746
| 25> H 2.8045236317 1.5153549544 -0.5007761305
| 26> H 2.9715974354 -0.2649804762 -0.3372190063
| 27> *
| 28>
| 29>                          ****END OF INPUT****

CARTESIAN COORDINATES (ANGSTROEM)
---------------------------------
  C     -3.065647    0.798823    0.055884
  C     -1.541892    0.836049    0.061636
  C     -0.960770   -0.570471   -0.050863
  C      0.543888   -0.633171   -0.058427
  O      1.171725   -1.667524   -0.182166
  O      1.112795    0.555042    0.079276
  C      2.540605    0.641518    0.089419
  H     -3.436947    0.212510    0.892774
  H     -3.467680    1.804951    0.135747
  H     -3.433566    0.353515   -0.865165
  H     -1.188150    1.301165    0.982519
  H     -1.185410    1.442219   -0.772117
  H     -1.304993   -1.058178   -0.966115
  H     -1.300141   -1.193072    0.780849
  H      2.875567    0.762278    1.119109
  H      2.804524    1.515355   -0.500776
  H      2.971597   -0.264980   -0.337219

 Total Charge           Charge          ....    0
 Multiplicity           Mult            ....    1
 Number of Electrons    NEL             ....   56
 Basis Dimension        Dim             ....  193

ORBITAL ENERGIES
----------------

  NO   OCC          E(Eh)            E(eV)
   0   2.0000     -19.005513      -517.1663
   1   2.0000     -18.940575      -515.3993
   2   2.0000     -10.163026      -276.5500
   3   2.0000     -10.075670      -274.1729
   4   2.0000     -10.036353      -273.1030
   5   2.0000     -10.023420      -272.7511
   6   2.0000     -10.010117      -272.3891
   7   2.0000      -1.079873       -29.3848
   8   2.0000      -0.987278       -26.8652
   9   2.0000      -0.766573       -20.8595
  10   2.0000      -0.704524       -19.1711
  11   2.0000      -0.655277       -17.8310
  12   2.0000      -0.564053       -15.3487
  13   2.0000      -0.533076       -14.5057
  14   2.0000      -0.468710       -12.7543
  15   2.0000      -0.462622       -12.5886
  16   2.0000      -0.449570       -12.2334
  17   2.0000      -0.424359       -11.5474
  18   2.0000      -0.392152       -10.6710
  19   2.0000      -0.379725       -10.3328
  20   2.0000      -0.364619        -9.9218
  21   2.0000      -0.336672        -9.1613
  22   2.0000      -0.332348        -9.0437
  23   2.0000      -0.322502        -8.7757
  24   2.0000      -0.305028        -8.3002
  25   2.0000      -0.298183        -8.1140
  26   2.0000      -0.277309        -7.5460
  27   2.0000      -0.248889        -6.7726
  28   0.0000      -0.019770        -0.5380
  29   0.0000       0.069513         1.8916
  30   0.0000       0.106291         2.8923
  31   0.0000       0.113059         3.0765
  32   0.0000       0.132578         3.6076

MULLIKEN ATOMIC CHARGES
-----------------------
   0 C :   -0.508291
   1 C :   -0.255883
   2 C :   -0.333697
   3 C :    0.408197
   4 O :   -0.515474
   5 O :   -0.176239
   6 C :   -0.321378
   7 H :    0.155669
   8 H :    0.159124
   9 H :    0.155706
  10 H :    0.157075
  11 H :    0.157440
  12 H :    0.189530
  13 H :    0.191464
  14 H :    0.178427
  15 H :    0.175781
  16 H :    0.182548
Sum of atomic charges:    0.0000000

LOEWDIN ATOMIC CHARGES
----------------------
   0 C :   -0.428033
   1 C :   -0.296750
   2 C :   -0.226537
   3 C :    0.372081
   4 O :   -0.507138
   5 O :   -0.610593
   6 C :   -0.037949
   7 H :    0.154318
   8 H :    0.154662
   9 H :    0.154266
  10 H :    0.162656
  11 H :    0.162256
  12 H :    0.192371
  13 H :    0.193190
  14 H :    0.183821
  15 H :    0.186581
  16 H :    0.190797

  Mayer bond orders larger than 0.100000
B(  0-C ,  1-C ) :   0.8838 B(  0-C ,  7-H ) :   0.9802 B(  0-C ,  8-H ) :   0.9716
B(  0-C ,  9-H ) :   0.9798 B(  1-C ,  2-C ) :   0.9147 B(  1-C , 10-H ) :   0.9674
B(  1-C , 11-H ) :   0.9683 B(  2-C ,  3-C ) :   1.0346 B(  2-C , 12-H ) :   0.9374
B(  2-C , 13-H ) :   0.9319 B(  3-C ,  4-O ) :   1.7875 B(  3-C ,  5-O ) :   1.1119
B(  5-O ,  6-C ) :   0.8215 B(  6-C , 14-H ) :   0.9515 B(  6-C , 15-H ) :   0.9590
B(  6-C , 16-H ) :   0.9643

Dispersion correction           -0.003961662
FINAL SINGLE POINT ENERGY      -346.933989374567

DIPOLE MOMENT
-------------

Method             : SCF
Type of density    : Electron Density
Multiplicity       :   1
Irrep              :   0
Energy             :  -346.9408394052201743 Eh
Relativity type    :
Basis              : AO
                                X                 Y                 Z
Electronic contribution:      5.972002417      -3.392072025      -0.301474371
Nuclear contribution   :     -6.219200952       4.557786686       0.439043086
                        -----------------------------------------
Total Dipole Moment    :     -0.247198535       1.165714661       0.137568715
                        -----------------------------------------
Magnitude (a.u.)       :      1.199551140
Magnitude (Debye)      :      3.049016690

Rotational constants in cm-1:             0.186176             0.047138             0.038702
Rotational constants in MHz :          5581.406151          1413.173646          1160.249502

                             ****ORCA TERMINATED NORMALLY****
TOTAL RUN TIME: 0 days 0 hours 0 minutes 33 seconds 999 msec
