                         Program Version 6.0.0  -   RELEASE  -
|  1> ! r2scan-3c def2/J RI DEFGRID2 scfconv6 printgap
|  2> %output
|  3>     printlevel normal
|  4> end
|  5> * xyz 0 1
|  6> C 1.8862163246 1.1331449576 0.0440817987
|  7> C 1.3858035712 -0.2472097429 -0.3836960916
|  8> H 2.0148423434 -0.6003122354 -1.220544144
|  9> C -0.0595371887 -0.2323411352 -0.9053569725
| 10> C -1.1141740861 0.4286593128 -0.0096266204
| 11> C -2.4010212782 0.6348644139 -0.8091188867
| 12> C -1.4038797181 -0.4069627777 1.2342152442
| 13> O 1.4889180484 -1.186949828 0.6751693595
| 14> H 2.960969674 1.1097820885 0.2110414857
| 15> H 1.6725807856 1.8614238107 -0.7324397968
| 16> H 1.4005264351 1.4404189074 0.9663179479
| 17> H -0.0449499857 0.2843854452 -1.8671812273
| 18> H -0.3519772104 -1.2693316631 -1.0845328213
| 19> H -0.7504586914 1.4118615325 0.3025497998
| 20> H -2.7787426626 -0.3190275872 -1.1710014548
| 21> H -2.2256527595 1.2825802632 -1.665020033
| 22> H -3.1648204874 1.0909875713 -0.1839043821
| 23> H -2.1022245989 0.1117010167 1.8875085608
| 24> H -1.8406442457 -1.3621777305 0.9500681173
| 25> H -0.4892932939 -0.6070505176 1.7837633634
| 26> H 2.4019833986 -1.2065346503 0.9907902071
| 27> *
| 28>
| 29>                          ****END OF INPUT****

CARTESIAN COORDINATES (ANGSTROEM)
---------------------------------
  C      1.886216    1.133145    0.044082
  C      1.385804   -0.247210   -0.383696
  H      2.014842   -0.600312   -1.220544
  C     -0.059537   -0.232341   -0.905357
  C     -1.114174    0.428659   -0.009627
  C     -2.401021    0.634864   -0.809119
  C     -1.403880   -0.406963    1.234215
  O      1.488918   -1.186950    0.675169
  H      2.960970    1.109782    0.211041
  H      1.672581    1.861424   -0.732440
  H      1.400526    1.440419    0.966318
  H     -0.044950    0.284385   -1.867181
  H     -0.351977   -1.269332   -1.084533
  H     -0.750459    1.411862    0.302550
  H     -2.778743   -0.319028   -1.171001
  H     -2.225653    1.282580   -1.665020
  H     -3.164820    1.090988   -0.183904
  H     -2.102225    0.111701    1.887509
  H     -1.840644   -1.362178    0.950068
  H     -0.489293   -0.607051    1.783763
  H      2.401983   -1.206535    0.990790

 Total Charge           Charge          ....    0
 Multiplicity           Mult            ....    1
 Number of Electrons    NEL             ....   58
 Basis Dimension        Dim             ....  208

ORBITAL ENERGIES
----------------

  NO   OCC          E(Eh)            E(eV)
   0   2.0000     -18.945562      -515.5350
   1   2.0000     -10.081885      -274.3420
   2   2.0000     -10.027122      -272.8519
   3   2.0000     -10.021016      -272.6857
   4   2.0000     -10.020676      -272.6765
   5   2.0000     -10.010394      -272.3967
   6   2.0000     -10.000019      -272.1143
   7   2.0000      -0.984013       -26.7763
   8   2.0000      -0.773469       -21.0472
   9   2.0000      -0.719037       -19.5660
  10   2.0000      -0.650922       -17.7125
  11   2.0000      -0.640373       -17.4254
  12   2.0000      -0.566494       -15.4151
  13   2.0000      -0.513908       -13.9842
  14   2.0000      -0.477950       -13.0057
  15   2.0000      -0.436297       -11.8722
  16   2.0000      -0.410725       -11.1764
  17   2.0000      -0.397401       -10.8138
  18   2.0000      -0.384975       -10.4757
  19   2.0000      -0.376048       -10.2328
  20   2.0000      -0.350665        -9.5421
  21   2.0000      -0.345128        -9.3914
  22   2.0000      -0.330459        -8.9923
  23   2.0000      -0.322516        -8.7761
  24   2.0000      -0.313308        -8.5255
  25   2.0000      -0.289458        -7.8765
  26   2.0000      -0.283273        -7.7082
  27   2.0000      -0.271820        -7.3966
  28   2.0000      -0.231607        -6.3024
  29   0.0000       0.057251         1.5579
  30   0.0000       0.098723         2.6864
  31   0.0000       0.114902         3.1266
  32   0.0000       0.120889         3.2896
  33   0.0000       0.134277         3.6539

MULLIKEN ATOMIC CHARGES
-----------------------
   0 C :   -0.520887
   1 C :    0.044088
   2 H :    0.131153
   3 C :   -0.297493
   4 C :   -0.049260
   5 C :   -0.484029
   6 C :   -0.503793
   7 O :   -0.419329
   8 H :    0.141363
   9 H :    0.154460
  10 H :    0.168851
  11 H :    0.145278
  12 H :    0.157565
  13 H :    0.146340
  14 H :    0.147938
  15 H :    0.142425
  16 H :    0.146805
  17 H :    0.139676
  18 H :    0.143064
  19 H :    0.179846
  20 H :    0.285938
Sum of atomic charges:   -0.0000000

LOEWDIN ATOMIC CHARGES
----------------------
   0 C :   -0.405339
   1 C :    0.047996
   2 H :    0.161569
   3 C :   -0.271999
   4 C :   -0.242603
   5 C :   -0.417153
   6 C :   -0.415457
   7 O :   -0.623015
   8 H :    0.151212
   9 H :    0.160939
  10 H :    0.161487
  11 H :    0.163803
  12 H :    0.172524
  13 H :    0.156338
  14 H :    0.154116
  15 H :    0.150123
  16 H :    0.152894
  17 H :    0.148033
  18 H :    0.154079
  19 H :    0.172527
  20 H :    0.267927

  Mayer bond orders larger than 0.100000
B(  0-C ,  1-C ) :   0.8918 B(  0-C ,  8-H ) :   0.9650 B(  0-C ,  9-H ) :   0.9724
B(  0-C , 10-H ) :   0.9807 B(  1-C ,  2-H ) :   0.9683 B(  1-C ,  3-C ) :   0.9578
B(  1-C ,  7-O ) :   0.9080 B(  3-C ,  4-C ) :   0.8882 B(  3-C , 11-H ) :   0.9743
B(  3-C , 12-H ) :   0.9757 B(  4-C ,  5-C ) :   0.9007 B(  4-C ,  6-C ) :   0.9124
B(  4-C , 13-H ) :   0.9576 B(  5-C , 14-H ) :   0.9867 B(  5-C , 15-H ) :   0.9793
B(  5-C , 16-H ) :   0.9780 B(  6-C , 17-H ) :   0.9766 B(  6-C , 18-H ) :   0.9829
B(  6-C , 19-H ) :   0.9634 B(  7-O , 20-H ) :   0.9030

Dispersion correction           -0.005668934
FINAL SINGLE POINT ENERGY      -312.200997780759

DIPOLE MOMENT
-------------

Method             : SCF
Type of density    : Electron Density
Multiplicity       :   1
Irrep              :   0
Energy             :  -312.2065329109677236 Eh
Relativity type    :
Basis              : AO
                                X                 Y                 Z
Electronic contribution:      3.589214792      -2.680525175       0.588750382
Nuclear contribution   :     -3.071836558       3.011439255      -0.771080277
                        -----------------------------------------
Total Dipole Moment    :      0.517378234       0.330914080      -0.182329894
                        -----------------------------------------
Magnitude (a.u.)       :      0.640646982
Magnitude (Debye)      :      1.628395219

Rotational constants in cm-1:             0.132240             0.054282             0.047586
Rotational constants in MHz :          3964.458766          1627.348295          1426.598964

                             ****ORCA TERMINATED NORMALLY****
TOTAL RUN TIME: 0 days 0 hours 0 minutes 30 seconds 574 msec
