                         Program Version 6.0.0  -   RELEASE  -
|  1> ! r2scan-3c def2/J RI DEFGRID2 scfconv6 printgap
|  2> %output
|  3>     printlevel normal
|  4> end
|  5> %cpcm
|  6>     smd true
|  7>     smdsolvent "water"
|  8> end
|  9> * xyz 0 1
| 10> C 1.8862163246 1.1331449576 0.0440817987
| 11> C 1.3858035712 -0.2472097429 -0.3836960916
| 12> H 2.0148423434 -0.6003122354 -1.220544144
| 13> C -0.0595371887 -0.2323411352 -0.9053569725
| 14> C -1.1141740861 0.4286593128 -0.0096266204
| 15> C -2.4010212782 0.6348644139 -0.8091188867
| 16> C -1.4038797181 -0.4069627777 1.2342152442
| 17> O 1.4889180484 -1.186949828 0.6751693595
| 18> H 2.960969674 1.1097820885 0.2110414857
| 19> H 1.6725807856 1.8614238107 -0.7324397968
| 20> H 1.4005264351 1.4404189074 0.9663179479
| 21> H -0.0449499857 0.2843854452 -1.8671812273
| 22> H -0.3519772104 -1.2693316631 -1.0845328213
| 23> H -0.7504586914 1.4118615325 0.3025497998
| 24> H -2.7787426626 -0.3190275872 -1.1710014548
| 25> H -2.2256527595 1.2825802632 -1.665020033
| 26> H -3.1648204874 1.0909875713 -0.1839043821
| 27> H -2.1022245989 0.1117010167 1.8875085608
| 28> H -1.8406442457 -1.3621777305 0.9500681173
| 29> H -0.4892932939 -0.6070505176 1.7837633634
| 30> H 2.4019833986 -1.2065346503 0.9907902071
| 31> *
| 32>
| 33>                          ****END OF INPUT****

CARTESIAN COORDINATES (ANGSTROEM)
---------------------------------
  C      1.886216    1.133145    0.044082
  C      1.385804   -0.247210   -0.383696
  H      2.014842   -0.600312   -1.220544
  C     -0.059537   -0.232341   -0.905357
  C     -1.114174    0.428659   -0.009627
  C     -2.401021    0.634864   -0.809119
  C     -1.403880   -0.406963    1.234215
  O      1.488918   -1.186950    0.675169
  H      2.960970    1.109782    0.211041
  H      1.672581    1.861424   -0.732440
  H      1.400526    1.440419    0.966318
  H     -0.044950    0.284385   -1.867181
  H     -0.351977   -1.269332   -1.084533
  H     -0.750459    1.411862    0.302550
  H     -2.778743   -0.319028   -1.171001
  H     -2.225653    1.282580   -1.665020
  H     -3.164820    1.090988   -0.183904
  H     -2.102225    0.111701    1.887509
  H     -1.840644   -1.362178    0.950068
  H     -0.489293   -0.607051    1.783763
  H      2.401983   -1.206535    0.990790

 Total Charge           Charge          ....    0
 Multiplicity           Mult            ....    1
 Number of Electrons    NEL             ....   58
 Basis Dimension        Dim             ....  208

ORBITAL ENERGIES
----------------

  NO   OCC          E(Eh)            E(eV)
   0   2.0000     -18.945796      -515.5413
   1   2.0000     -10.075113      -274.1578
   2   2.0000     -10.023211      -272.7454
   3   2.0000     -10.014502      -272.5084
   4   2.0000     -10.009024      -272.3594
   5   2.0000     -10.005490      -272.2632
   6   2.0000     -10.001711      -272.1604
   7   2.0000      -0.983335       -26.7579
   8   2.0000      -0.769301       -20.9337
   9   2.0000      -0.712120       -19.3778
  10   2.0000      -0.643642       -17.5144
  11   2.0000      -0.639538       -17.4027
  12   2.0000      -0.561564       -15.2809
  13   2.0000      -0.510141       -13.8816
  14   2.0000      -0.472311       -12.8522
  15   2.0000      -0.431272       -11.7355
  16   2.0000      -0.406243       -11.0544
  17   2.0000      -0.392123       -10.6702
  18   2.0000      -0.380692       -10.3592
  19   2.0000      -0.371990       -10.1224
  20   2.0000      -0.343357        -9.3432
  21   2.0000      -0.342524        -9.3206
  22   2.0000      -0.325661        -8.8617
  23   2.0000      -0.319920        -8.7055
  24   2.0000      -0.310690        -8.4543
  25   2.0000      -0.286852        -7.8056
  26   2.0000      -0.279438        -7.6039
  27   2.0000      -0.269260        -7.3269
  28   2.0000      -0.231815        -6.3080
  29   0.0000       0.073876         2.0103
  30   0.0000       0.106570         2.8999
  31   0.0000       0.123160         3.3513
  32   0.0000       0.128302         3.4913
  33   0.0000       0.136207         3.7064

MULLIKEN ATOMIC CHARGES
-----------------------
   0 C :   -0.553993
   1 C :    0.050606
   2 H :    0.142828
   3 C :   -0.318029
   4 C :   -0.013954
   5 C :   -0.530928
   6 C :   -0.559646
   7 O :   -0.498723
   8 H :    0.163391
   9 H :    0.169272
  10 H :    0.170521
  11 H :    0.163078
  12 H :    0.160503
  13 H :    0.159168
  14 H :    0.158558
  15 H :    0.157496
  16 H :    0.157030
  17 H :    0.154508
  18 H :    0.158702
  19 H :    0.170155
  20 H :    0.339459
Sum of atomic charges:    0.0000000

LOEWDIN ATOMIC CHARGES
----------------------
   0 C :   -0.407831
   1 C :    0.050299
   2 H :    0.167987
   3 C :   -0.275808
   4 C :   -0.240583
   5 C :   -0.425092
   6 C :   -0.426477
   7 O :   -0.655962
   8 H :    0.158804
   9 H :    0.165865
  10 H :    0.161654
  11 H :    0.170578
  12 H :    0.170649
  13 H :    0.160752
  14 H :    0.156105
  15 H :    0.154594
  16 H :    0.154835
  17 H :    0.152254
  18 H :    0.156002
  19 H :    0.165916
  20 H :    0.285459

  Mayer bond orders larger than 0.100000
B(  0-C ,  1-C ) :   0.9036 B(  0-C ,  8-H ) :   0.9614 B(  0-C ,  9-H ) :   0.9691
B(  0-C , 10-H ) :   0.9754 B(  1-C ,  2-H ) :   0.9654 B(  1-C ,  3-C ) :   0.9459
B(  1-C ,  7-O ) :   0.8982 B(  3-C ,  4-C ) :   0.8771 B(  3-C , 11-H ) :   0.9689
B(  3-C , 12-H ) :   0.9826 B(  4-C ,  5-C ) :   0.8911 B(  4-C ,  6-C ) :   0.8887
B(  4-C , 13-H ) :   0.9561 B(  5-C , 14-H ) :   0.9853 B(  5-C , 15-H ) :   0.9762
B(  5-C , 16-H ) :   0.9759 B(  6-C , 17-H ) :   0.9735 B(  6-C , 18-H ) :   0.9843
B(  6-C , 19-H ) :   0.9682 B(  7-O , 20-H ) :   0.8779

Dispersion correction           -0.005668934
FINAL SINGLE POINT ENERGY      -312.205609713164

DIPOLE MOMENT
-------------

Method             : SCF
Type of density    : Electron Density
Multiplicity       :   1
Irrep              :   0
Energy             :  -312.2111448433723240 Eh
Relativity type    :
Basis              : AO
                                X                 Y                 Z
Electronic contribution:      3.768372407      -2.476059196       0.454848879
Nuclear contribution   :     -3.071836558       3.011439255      -0.771080277
                        -----------------------------------------
Total Dipole Moment    :      0.696535849       0.535380059      -0.316231398
                        -----------------------------------------
Magnitude (a.u.)       :      0.933700323
Magnitude (Debye)      :      2.373277614

Rotational constants in cm-1:             0.132240             0.054282             0.047586
Rotational constants in MHz :          3964.458766          1627.348295          1426.598964

                             ****ORCA TERMINATED NORMALLY****
TOTAL RUN TIME: 0 days 0 hours 0 minutes 37 seconds 698 msec
