                         Program Version 6.0.0  -   RELEASE  -
|  1> ! r2scan-3c def2/J RI DEFGRID2 scfconv6 printgap
|  2> %output
|  3>     printlevel normal
|  4> end
|  5> * xyz 0 1
|  6> C -2.6562343327 -1.2163563113 -0.279307093
|  7> C -2.4615668084 0.2081740412 0.2263513968
|  8> C -1.1347413564 0.8570029929 -0.1771886114
|  9> C 0.1035974912 0.3062010149 0.5402401408
| 10> C 0.6135069934 -1.0304697539 -0.0381004708
| 11> C 2.131406711 -0.886493481 -0.1484543807
| 12> C 2.3080864104 0.5856311664 -0.497572882
| 13> C 1.3057431589 1.2733485719 0.4271174611
| 14> H -2.5244615672 -1.2598706814 -1.358113787
| 15> H -1.9496740701 -1.8976498636 0.1839579253
| 16> H -3.6618063481 -1.5590779935 -0.0448895757
| 17> H -3.2707948024 0.8271441848 -0.169800281
| 18> H -2.5460052312 0.2191184008 1.3155966759
| 19> H -1.0000303351 0.7709768761 -1.2577356898
| 20> H -1.2141899434 1.9213940383 0.0593354882
| 21> H -0.1539700853 0.1777865729 1.5956444335
| 22> H 0.3365197702 -1.8805613023 0.5837024299
| 23> H 0.1946729649 -1.1856474633 -1.0326273789
| 24> H 2.6021140891 -1.0963955102 0.8135398731
| 25> H 2.5580837719 -1.5557055896 -0.8943970544
| 26> H 3.3265286664 0.9398148709 -0.345009652
| 27> H 2.0354525183 0.7538147402 -1.5404541527
| 28> H 1.7585515441 1.4177653407 1.409029554
| 29> H 1.0088731403 2.2507025531 0.0496081625
| 30> *
| 31>
| 32>                          ****END OF INPUT****

CARTESIAN COORDINATES (ANGSTROEM)
---------------------------------
  C     -2.656234   -1.216356   -0.279307
  C     -2.461567    0.208174    0.226351
  C     -1.134741    0.857003   -0.177189
  C      0.103597    0.306201    0.540240
  C      0.613507   -1.030470   -0.038100
  C      2.131407   -0.886493   -0.148454
  C      2.308086    0.585631   -0.497573
  C      1.305743    1.273349    0.427117
  H     -2.524462   -1.259871   -1.358114
  H     -1.949674   -1.897650    0.183958
  H     -3.661806   -1.559078   -0.044890
  H     -3.270795    0.827144   -0.169800
  H     -2.546005    0.219118    1.315597
  H     -1.000030    0.770977   -1.257736
  H     -1.214190    1.921394    0.059335
  H     -0.153970    0.177787    1.595644
  H      0.336520   -1.880561    0.583702
  H      0.194673   -1.185647   -1.032627
  H      2.602114   -1.096396    0.813540
  H      2.558084   -1.555706   -0.894397
  H      3.326529    0.939815   -0.345010
  H      2.035453    0.753815   -1.540454
  H      1.758552    1.417765    1.409030
  H      1.008873    2.250703    0.049608

 Total Charge           Charge          ....    0
 Multiplicity           Mult            ....    1
 Number of Electrons    NEL             ....   64
 Basis Dimension        Dim             ....  232

ORBITAL ENERGIES
----------------

  NO   OCC          E(Eh)            E(eV)
   0   2.0000     -10.024937      -272.7924
   1   2.0000     -10.020703      -272.6772
   2   2.0000     -10.017852      -272.5996
   3   2.0000     -10.017850      -272.5995
   4   2.0000     -10.017564      -272.5918
   5   2.0000     -10.016552      -272.5642
   6   2.0000     -10.015983      -272.5488
   7   2.0000     -10.011273      -272.4206
   8   2.0000      -0.804840       -21.9008
   9   2.0000      -0.748283       -20.3618
  10   2.0000      -0.685627       -18.6568
  11   2.0000      -0.670580       -18.2474
  12   2.0000      -0.623931       -16.9780
  13   2.0000      -0.546764       -14.8782
  14   2.0000      -0.533649       -14.5213
  15   2.0000      -0.510608       -13.8944
  16   2.0000      -0.451283       -12.2800
  17   2.0000      -0.438101       -11.9213
  18   2.0000      -0.408321       -11.1110
  19   2.0000      -0.403106       -10.9691
  20   2.0000      -0.382434       -10.4066
  21   2.0000      -0.377311       -10.2672
  22   2.0000      -0.348515        -9.4836
  23   2.0000      -0.330172        -8.9844
  24   2.0000      -0.319813        -8.7026
  25   2.0000      -0.301693        -8.2095
  26   2.0000      -0.300038        -8.1644
  27   2.0000      -0.297759        -8.1024
  28   2.0000      -0.290600        -7.9076
  29   2.0000      -0.277579        -7.5533
  30   2.0000      -0.273441        -7.4407
  31   2.0000      -0.266415        -7.2495
  32   0.0000       0.082656         2.2492
  33   0.0000       0.090973         2.4755
  34   0.0000       0.093159         2.5350
  35   0.0000       0.116188         3.1616
  36   0.0000       0.127839         3.4787

MULLIKEN ATOMIC CHARGES
-----------------------
   0 C :   -0.490273
   1 C :   -0.225577
   2 C :   -0.345261
   3 C :    0.042954
   4 C :   -0.441301
   5 C :   -0.262516
   6 C :   -0.308602
   7 C :   -0.369746
   8 H :    0.145291
   9 H :    0.150306
  10 H :    0.143512
  11 H :    0.138948
  12 H :    0.134464
  13 H :    0.147182
  14 H :    0.142716
  15 H :    0.163728
  16 H :    0.156367
  17 H :    0.168272
  18 H :    0.147444
  19 H :    0.150958
  20 H :    0.150391
  21 H :    0.155442
  22 H :    0.155406
  23 H :    0.149897
Sum of atomic charges:    0.0000000

LOEWDIN ATOMIC CHARGES
----------------------
   0 C :   -0.426516
   1 C :   -0.313282
   2 C :   -0.301213
   3 C :   -0.224510
   4 C :   -0.304123
   5 C :   -0.302353
   6 C :   -0.303192
   7 C :   -0.298341
   8 H :    0.149090
   9 H :    0.151925
  10 H :    0.148727
  11 H :    0.150928
  12 H :    0.151116
  13 H :    0.154895
  14 H :    0.156620
  15 H :    0.159856
  16 H :    0.156297
  17 H :    0.159065
  18 H :    0.155050
  19 H :    0.155207
  20 H :    0.155389
  21 H :    0.154142
  22 H :    0.157070
  23 H :    0.158152

  Mayer bond orders larger than 0.100000
B(  0-C ,  1-C ) :   0.8925 B(  0-C ,  8-H ) :   0.9845 B(  0-C ,  9-H ) :   0.9762
B(  0-C , 10-H ) :   0.9702 B(  1-C ,  2-C ) :   0.9005 B(  1-C , 11-H ) :   0.9645
B(  1-C , 12-H ) :   0.9892 B(  2-C ,  3-C ) :   0.8845 B(  2-C , 13-H ) :   0.9895
B(  2-C , 14-H ) :   0.9815 B(  3-C ,  4-C ) :   0.8586 B(  3-C ,  7-C ) :   0.9105
B(  3-C , 15-H ) :   0.9756 B(  4-C ,  5-C ) :   0.9038 B(  4-C , 16-H ) :   0.9590
B(  4-C , 17-H ) :   1.0014 B(  5-C ,  6-C ) :   0.8928 B(  5-C , 18-H ) :   0.9822
B(  5-C , 19-H ) :   0.9604 B(  6-C ,  7-C ) :   0.9154 B(  6-C , 20-H ) :   0.9517
B(  6-C , 21-H ) :   1.0035 B(  7-C , 22-H ) :   0.9805 B(  7-C , 23-H ) :   0.9735

Dispersion correction           -0.007125662
FINAL SINGLE POINT ENERGY      -314.378997424786

DIPOLE MOMENT
-------------

Method             : SCF
Type of density    : Electron Density
Multiplicity       :   1
Irrep              :   0
Energy             :  -314.3821793381596876 Eh
Relativity type    :
Basis              : AO
                                X                 Y                 Z
Electronic contribution:      2.347494401       1.101128149       0.627171595
Nuclear contribution   :     -2.345535112      -1.084883132      -0.593494162
                        -----------------------------------------
Total Dipole Moment    :      0.001959289       0.016245016       0.033677433
                        -----------------------------------------
Magnitude (a.u.)       :      0.037442074
Magnitude (Debye)      :      0.095170188

Rotational constants in cm-1:             0.133953             0.039994             0.033743
Rotational constants in MHz :          4015.796066          1198.987788          1011.594148

                             ****ORCA TERMINATED NORMALLY****
TOTAL RUN TIME: 0 days 0 hours 0 minutes 24 seconds 972 msec
