                         Program Version 6.0.0  -   RELEASE  -
|  1> ! r2scan-3c def2/J RI DEFGRID2 scfconv6 printgap
|  2> %output
|  3>     printlevel normal
|  4> end
|  5> %cpcm
|  6>     smd true
|  7>     smdsolvent "water"
|  8> end
|  9> * xyz 0 1
| 10> C -2.6562343327 -1.2163563113 -0.279307093
| 11> C -2.4615668084 0.2081740412 0.2263513968
| 12> C -1.1347413564 0.8570029929 -0.1771886114
| 13> C 0.1035974912 0.3062010149 0.5402401408
| 14> C 0.6135069934 -1.0304697539 -0.0381004708
| 15> C 2.131406711 -0.886493481 -0.1484543807
| 16> C 2.3080864104 0.5856311664 -0.497572882
| 17> C 1.3057431589 1.2733485719 0.4271174611
| 18> H -2.5244615672 -1.2598706814 -1.358113787
| 19> H -1.9496740701 -1.8976498636 0.1839579253
| 20> H -3.6618063481 -1.5590779935 -0.0448895757
| 21> H -3.2707948024 0.8271441848 -0.169800281
| 22> H -2.5460052312 0.2191184008 1.3155966759
| 23> H -1.0000303351 0.7709768761 -1.2577356898
| 24> H -1.2141899434 1.9213940383 0.0593354882
| 25> H -0.1539700853 0.1777865729 1.5956444335
| 26> H 0.3365197702 -1.8805613023 0.5837024299
| 27> H 0.1946729649 -1.1856474633 -1.0326273789
| 28> H 2.6021140891 -1.0963955102 0.8135398731
| 29> H 2.5580837719 -1.5557055896 -0.8943970544
| 30> H 3.3265286664 0.9398148709 -0.345009652
| 31> H 2.0354525183 0.7538147402 -1.5404541527
| 32> H 1.7585515441 1.4177653407 1.409029554
| 33> H 1.0088731403 2.2507025531 0.0496081625
| 34> *
| 35>
| 36>                          ****END OF INPUT****

CARTESIAN COORDINATES (ANGSTROEM)
---------------------------------
  C     -2.656234   -1.216356   -0.279307
  C     -2.461567    0.208174    0.226351
  C     -1.134741    0.857003   -0.177189
  C      0.103597    0.306201    0.540240
  C      0.613507   -1.030470   -0.038100
  C      2.131407   -0.886493   -0.148454
  C      2.308086    0.585631   -0.497573
  C      1.305743    1.273349    0.427117
  H     -2.524462   -1.259871   -1.358114
  H     -1.949674   -1.897650    0.183958
  H     -3.661806   -1.559078   -0.044890
  H     -3.270795    0.827144   -0.169800
  H     -2.546005    0.219118    1.315597
  H     -1.000030    0.770977   -1.257736
  H     -1.214190    1.921394    0.059335
  H     -0.153970    0.177787    1.595644
  H      0.336520   -1.880561    0.583702
  H      0.194673   -1.185647   -1.032627
  H      2.602114   -1.096396    0.813540
  H      2.558084   -1.555706   -0.894397
  H      3.326529    0.939815   -0.345010
  H      2.035453    0.753815   -1.540454
  H      1.758552    1.417765    1.409030
  H      1.008873    2.250703    0.049608

 Total Charge           Charge          ....    0
 Multiplicity           Mult            ....    1
 Number of Electrons    NEL             ....   64
 Basis Dimension        Dim             ....  232

ORBITAL ENERGIES
----------------

  NO   OCC          E(Eh)            E(eV)
   0   2.0000     -10.017416      -272.5877
   1   2.0000     -10.013933      -272.4930
   2   2.0000     -10.011004      -272.4133
   3   2.0000     -10.010861      -272.4094
   4   2.0000     -10.010195      -272.3913
   5   2.0000     -10.008981      -272.3582
   6   2.0000     -10.008831      -272.3541
   7   2.0000     -10.004886      -272.2468
   8   2.0000      -0.797786       -21.7089
   9   2.0000      -0.741621       -20.1805
  10   2.0000      -0.679049       -18.4779
  11   2.0000      -0.663796       -18.0628
  12   2.0000      -0.617443       -16.8015
  13   2.0000      -0.540295       -14.7022
  14   2.0000      -0.526979       -14.3398
  15   2.0000      -0.503491       -13.7007
  16   2.0000      -0.444327       -12.0908
  17   2.0000      -0.431135       -11.7318
  18   2.0000      -0.401476       -10.9247
  19   2.0000      -0.396470       -10.7885
  20   2.0000      -0.375566       -10.2197
  21   2.0000      -0.370243       -10.0748
  22   2.0000      -0.341492        -9.2925
  23   2.0000      -0.323672        -8.8076
  24   2.0000      -0.313372        -8.5273
  25   2.0000      -0.294863        -8.0236
  26   2.0000      -0.293229        -7.9792
  27   2.0000      -0.290953        -7.9172
  28   2.0000      -0.283268        -7.7081
  29   2.0000      -0.270097        -7.3497
  30   2.0000      -0.266349        -7.2477
  31   2.0000      -0.259309        -7.0561
  32   0.0000       0.090821         2.4714
  33   0.0000       0.098242         2.6733
  34   0.0000       0.100549         2.7361
  35   0.0000       0.122154         3.3240
  36   0.0000       0.133608         3.6357

MULLIKEN ATOMIC CHARGES
-----------------------
   0 C :   -0.527498
   1 C :   -0.241199
   2 C :   -0.355135
   3 C :    0.038618
   4 C :   -0.452895
   5 C :   -0.282872
   6 C :   -0.325286
   7 C :   -0.389696
   8 H :    0.156205
   9 H :    0.159604
  10 H :    0.152640
  11 H :    0.146201
  12 H :    0.143485
  13 H :    0.155740
  14 H :    0.150402
  15 H :    0.172148
  16 H :    0.167406
  17 H :    0.174331
  18 H :    0.156505
  19 H :    0.158026
  20 H :    0.157641
  21 H :    0.163600
  22 H :    0.163340
  23 H :    0.158693
Sum of atomic charges:    0.0000000

LOEWDIN ATOMIC CHARGES
----------------------
   0 C :   -0.434836
   1 C :   -0.316384
   2 C :   -0.303895
   3 C :   -0.223959
   4 C :   -0.307021
   5 C :   -0.307223
   6 C :   -0.307810
   7 C :   -0.302635
   8 H :    0.151756
   9 H :    0.153758
  10 H :    0.150375
  11 H :    0.152392
  12 H :    0.153053
  13 H :    0.157430
  14 H :    0.158106
  15 H :    0.162036
  16 H :    0.158811
  17 H :    0.160802
  18 H :    0.157109
  19 H :    0.156568
  20 H :    0.156725
  21 H :    0.156152
  22 H :    0.158973
  23 H :    0.159717

  Mayer bond orders larger than 0.100000
B(  0-C ,  1-C ) :   0.8842 B(  0-C ,  8-H ) :   0.9806 B(  0-C ,  9-H ) :   0.9761
B(  0-C , 10-H ) :   0.9684 B(  1-C ,  2-C ) :   0.8963 B(  1-C , 11-H ) :   0.9645
B(  1-C , 12-H ) :   0.9899 B(  2-C ,  3-C ) :   0.8828 B(  2-C , 13-H ) :   0.9869
B(  2-C , 14-H ) :   0.9815 B(  3-C ,  4-C ) :   0.8600 B(  3-C ,  7-C ) :   0.9065
B(  3-C , 15-H ) :   0.9768 B(  4-C ,  5-C ) :   0.8992 B(  4-C , 16-H ) :   0.9584
B(  4-C , 17-H ) :   0.9993 B(  5-C ,  6-C ) :   0.8912 B(  5-C , 18-H ) :   0.9814
B(  5-C , 19-H ) :   0.9588 B(  6-C ,  7-C ) :   0.9115 B(  6-C , 20-H ) :   0.9505
B(  6-C , 21-H ) :   1.0009 B(  7-C , 22-H ) :   0.9790 B(  7-C , 23-H ) :   0.9738

Dispersion correction           -0.007125662
FINAL SINGLE POINT ENERGY      -314.376405667215

DIPOLE MOMENT
-------------

Method             : SCF
Type of density    : Electron Density
Multiplicity       :   1
Irrep              :   0
Energy             :  -314.3795875805890319 Eh
Relativity type    :
Basis              : AO
                                X                 Y                 Z
Electronic contribution:      2.336338497       1.105456412       0.636564584
Nuclear contribution   :     -2.345535112      -1.084883132      -0.593494162
                        -----------------------------------------
Total Dipole Moment    :     -0.009196615       0.020573279       0.043070422
                        -----------------------------------------
Magnitude (a.u.)       :      0.048609657
Magnitude (Debye)      :      0.123555930

Rotational constants in cm-1:             0.133953             0.039994             0.033743
Rotational constants in MHz :          4015.796066          1198.987788          1011.594148

                             ****ORCA TERMINATED NORMALLY****
TOTAL RUN TIME: 0 days 0 hours 0 minutes 30 seconds 242 msec
