                         Program Version 6.0.0  -   RELEASE  -
|  1> ! pbe def2-sv(p) def2/J RI DEFGRID1 loosescf d4 GCP(DFT/SV(P)) printgap
|  2> %output
|  3>     printlevel normal
|  4> end
|  5> * xyz 0 1
|  6> C 0.7134786239 -2.8249678294 0.0504009283
|  7> O 1.4529487314 -1.6202174945 -0.039485604
|  8> C 0.8472127354 -0.4196316054 -0.0178605854
|  9> C 1.7209244039 0.6841385826 0.0014817749
| 10> C 1.2666329824 1.9846066442 0.0257981466
| 11> C -0.0961324101 2.2372093574 0.0314108486
| 12> C -0.9660947383 1.1670070734 0.0068913611
| 13> C -0.5259964864 -0.1581195841 -0.0166895454
| 14> C -1.6167429037 -1.1915525178 -0.085573655
| 15> O -2.0967914037 -1.5881974484 -1.122934015
| 16> O -2.0321324122 -1.5672444575 1.1056844148
| 17> Cl -2.6757129907 1.4548675588 -0.0054347803
| 18> Cl 3.4178051574 0.3575265885 -0.0069955983
| 19> H 0.0388282222 -2.9430216285 -0.7996097899
| 20> H 0.1597424984 -2.8704718303 0.9899208246
| 21> H 1.4639024663 -3.6123826629 0.0292942655
| 22> H 1.9744677272 2.7960151406 0.0415720374
| 23> H -0.4730624415 3.2449624136 0.0524645005
| 24> H -2.7963424181 -2.178819793 1.0735569947
| 25> *
| 26>
| 27>                          ****END OF INPUT****

CARTESIAN COORDINATES (ANGSTROEM)
---------------------------------
  C      0.713479   -2.824968    0.050401
  O      1.452949   -1.620217   -0.039486
  C      0.847213   -0.419632   -0.017861
  C      1.720924    0.684139    0.001482
  C      1.266633    1.984607    0.025798
  C     -0.096132    2.237209    0.031411
  C     -0.966095    1.167007    0.006891
  C     -0.525996   -0.158120   -0.016690
  C     -1.616743   -1.191553   -0.085574
  O     -2.096791   -1.588197   -1.122934
  O     -2.032132   -1.567244    1.105684
  Cl    -2.675713    1.454868   -0.005435
  Cl     3.417805    0.357527   -0.006996
  H      0.038828   -2.943022   -0.799610
  H      0.159742   -2.870472    0.989921
  H      1.463902   -3.612383    0.029294
  H      1.974468    2.796015    0.041572
  H     -0.473062    3.244962    0.052465
  H     -2.796342   -2.178820    1.073557

 Total Charge           Charge          ....    0
 Multiplicity           Mult            ....    1
 Number of Electrons    NEL             ....  112
 Basis Dimension        Dim             ....  202

ORBITAL ENERGIES
----------------

  NO   OCC          E(Eh)            E(eV)
   0   2.0000    -100.648746     -2738.7916
   1   2.0000    -100.639741     -2738.5466
   2   2.0000     -18.818862      -512.0873
   3   2.0000     -18.809871      -511.8426
   4   2.0000     -18.754023      -510.3229
   5   2.0000     -10.036842      -273.1164
   6   2.0000      -9.983071      -271.6532
   7   2.0000      -9.964536      -271.1488
   8   2.0000      -9.954752      -270.8826
   9   2.0000      -9.949868      -270.7497
  10   2.0000      -9.930371      -270.2191
  11   2.0000      -9.915137      -269.8046
  12   2.0000      -9.909654      -269.6554
  13   2.0000      -9.184400      -249.9202
  14   2.0000      -9.175551      -249.6794
  15   2.0000      -7.015711      -190.9072
  16   2.0000      -7.007048      -190.6715
  17   2.0000      -7.004264      -190.5957
  18   2.0000      -7.003931      -190.5867
  19   2.0000      -6.995569      -190.3591
  20   2.0000      -6.994723      -190.3361
  21   2.0000      -1.029059       -28.0021
  22   2.0000      -0.993944       -27.0466
  23   2.0000      -0.930411       -25.3178
  24   2.0000      -0.831781       -22.6339
  25   2.0000      -0.804766       -21.8988
  26   2.0000      -0.753040       -20.4913
  27   2.0000      -0.711919       -19.3723
  28   2.0000      -0.684252       -18.6194
  29   2.0000      -0.635555       -17.2943
  30   2.0000      -0.616591       -16.7783
  31   2.0000      -0.561550       -15.2806
  32   2.0000      -0.549681       -14.9576
  33   2.0000      -0.502790       -13.6816
  34   2.0000      -0.475023       -12.9260
  35   2.0000      -0.468093       -12.7375
  36   2.0000      -0.440010       -11.9733
  37   2.0000      -0.437031       -11.8922
  38   2.0000      -0.425731       -11.5847
  39   2.0000      -0.407701       -11.0941
  40   2.0000      -0.405417       -11.0320
  41   2.0000      -0.401354       -10.9214
  42   2.0000      -0.379273       -10.3205
  43   2.0000      -0.363436        -9.8896
  44   2.0000      -0.358257        -9.7487
  45   2.0000      -0.341527        -9.2934
  46   2.0000      -0.335079        -9.1180
  47   2.0000      -0.306416        -8.3380
  48   2.0000      -0.304139        -8.2761
  49   2.0000      -0.290282        -7.8990
  50   2.0000      -0.277139        -7.5413
  51   2.0000      -0.272174        -7.4062
  52   2.0000      -0.264767        -7.2047
  53   2.0000      -0.250319        -6.8115
  54   2.0000      -0.221956        -6.0397
  55   2.0000      -0.203053        -5.5254
  56   0.0000      -0.056106        -1.5267
  57   0.0000      -0.046375        -1.2619
  58   0.0000      -0.043774        -1.1911
  59   0.0000      -0.006481        -0.1764
  60   0.0000       0.015437         0.4201

MULLIKEN ATOMIC CHARGES
-----------------------
   0 C :   -0.115262
   1 O :   -0.238749
   2 C :    0.163819
   3 C :    0.043724
   4 C :   -0.094554
   5 C :   -0.121852
   6 C :    0.109731
   7 C :   -0.061723
   8 C :    0.041326
   9 O :   -0.161041
  10 O :   -0.261969
  11 Cl:   -0.064725
  12 Cl:   -0.056040
  13 H :    0.138423
  14 H :    0.118025
  15 H :    0.132618
  16 H :    0.055182
  17 H :    0.051169
  18 H :    0.321900
Sum of atomic charges:    0.0000000

LOEWDIN ATOMIC CHARGES
----------------------
   0 C :   -0.209430
   1 O :   -0.069281
   2 C :    0.025420
   3 C :   -0.155776
   4 C :   -0.127025
   5 C :   -0.154204
   6 C :   -0.114052
   7 C :   -0.115750
   8 C :    0.009612
   9 O :   -0.144244
  10 O :   -0.183449
  11 Cl:    0.151555
  12 Cl:    0.145195
  13 H :    0.123152
  14 H :    0.115103
  15 H :    0.128106
  16 H :    0.136967
  17 H :    0.135288
  18 H :    0.302813

  Mayer bond orders larger than 0.100000
B(  0-C ,  1-O ) :   0.9569 B(  0-C , 13-H ) :   0.9223 B(  0-C , 14-H ) :   0.9317
B(  0-C , 15-H ) :   0.9510 B(  1-O ,  2-C ) :   1.2590 B(  2-C ,  3-C ) :   1.3157
B(  2-C ,  7-C ) :   1.3754 B(  3-C ,  4-C ) :   1.4473 B(  3-C , 12-Cl) :   1.0077
B(  4-C ,  5-C ) :   1.2863 B(  4-C , 16-H ) :   0.9696 B(  5-C ,  6-C ) :   1.3944
B(  5-C , 17-H ) :   0.9715 B(  6-C ,  7-C ) :   1.4189 B(  6-C , 11-Cl) :   1.0174
B(  7-C ,  8-C ) :   0.8235 B(  8-C ,  9-O ) :   2.1061 B(  8-C , 10-O ) :   1.3086
B( 10-O , 18-H ) :   0.8145

Dispersion correction           -0.027408040
FINAL SINGLE POINT ENERGY     -1452.784179887162

DIPOLE MOMENT
-------------

Method             : SCF
Type of density    : Electron Density
Multiplicity       :   1
Irrep              :   0
Energy             : -1452.8390885406588495 Eh
Relativity type    :
Basis              : AO
                                X                 Y                 Z
Electronic contribution:      0.423846041       7.195136502      -0.651606410
Nuclear contribution   :     -0.690818738      -7.723005232       1.317280120
                        -----------------------------------------
Total Dipole Moment    :     -0.266972697      -0.527868730       0.665673710
                        -----------------------------------------
Magnitude (a.u.)       :      0.890528666
Magnitude (Debye)      :      2.263543982

Rotational constants in cm-1:             0.031095             0.016679             0.011488
Rotational constants in MHz :           932.217246           500.031133           344.402776

                             ****ORCA TERMINATED NORMALLY****
TOTAL RUN TIME: 0 days 0 hours 0 minutes 16 seconds 405 msec
