                         Program Version 6.0.0  -   RELEASE  -
|  1> ! r2scan-3c def2/J RI DEFGRID2 scfconv6 printgap
|  2> %output
|  3>     printlevel normal
|  4> end
|  5> * xyz 0 1
|  6> C -2.2153995853 0.6040849463 -1.0114932032
|  7> C -1.9190992866 -0.6560989308 -0.2040723634
|  8> C -1.1708964208 -0.4373825844 1.1167161915
|  9> C 0.3459372638 -0.1860401686 1.0728625274
| 10> C 1.1204963799 -1.1810079281 0.1884062029
| 11> C 1.4867989247 -0.3993589299 -1.0703740007
| 12> C 1.799957089 0.9914784619 -0.5270595222
| 13> C 0.7445682162 1.2153977856 0.5609003063
| 14> H -2.9136279221 0.3703134355 -1.8131056425
| 15> H -2.6677805255 1.3660769725 -0.3798141115
| 16> H -1.3169797989 1.0131174475 -1.4637553818
| 17> H -2.8758153093 -1.1223732037 0.0474794557
| 18> H -1.3747918885 -1.3643222085 -0.8292885874
| 19> H -1.6384718193 0.3930136105 1.65214976
| 20> H -1.3238875179 -1.3355762872 1.7220987837
| 21> H 0.6885706584 -0.29363323 2.107330729
| 22> H 2.0358659249 -1.4861551576 0.6983776744
| 23> H 0.5444403852 -2.0798134539 -0.0242158685
| 24> H 2.3296002077 -0.8394470374 -1.6025083838
| 25> H 0.6373168659 -0.3539152348 -1.751899023
| 26> H 2.7982243721 0.9923887758 -0.0857717258
| 27> H 1.768978718 1.7606898636 -1.297935545
| 28> H 1.1369735173 1.8328452524 1.3688755594
| 29> H -0.1209732034 1.7298506557 0.1518152163
| 30> *
| 31>
| 32>                          ****END OF INPUT****

CARTESIAN COORDINATES (ANGSTROEM)
---------------------------------
  C     -2.215400    0.604085   -1.011493
  C     -1.919099   -0.656099   -0.204072
  C     -1.170896   -0.437383    1.116716
  C      0.345937   -0.186040    1.072863
  C      1.120496   -1.181008    0.188406
  C      1.486799   -0.399359   -1.070374
  C      1.799957    0.991478   -0.527060
  C      0.744568    1.215398    0.560900
  H     -2.913628    0.370313   -1.813106
  H     -2.667781    1.366077   -0.379814
  H     -1.316980    1.013117   -1.463755
  H     -2.875815   -1.122373    0.047479
  H     -1.374792   -1.364322   -0.829289
  H     -1.638472    0.393014    1.652150
  H     -1.323888   -1.335576    1.722099
  H      0.688571   -0.293633    2.107331
  H      2.035866   -1.486155    0.698378
  H      0.544440   -2.079813   -0.024216
  H      2.329600   -0.839447   -1.602508
  H      0.637317   -0.353915   -1.751899
  H      2.798224    0.992389   -0.085772
  H      1.768979    1.760690   -1.297936
  H      1.136974    1.832845    1.368876
  H     -0.120973    1.729851    0.151815

 Total Charge           Charge          ....    0
 Multiplicity           Mult            ....    1
 Number of Electrons    NEL             ....   64
 Basis Dimension        Dim             ....  232

ORBITAL ENERGIES
----------------

  NO   OCC          E(Eh)            E(eV)
   0   2.0000     -10.024467      -272.7796
   1   2.0000     -10.022206      -272.7181
   2   2.0000     -10.018921      -272.6287
   3   2.0000     -10.018145      -272.6076
   4   2.0000     -10.017982      -272.6031
   5   2.0000     -10.016465      -272.5619
   6   2.0000     -10.014237      -272.5012
   7   2.0000     -10.013923      -272.4927
   8   2.0000      -0.803938       -21.8763
   9   2.0000      -0.745853       -20.2957
  10   2.0000      -0.688256       -18.7284
  11   2.0000      -0.671420       -18.2703
  12   2.0000      -0.624518       -16.9940
  13   2.0000      -0.556158       -15.1338
  14   2.0000      -0.532189       -14.4816
  15   2.0000      -0.496961       -13.5230
  16   2.0000      -0.456730       -12.4282
  17   2.0000      -0.441065       -12.0020
  18   2.0000      -0.408463       -11.1148
  19   2.0000      -0.402855       -10.9623
  20   2.0000      -0.378174       -10.2906
  21   2.0000      -0.371811       -10.1175
  22   2.0000      -0.363940        -9.9033
  23   2.0000      -0.321897        -8.7593
  24   2.0000      -0.318988        -8.6801
  25   2.0000      -0.310943        -8.4612
  26   2.0000      -0.301167        -8.1952
  27   2.0000      -0.299562        -8.1515
  28   2.0000      -0.288349        -7.8464
  29   2.0000      -0.276267        -7.5176
  30   2.0000      -0.271627        -7.3913
  31   2.0000      -0.262388        -7.1399
  32   0.0000       0.076398         2.0789
  33   0.0000       0.087689         2.3861
  34   0.0000       0.098969         2.6931
  35   0.0000       0.112428         3.0593
  36   0.0000       0.121347         3.3020

MULLIKEN ATOMIC CHARGES
-----------------------
   0 C :   -0.500658
   1 C :   -0.209781
   2 C :   -0.407032
   3 C :    0.112464
   4 C :   -0.422310
   5 C :   -0.258461
   6 C :   -0.302870
   7 C :   -0.429142
   8 H :    0.145031
   9 H :    0.148170
  10 H :    0.148219
  11 H :    0.140037
  12 H :    0.140764
  13 H :    0.149022
  14 H :    0.148889
  15 H :    0.155203
  16 H :    0.156056
  17 H :    0.160415
  18 H :    0.152018
  19 H :    0.151807
  20 H :    0.148049
  21 H :    0.154604
  22 H :    0.152538
  23 H :    0.166970
Sum of atomic charges:   -0.0000000

LOEWDIN ATOMIC CHARGES
----------------------
   0 C :   -0.432252
   1 C :   -0.317451
   2 C :   -0.300697
   3 C :   -0.223274
   4 C :   -0.300875
   5 C :   -0.303960
   6 C :   -0.303198
   7 C :   -0.300940
   8 H :    0.149946
   9 H :    0.149793
  10 H :    0.147472
  11 H :    0.152924
  12 H :    0.153136
  13 H :    0.157091
  14 H :    0.156858
  15 H :    0.160023
  16 H :    0.157957
  17 H :    0.158441
  18 H :    0.155172
  19 H :    0.154487
  20 H :    0.154915
  21 H :    0.155829
  22 H :    0.156848
  23 H :    0.161754

  Mayer bond orders larger than 0.100000
B(  0-C ,  1-C ) :   0.8853 B(  0-C ,  8-H ) :   0.9686 B(  0-C ,  9-H ) :   0.9850
B(  0-C , 10-H ) :   0.9805 B(  1-C ,  2-C ) :   0.8961 B(  1-C , 11-H ) :   0.9622
B(  1-C , 12-H ) :   0.9739 B(  2-C ,  3-C ) :   0.8582 B(  2-C , 13-H ) :   0.9887
B(  2-C , 14-H ) :   0.9795 B(  3-C ,  4-C ) :   0.9121 B(  3-C ,  7-C ) :   0.9049
B(  3-C , 15-H ) :   0.9485 B(  4-C ,  5-C ) :   0.8837 B(  4-C , 16-H ) :   0.9726
B(  4-C , 17-H ) :   0.9744 B(  5-C ,  6-C ) :   0.8980 B(  5-C , 18-H ) :   0.9487
B(  5-C , 19-H ) :   0.9957 B(  6-C ,  7-C ) :   0.8996 B(  6-C , 20-H ) :   0.9849
B(  6-C , 21-H ) :   0.9647 B(  7-C , 22-H ) :   0.9577 B(  7-C , 23-H ) :   0.9944

Dispersion correction           -0.007532122
FINAL SINGLE POINT ENERGY      -314.376535299025

DIPOLE MOMENT
-------------

Method             : SCF
Type of density    : Electron Density
Multiplicity       :   1
Irrep              :   0
Energy             :  -314.3795567423628654 Eh
Relativity type    :
Basis              : AO
                                X                 Y                 Z
Electronic contribution:      2.141344023      -0.579053764       1.444439769
Nuclear contribution   :     -2.150604926       0.547005530      -1.407401318
                        -----------------------------------------
Total Dipole Moment    :     -0.009260903      -0.032048234       0.037038452
                        -----------------------------------------
Magnitude (a.u.)       :      0.049846770
Magnitude (Debye)      :      0.126700421

Rotational constants in cm-1:             0.096564             0.049557             0.046260
Rotational constants in MHz :          2894.912407          1485.685314          1386.853033

                             ****ORCA TERMINATED NORMALLY****
TOTAL RUN TIME: 0 days 0 hours 0 minutes 23 seconds 720 msec
