                         Program Version 6.0.0  -   RELEASE  -
|  1> ! r2scan-3c def2/J RI DEFGRID2 scfconv6 printgap
|  2> %output
|  3>     printlevel normal
|  4> end
|  5> %cpcm
|  6>     smd true
|  7>     smdsolvent "water"
|  8> end
|  9> * xyz 0 1
| 10> C -2.2153995853 0.6040849463 -1.0114932032
| 11> C -1.9190992866 -0.6560989308 -0.2040723634
| 12> C -1.1708964208 -0.4373825844 1.1167161915
| 13> C 0.3459372638 -0.1860401686 1.0728625274
| 14> C 1.1204963799 -1.1810079281 0.1884062029
| 15> C 1.4867989247 -0.3993589299 -1.0703740007
| 16> C 1.799957089 0.9914784619 -0.5270595222
| 17> C 0.7445682162 1.2153977856 0.5609003063
| 18> H -2.9136279221 0.3703134355 -1.8131056425
| 19> H -2.6677805255 1.3660769725 -0.3798141115
| 20> H -1.3169797989 1.0131174475 -1.4637553818
| 21> H -2.8758153093 -1.1223732037 0.0474794557
| 22> H -1.3747918885 -1.3643222085 -0.8292885874
| 23> H -1.6384718193 0.3930136105 1.65214976
| 24> H -1.3238875179 -1.3355762872 1.7220987837
| 25> H 0.6885706584 -0.29363323 2.107330729
| 26> H 2.0358659249 -1.4861551576 0.6983776744
| 27> H 0.5444403852 -2.0798134539 -0.0242158685
| 28> H 2.3296002077 -0.8394470374 -1.6025083838
| 29> H 0.6373168659 -0.3539152348 -1.751899023
| 30> H 2.7982243721 0.9923887758 -0.0857717258
| 31> H 1.768978718 1.7606898636 -1.297935545
| 32> H 1.1369735173 1.8328452524 1.3688755594
| 33> H -0.1209732034 1.7298506557 0.1518152163
| 34> *
| 35>
| 36>                          ****END OF INPUT****

CARTESIAN COORDINATES (ANGSTROEM)
---------------------------------
  C     -2.215400    0.604085   -1.011493
  C     -1.919099   -0.656099   -0.204072
  C     -1.170896   -0.437383    1.116716
  C      0.345937   -0.186040    1.072863
  C      1.120496   -1.181008    0.188406
  C      1.486799   -0.399359   -1.070374
  C      1.799957    0.991478   -0.527060
  C      0.744568    1.215398    0.560900
  H     -2.913628    0.370313   -1.813106
  H     -2.667781    1.366077   -0.379814
  H     -1.316980    1.013117   -1.463755
  H     -2.875815   -1.122373    0.047479
  H     -1.374792   -1.364322   -0.829289
  H     -1.638472    0.393014    1.652150
  H     -1.323888   -1.335576    1.722099
  H      0.688571   -0.293633    2.107331
  H      2.035866   -1.486155    0.698378
  H      0.544440   -2.079813   -0.024216
  H      2.329600   -0.839447   -1.602508
  H      0.637317   -0.353915   -1.751899
  H      2.798224    0.992389   -0.085772
  H      1.768979    1.760690   -1.297936
  H      1.136974    1.832845    1.368876
  H     -0.120973    1.729851    0.151815

 Total Charge           Charge          ....    0
 Multiplicity           Mult            ....    1
 Number of Electrons    NEL             ....   64
 Basis Dimension        Dim             ....  232

ORBITAL ENERGIES
----------------

  NO   OCC          E(Eh)            E(eV)
   0   2.0000     -10.017357      -272.5861
   1   2.0000     -10.014041      -272.4959
   2   2.0000     -10.011444      -272.4252
   3   2.0000     -10.011262      -272.4203
   4   2.0000     -10.010868      -272.4096
   5   2.0000     -10.009085      -272.3611
   6   2.0000     -10.007383      -272.3147
   7   2.0000     -10.005472      -272.2627
   8   2.0000      -0.796872       -21.6840
   9   2.0000      -0.738253       -20.0889
  10   2.0000      -0.681037       -18.5320
  11   2.0000      -0.664735       -18.0884
  12   2.0000      -0.617356       -16.7991
  13   2.0000      -0.548808       -14.9338
  14   2.0000      -0.525545       -14.3008
  15   2.0000      -0.490001       -13.3336
  16   2.0000      -0.449203       -12.2234
  17   2.0000      -0.434130       -11.8133
  18   2.0000      -0.400952       -10.9105
  19   2.0000      -0.395284       -10.7562
  20   2.0000      -0.370649       -10.0859
  21   2.0000      -0.364099        -9.9076
  22   2.0000      -0.356405        -9.6983
  23   2.0000      -0.314410        -8.5555
  24   2.0000      -0.311550        -8.4777
  25   2.0000      -0.302856        -8.2411
  26   2.0000      -0.294469        -8.0129
  27   2.0000      -0.293070        -7.9748
  28   2.0000      -0.280858        -7.6425
  29   2.0000      -0.268913        -7.3175
  30   2.0000      -0.264486        -7.1970
  31   2.0000      -0.254847        -6.9347
  32   0.0000       0.085087         2.3153
  33   0.0000       0.095263         2.5922
  34   0.0000       0.106063         2.8861
  35   0.0000       0.119664         3.2562
  36   0.0000       0.128536         3.4976

MULLIKEN ATOMIC CHARGES
-----------------------
   0 C :   -0.533511
   1 C :   -0.220512
   2 C :   -0.419219
   3 C :    0.106242
   4 C :   -0.435176
   5 C :   -0.278767
   6 C :   -0.320808
   7 C :   -0.439976
   8 H :    0.152871
   9 H :    0.156878
  10 H :    0.160165
  11 H :    0.146957
  12 H :    0.149898
  13 H :    0.155238
  14 H :    0.154675
  15 H :    0.161734
  16 H :    0.163781
  17 H :    0.168945
  18 H :    0.158477
  19 H :    0.162702
  20 H :    0.156582
  21 H :    0.161118
  22 H :    0.159438
  23 H :    0.172268
Sum of atomic charges:   -0.0000000

LOEWDIN ATOMIC CHARGES
----------------------
   0 C :   -0.439605
   1 C :   -0.319411
   2 C :   -0.303831
   3 C :   -0.223406
   4 C :   -0.304590
   5 C :   -0.307992
   6 C :   -0.307392
   7 C :   -0.304529
   8 H :    0.151194
   9 H :    0.151875
  10 H :    0.150802
  11 H :    0.154139
  12 H :    0.155786
  13 H :    0.158470
  14 H :    0.157812
  15 H :    0.161522
  16 H :    0.159485
  17 H :    0.160730
  18 H :    0.156246
  19 H :    0.157555
  20 H :    0.156718
  21 H :    0.157270
  22 H :    0.158016
  23 H :    0.163137

  Mayer bond orders larger than 0.100000
B(  0-C ,  1-C ) :   0.8781 B(  0-C ,  8-H ) :   0.9670 B(  0-C ,  9-H ) :   0.9820
B(  0-C , 10-H ) :   0.9786 B(  1-C ,  2-C ) :   0.8919 B(  1-C , 11-H ) :   0.9633
B(  1-C , 12-H ) :   0.9747 B(  2-C ,  3-C ) :   0.8541 B(  2-C , 13-H ) :   0.9869
B(  2-C , 14-H ) :   0.9797 B(  3-C ,  4-C ) :   0.9127 B(  3-C ,  7-C ) :   0.9063
B(  3-C , 15-H ) :   0.9500 B(  4-C ,  5-C ) :   0.8815 B(  4-C , 16-H ) :   0.9725
B(  4-C , 17-H ) :   0.9722 B(  5-C ,  6-C ) :   0.8956 B(  5-C , 18-H ) :   0.9480
B(  5-C , 19-H ) :   0.9946 B(  6-C ,  7-C ) :   0.8968 B(  6-C , 20-H ) :   0.9834
B(  6-C , 21-H ) :   0.9629 B(  7-C , 22-H ) :   0.9570 B(  7-C , 23-H ) :   0.9941

Dispersion correction           -0.007532122
FINAL SINGLE POINT ENERGY      -314.374049889959

DIPOLE MOMENT
-------------

Method             : SCF
Type of density    : Electron Density
Multiplicity       :   1
Irrep              :   0
Energy             :  -314.3770713332975788 Eh
Relativity type    :
Basis              : AO
                                X                 Y                 Z
Electronic contribution:      2.137944609      -0.590345205       1.443187248
Nuclear contribution   :     -2.150604926       0.547005530      -1.407401318
                        -----------------------------------------
Total Dipole Moment    :     -0.012660317      -0.043339675       0.035785930
                        -----------------------------------------
Magnitude (a.u.)       :      0.057612879
Magnitude (Debye)      :      0.146440301

Rotational constants in cm-1:             0.096564             0.049557             0.046260
Rotational constants in MHz :          2894.912407          1485.685314          1386.853033

                             ****ORCA TERMINATED NORMALLY****
TOTAL RUN TIME: 0 days 0 hours 0 minutes 29 seconds 628 msec
