                         Program Version 6.0.0  -   RELEASE  -
|  1> ! pbe def2-sv(p) def2/J RI DEFGRID1 loosescf d4 GCP(DFT/SV(P)) printgap
|  2> %output
|  3>     printlevel normal
|  4> end
|  5> * xyz 0 1
|  6> C -1.8856300629 -1.2253457246 -0.2781564403
|  7> C -1.2052990371 -0.099684626 0.493011032
|  8> C -0.1444806581 0.6489956195 -0.3227829475
|  9> C 0.3604879828 1.8657174153 0.4528783325
| 10> C 1.0243680698 -0.2422503771 -0.7706787917
| 11> C 1.8227062448 -0.8898048927 0.3692925438
| 12> H -2.2890238478 -0.8547874374 -1.2182077337
| 13> H -1.1869603374 -2.0288539726 -0.4946534786
| 14> H -2.7040019968 -1.6382751486 0.3070750583
| 15> H -0.757756264 -0.5066019203 1.4011838853
| 16> H -1.9650327855 0.6227928094 0.8016227283
| 17> H -0.62972687 1.0138512941 -1.2369732396
| 18> H 1.0914544381 2.4146050012 -0.1361768728
| 19> H 0.829235734 1.5662271298 1.3866287661
| 20> H -0.4639294765 2.5354634783 0.6870530844
| 21> H 0.6322626749 -1.0174536246 -1.4298295609
| 22> H 1.691893314 0.3744811044 -1.3761733708
| 23> H 1.4185925673 -0.6218431924 1.3408143267
| 24> H 2.8617761469 -0.5724586451 0.3471588494
| 25> H 1.8030709053 -1.9738845233 0.2930205212
| 26> *
| 27>
| 28>                          ****END OF INPUT****

CARTESIAN COORDINATES (ANGSTROEM)
---------------------------------
  C     -1.885630   -1.225346   -0.278156
  C     -1.205299   -0.099685    0.493011
  C     -0.144481    0.648996   -0.322783
  C      0.360488    1.865717    0.452878
  C      1.024368   -0.242250   -0.770679
  C      1.822706   -0.889805    0.369293
  H     -2.289024   -0.854787   -1.218208
  H     -1.186960   -2.028854   -0.494653
  H     -2.704002   -1.638275    0.307075
  H     -0.757756   -0.506602    1.401184
  H     -1.965033    0.622793    0.801623
  H     -0.629727    1.013851   -1.236973
  H      1.091454    2.414605   -0.136177
  H      0.829236    1.566227    1.386629
  H     -0.463929    2.535463    0.687053
  H      0.632263   -1.017454   -1.429830
  H      1.691893    0.374481   -1.376173
  H      1.418593   -0.621843    1.340814
  H      2.861776   -0.572459    0.347159
  H      1.803071   -1.973885    0.293021

 Total Charge           Charge          ....    0
 Multiplicity           Mult            ....    1
 Number of Electrons    NEL             ....   50
 Basis Dimension        Dim             ....  112

ORBITAL ENERGIES
----------------

  NO   OCC          E(Eh)            E(eV)
   0   2.0000      -9.887391      -269.0496
   1   2.0000      -9.877377      -268.7771
   2   2.0000      -9.877085      -268.7691
   3   2.0000      -9.869386      -268.5596
   4   2.0000      -9.869063      -268.5509
   5   2.0000      -9.867191      -268.4999
   6   2.0000      -0.732950       -19.9446
   7   2.0000      -0.665948       -18.1214
   8   2.0000      -0.638995       -17.3879
   9   2.0000      -0.567927       -15.4541
  10   2.0000      -0.547487       -14.8979
  11   2.0000      -0.474700       -12.9173
  12   2.0000      -0.424622       -11.5546
  13   2.0000      -0.407867       -11.0986
  14   2.0000      -0.377551       -10.2737
  15   2.0000      -0.366649        -9.9770
  16   2.0000      -0.360983        -9.8229
  17   2.0000      -0.334749        -9.1090
  18   2.0000      -0.331549        -9.0219
  19   2.0000      -0.318717        -8.6727
  20   2.0000      -0.299574        -8.1518
  21   2.0000      -0.296380        -8.0649
  22   2.0000      -0.271504        -7.3880
  23   2.0000      -0.267244        -7.2721
  24   2.0000      -0.264436        -7.1957
  25   0.0000       0.030447         0.8285
  26   0.0000       0.058389         1.5889
  27   0.0000       0.062155         1.6913
  28   0.0000       0.072176         1.9640
  29   0.0000       0.085667         2.3311

MULLIKEN ATOMIC CHARGES
-----------------------
   0 C :   -0.267462
   1 C :   -0.158781
   2 C :   -0.185337
   3 C :   -0.230928
   4 C :   -0.153230
   5 C :   -0.296901
   6 H :    0.095646
   7 H :    0.104045
   8 H :    0.100034
   9 H :    0.080954
  10 H :    0.079922
  11 H :    0.063962
  12 H :    0.094235
  13 H :    0.093551
  14 H :    0.095835
  15 H :    0.088032
  16 H :    0.081901
  17 H :    0.114465
  18 H :    0.100517
  19 H :    0.099540
Sum of atomic charges:    0.0000000

LOEWDIN ATOMIC CHARGES
----------------------
   0 C :   -0.340907
   1 C :   -0.227450
   2 C :   -0.152359
   3 C :   -0.329920
   4 C :   -0.228714
   5 C :   -0.348199
   6 H :    0.116594
   7 H :    0.116481
   8 H :    0.119216
   9 H :    0.113280
  10 H :    0.114315
  11 H :    0.112598
  12 H :    0.116008
  13 H :    0.115849
  14 H :    0.116508
  15 H :    0.113780
  16 H :    0.114870
  17 H :    0.116701
  18 H :    0.121174
  19 H :    0.120172

  Mayer bond orders larger than 0.100000
B(  0-C ,  1-C ) :   1.1609 B(  0-C ,  6-H ) :   0.9531 B(  0-C ,  7-H ) :   0.9478
B(  0-C ,  8-H ) :   0.9508 B(  1-C ,  2-C ) :   1.0869 B(  1-C ,  9-H ) :   0.9138
B(  1-C , 10-H ) :   0.9249 B(  2-C ,  3-C ) :   1.1126 B(  2-C ,  4-C ) :   1.0923
B(  2-C , 11-H ) :   0.8972 B(  3-C , 12-H ) :   0.9511 B(  3-C , 13-H ) :   0.9450
B(  3-C , 14-H ) :   0.9496 B(  4-C ,  5-C ) :   1.1183 B(  4-C , 15-H ) :   0.9301
B(  4-C , 16-H ) :   0.9317 B(  5-C , 17-H ) :   0.9529 B(  5-C , 18-H ) :   0.9574
B(  5-C , 19-H ) :   0.9572

Dispersion correction           -0.015330249
FINAL SINGLE POINT ENERGY      -236.444241465280

DIPOLE MOMENT
-------------

Method             : SCF
Type of density    : Electron Density
Multiplicity       :   1
Irrep              :   0
Energy             :  -236.5118464435065562 Eh
Relativity type    :
Basis              : AO
                                X                 Y                 Z
Electronic contribution:     -0.323608586       0.638702590      -0.643209920
Nuclear contribution   :      0.311332729      -0.644270598       0.630953697
                        -----------------------------------------
Total Dipole Moment    :     -0.012275858      -0.005568008      -0.012256223
                        -----------------------------------------
Magnitude (a.u.)       :      0.018218518
Magnitude (Debye)      :      0.046307793

Rotational constants in cm-1:             0.129895             0.090019             0.064940
Rotational constants in MHz :          3894.144255          2698.713293          1946.860542

                             ****ORCA TERMINATED NORMALLY****
TOTAL RUN TIME: 0 days 0 hours 0 minutes 8 seconds 813 msec
