                         Program Version 6.0.0  -   RELEASE  -
|  1> ! r2scan-3c def2/J RI DEFGRID2 scfconv6 printgap
|  2> %output
|  3>     printlevel normal
|  4> end
|  5> * xyz 0 1
|  6> C -2.2793490404 -0.2071000891 -0.1090212755
|  7> O -0.9402418231 -0.2893128437 0.3267302514
|  8> C -0.1064756641 0.6921182089 -0.2552193005
|  9> C 1.3161505761 0.5259492261 0.2786549429
| 10> O 1.9524147866 -0.6513775913 -0.1524351686
| 11> H -2.8144036333 -1.0020284066 0.4036131509
| 12> H -2.3493516437 -0.3515684194 -1.192945158
| 13> H -2.7153512389 0.7637961497 0.1515152522
| 14> H -0.1186530262 0.5891777612 -1.3513110692
| 15> H -0.4720359555 1.6969142332 0.0034122675
| 16> H 1.2800840253 0.4560611703 1.3671256049
| 17> H 1.9029719822 1.4087128245 -0.0081725382
| 18> H 1.9665129406 -0.6759499152 -1.1200377762
| 19> *
| 20>
| 21>                          ****END OF INPUT****

CARTESIAN COORDINATES (ANGSTROEM)
---------------------------------
  C     -2.279349   -0.207100   -0.109021
  O     -0.940242   -0.289313    0.326730
  C     -0.106476    0.692118   -0.255219
  C      1.316151    0.525949    0.278655
  O      1.952415   -0.651378   -0.152435
  H     -2.814404   -1.002028    0.403613
  H     -2.349352   -0.351568   -1.192945
  H     -2.715351    0.763796    0.151515
  H     -0.118653    0.589178   -1.351311
  H     -0.472036    1.696914    0.003412
  H      1.280084    0.456061    1.367126
  H      1.902972    1.408713   -0.008173
  H      1.966513   -0.675950   -1.120038

 Total Charge           Charge          ....    0
 Multiplicity           Mult            ....    1
 Number of Electrons    NEL             ....   42
 Basis Dimension        Dim             ....  145

ORBITAL ENERGIES
----------------

  NO   OCC          E(Eh)            E(eV)
   0   2.0000     -18.953107      -515.7403
   1   2.0000     -18.947255      -515.5810
   2   2.0000     -10.081137      -274.3217
   3   2.0000     -10.078286      -274.2441
   4   2.0000     -10.072086      -274.0754
   5   2.0000      -1.002655       -27.2836
   6   2.0000      -0.982096       -26.7242
   7   2.0000      -0.720195       -19.5975
   8   2.0000      -0.640167       -17.4198
   9   2.0000      -0.583196       -15.8696
  10   2.0000      -0.479504       -13.0480
  11   2.0000      -0.455903       -12.4058
  12   2.0000      -0.447779       -12.1847
  13   2.0000      -0.421126       -11.4594
  14   2.0000      -0.398717       -10.8496
  15   2.0000      -0.366405        -9.9704
  16   2.0000      -0.350589        -9.5400
  17   2.0000      -0.307536        -8.3685
  18   2.0000      -0.283186        -7.7059
  19   2.0000      -0.238109        -6.4793
  20   2.0000      -0.224207        -6.1010
  21   0.0000       0.061869         1.6836
  22   0.0000       0.075621         2.0577
  23   0.0000       0.109158         2.9703
  24   0.0000       0.115107         3.1322
  25   0.0000       0.128709         3.5024

MULLIKEN ATOMIC CHARGES
-----------------------
   0 C :   -0.281379
   1 O :   -0.216539
   2 C :   -0.160638
   3 C :   -0.143006
   4 O :   -0.399742
   5 H :    0.149670
   6 H :    0.128950
   7 H :    0.129221
   8 H :    0.117927
   9 H :    0.121700
  10 H :    0.142442
  11 H :    0.121782
  12 H :    0.289611
Sum of atomic charges:   -0.0000000

LOEWDIN ATOMIC CHARGES
----------------------
   0 C :   -0.072499
   1 O :   -0.783020
   2 C :    0.011195
   3 C :    0.020328
   4 O :   -0.595685
   5 H :    0.175741
   6 H :    0.153814
   7 H :    0.153870
   8 H :    0.160344
   9 H :    0.165876
  10 H :    0.186935
  11 H :    0.158541
  12 H :    0.264561

  Mayer bond orders larger than 0.100000
B(  0-C ,  1-O ) :   0.8940 B(  0-C ,  5-H ) :   0.9723 B(  0-C ,  6-H ) :   0.9670
B(  0-C ,  7-H ) :   0.9678 B(  1-O ,  2-C ) :   0.9046 B(  2-C ,  3-C ) :   0.9804
B(  2-C ,  8-H ) :   0.9534 B(  2-C ,  9-H ) :   0.9409 B(  3-C ,  4-O ) :   0.9786
B(  3-C , 10-H ) :   0.9669 B(  3-C , 11-H ) :   0.9643 B(  4-O , 12-H ) :   0.8964

Dispersion correction           -0.002379758
FINAL SINGLE POINT ENERGY      -269.489800223366

DIPOLE MOMENT
-------------

Method             : SCF
Type of density    : Electron Density
Multiplicity       :   1
Irrep              :   0
Energy             :  -269.4978468443252382 Eh
Relativity type    :
Basis              : AO
                                X                 Y                 Z
Electronic contribution:      2.679169697      -1.980329290       0.965824181
Nuclear contribution   :     -3.099900881       2.692753991      -1.636209637
                        -----------------------------------------
Total Dipole Moment    :     -0.420731185       0.712424701      -0.670385456
                        -----------------------------------------
Magnitude (a.u.)       :      1.064885132
Magnitude (Debye)      :      2.706722898

Rotational constants in cm-1:             0.469455             0.084537             0.078664
Rotational constants in MHz :         14073.920420          2534.369602          2358.285938

                             ****ORCA TERMINATED NORMALLY****
TOTAL RUN TIME: 0 days 0 hours 0 minutes 15 seconds 73 msec
