                         Program Version 6.0.0  -   RELEASE  -
|  1> ! r2scan-3c def2/J RI DEFGRID2 scfconv6 printgap
|  2> %output
|  3>     printlevel normal
|  4> end
|  5> %cpcm
|  6>     smd true
|  7>     smdsolvent "water"
|  8> end
|  9> * xyz 0 1
| 10> C -2.2793490404 -0.2071000891 -0.1090212755
| 11> O -0.9402418231 -0.2893128437 0.3267302514
| 12> C -0.1064756641 0.6921182089 -0.2552193005
| 13> C 1.3161505761 0.5259492261 0.2786549429
| 14> O 1.9524147866 -0.6513775913 -0.1524351686
| 15> H -2.8144036333 -1.0020284066 0.4036131509
| 16> H -2.3493516437 -0.3515684194 -1.192945158
| 17> H -2.7153512389 0.7637961497 0.1515152522
| 18> H -0.1186530262 0.5891777612 -1.3513110692
| 19> H -0.4720359555 1.6969142332 0.0034122675
| 20> H 1.2800840253 0.4560611703 1.3671256049
| 21> H 1.9029719822 1.4087128245 -0.0081725382
| 22> H 1.9665129406 -0.6759499152 -1.1200377762
| 23> *
| 24>
| 25>                          ****END OF INPUT****

CARTESIAN COORDINATES (ANGSTROEM)
---------------------------------
  C     -2.279349   -0.207100   -0.109021
  O     -0.940242   -0.289313    0.326730
  C     -0.106476    0.692118   -0.255219
  C      1.316151    0.525949    0.278655
  O      1.952415   -0.651378   -0.152435
  H     -2.814404   -1.002028    0.403613
  H     -2.349352   -0.351568   -1.192945
  H     -2.715351    0.763796    0.151515
  H     -0.118653    0.589178   -1.351311
  H     -0.472036    1.696914    0.003412
  H      1.280084    0.456061    1.367126
  H      1.902972    1.408713   -0.008173
  H      1.966513   -0.675950   -1.120038

 Total Charge           Charge          ....    0
 Multiplicity           Mult            ....    1
 Number of Electrons    NEL             ....   42
 Basis Dimension        Dim             ....  145

ORBITAL ENERGIES
----------------

  NO   OCC          E(Eh)            E(eV)
   0   2.0000     -18.957671      -515.8644
   1   2.0000     -18.953130      -515.7409
   2   2.0000     -10.073385      -274.1107
   3   2.0000     -10.071672      -274.0641
   4   2.0000     -10.063247      -273.8349
   5   2.0000      -1.005665       -27.3655
   6   2.0000      -0.986553       -26.8455
   7   2.0000      -0.715063       -19.4579
   8   2.0000      -0.634613       -17.2687
   9   2.0000      -0.577872       -15.7247
  10   2.0000      -0.477197       -12.9852
  11   2.0000      -0.451303       -12.2806
  12   2.0000      -0.444905       -12.1065
  13   2.0000      -0.417035       -11.3481
  14   2.0000      -0.396807       -10.7977
  15   2.0000      -0.363657        -9.8956
  16   2.0000      -0.343582        -9.3493
  17   2.0000      -0.310836        -8.4583
  18   2.0000      -0.286399        -7.7933
  19   2.0000      -0.244981        -6.6663
  20   2.0000      -0.226526        -6.1641
  21   0.0000       0.069913         1.9024
  22   0.0000       0.088869         2.4182
  23   0.0000       0.123550         3.3620
  24   0.0000       0.127403         3.4668
  25   0.0000       0.139404         3.7934

MULLIKEN ATOMIC CHARGES
-----------------------
   0 C :   -0.302001
   1 O :   -0.297250
   2 C :   -0.164460
   3 C :   -0.150318
   4 O :   -0.495303
   5 H :    0.162376
   6 H :    0.150905
   7 H :    0.150600
   8 H :    0.151144
   9 H :    0.146554
  10 H :    0.153109
  11 H :    0.144255
  12 H :    0.350387
Sum of atomic charges:   -0.0000000

LOEWDIN ATOMIC CHARGES
----------------------
   0 C :   -0.073325
   1 O :   -0.829820
   2 C :    0.017230
   3 C :    0.019129
   4 O :   -0.636819
   5 H :    0.179586
   6 H :    0.163728
   7 H :    0.163805
   8 H :    0.175239
   9 H :    0.177622
  10 H :    0.187015
  11 H :    0.171353
  12 H :    0.285257

  Mayer bond orders larger than 0.100000
B(  0-C ,  1-O ) :   0.8851 B(  0-C ,  5-H ) :   0.9661 B(  0-C ,  6-H ) :   0.9614
B(  0-C ,  7-H ) :   0.9625 B(  1-O ,  2-C ) :   0.8972 B(  2-C ,  3-C ) :   0.9788
B(  2-C ,  8-H ) :   0.9459 B(  2-C ,  9-H ) :   0.9370 B(  3-C ,  4-O ) :   0.9631
B(  3-C , 10-H ) :   0.9682 B(  3-C , 11-H ) :   0.9561 B(  4-O , 12-H ) :   0.8674

Dispersion correction           -0.002379758
FINAL SINGLE POINT ENERGY      -269.502535571429

DIPOLE MOMENT
-------------

Method             : SCF
Type of density    : Electron Density
Multiplicity       :   1
Irrep              :   0
Energy             :  -269.5105821923883127 Eh
Relativity type    :
Basis              : AO
                                X                 Y                 Z
Electronic contribution:      2.541765204      -1.607192888       0.620850841
Nuclear contribution   :     -3.099900881       2.692753991      -1.636209637
                        -----------------------------------------
Total Dipole Moment    :     -0.558135678       1.085561102      -1.015358796
                        -----------------------------------------
Magnitude (a.u.)       :      1.587737959
Magnitude (Debye)      :      4.035709169

Rotational constants in cm-1:             0.469455             0.084537             0.078664
Rotational constants in MHz :         14073.920420          2534.369602          2358.285938

                             ****ORCA TERMINATED NORMALLY****
TOTAL RUN TIME: 0 days 0 hours 0 minutes 17 seconds 843 msec
