                         Program Version 6.0.0  -   RELEASE  -
|  1> ! r2scan-3c def2/J RI DEFGRID2 scfconv6 printgap
|  2> %output
|  3>     printlevel normal
|  4> end
|  5> * xyz 0 1
|  6> C 2.2281777958 -0.245198948 -0.1522361295
|  7> O 0.9080541837 -0.2481511877 0.3424112024
|  8> C 0.0738206563 0.7019890233 -0.2966325813
|  9> C -1.3338698102 0.5647596324 0.2725750076
| 10> N -1.9314219579 -0.6801487567 -0.1906365352
| 11> H 2.7661752398 -1.005807475 0.4079737131
| 12> H 2.6999523318 0.7318740461 0.0003273411
| 13> H 2.2455705748 -0.4874130723 -1.2204546048
| 14> H 0.4595341191 1.71576766 -0.1170018642
| 15> H 0.0541701362 0.5146715281 -1.3785335839
| 16> H -1.26144337 0.6325852453 1.37002468
| 17> H -1.9466200651 1.3936497567 -0.0897298466
| 18> H -2.8148945917 -0.83217008 0.2827452897
| 19> H -1.3129177543 -1.4454775423 0.0593218896
| 20> *
| 21>
| 22>                          ****END OF INPUT****

CARTESIAN COORDINATES (ANGSTROEM)
---------------------------------
  C      2.228178   -0.245199   -0.152236
  O      0.908054   -0.248151    0.342411
  C      0.073821    0.701989   -0.296633
  C     -1.333870    0.564760    0.272575
  N     -1.931422   -0.680149   -0.190637
  H      2.766175   -1.005807    0.407974
  H      2.699952    0.731874    0.000327
  H      2.245571   -0.487413   -1.220455
  H      0.459534    1.715768   -0.117002
  H      0.054170    0.514672   -1.378534
  H     -1.261443    0.632585    1.370025
  H     -1.946620    1.393650   -0.089730
  H     -2.814895   -0.832170    0.282745
  H     -1.312918   -1.445478    0.059322

 Total Charge           Charge          ....    0
 Multiplicity           Mult            ....    1
 Number of Electrons    NEL             ....   42
 Basis Dimension        Dim             ....  150

ORBITAL ENERGIES
----------------

  NO   OCC          E(Eh)            E(eV)
   0   2.0000     -18.952990      -515.7371
   1   2.0000     -14.131354      -384.5337
   2   2.0000     -10.073136      -274.1040
   3   2.0000     -10.071020      -274.0464
   4   2.0000     -10.051181      -273.5065
   5   2.0000      -0.998579       -27.1727
   6   2.0000      -0.843427       -22.9508
   7   2.0000      -0.704979       -19.1835
   8   2.0000      -0.631739       -17.1905
   9   2.0000      -0.560508       -15.2522
  10   2.0000      -0.468999       -12.7621
  11   2.0000      -0.457342       -12.4449
  12   2.0000      -0.439420       -11.9572
  13   2.0000      -0.408728       -11.1220
  14   2.0000      -0.400650       -10.9022
  15   2.0000      -0.357431        -9.7262
  16   2.0000      -0.346191        -9.4203
  17   2.0000      -0.321171        -8.7395
  18   2.0000      -0.288027        -7.8376
  19   2.0000      -0.224274        -6.1028
  20   2.0000      -0.203407        -5.5350
  21   0.0000       0.066430         1.8077
  22   0.0000       0.095407         2.5962
  23   0.0000       0.113479         3.0879
  24   0.0000       0.119363         3.2480
  25   0.0000       0.134171         3.6510

MULLIKEN ATOMIC CHARGES
-----------------------
   0 C :   -0.286774
   1 O :   -0.250867
   2 C :   -0.142675
   3 C :   -0.180652
   4 N :   -0.569245
   5 H :    0.146398
   6 H :    0.130801
   7 H :    0.133521
   8 H :    0.119147
   9 H :    0.133861
  10 H :    0.129512
  11 H :    0.133179
  12 H :    0.239973
  13 H :    0.263822
Sum of atomic charges:   -0.0000000

LOEWDIN ATOMIC CHARGES
----------------------
   0 C :   -0.072688
   1 O :   -0.799111
   2 C :    0.028279
   3 C :   -0.054238
   4 N :   -0.731786
   5 H :    0.174065
   6 H :    0.154847
   7 H :    0.155692
   8 H :    0.162634
   9 H :    0.170019
  10 H :    0.158565
  11 H :    0.173814
  12 H :    0.235958
  13 H :    0.243951

  Mayer bond orders larger than 0.100000
B(  0-C ,  1-O ) :   0.8934 B(  0-C ,  5-H ) :   0.9729 B(  0-C ,  6-H ) :   0.9683
B(  0-C ,  7-H ) :   0.9664 B(  1-O ,  2-C ) :   0.9128 B(  2-C ,  3-C ) :   0.9891
B(  2-C ,  8-H ) :   0.9472 B(  2-C ,  9-H ) :   0.9459 B(  3-C ,  4-N ) :   0.9540
B(  3-C , 10-H ) :   0.9654 B(  3-C , 11-H ) :   0.9651 B(  4-N , 12-H ) :   0.9191
B(  4-N , 13-H ) :   0.9074

Dispersion correction           -0.002725285
FINAL SINGLE POINT ENERGY      -249.619426660249

DIPOLE MOMENT
-------------

Method             : SCF
Type of density    : Electron Density
Multiplicity       :   1
Irrep              :   0
Energy             :  -249.6294052003326271 Eh
Relativity type    :
Basis              : AO
                                X                 Y                 Z
Electronic contribution:     -0.626053996      -0.908460415       0.789903519
Nuclear contribution   :      0.837397986       1.134956288      -0.638911542
                        -----------------------------------------
Total Dipole Moment    :      0.211343990       0.226495874       0.150991977
                        -----------------------------------------
Magnitude (a.u.)       :      0.344623331
Magnitude (Debye)      :      0.875962892

Rotational constants in cm-1:             0.440328             0.087702             0.080198
Rotational constants in MHz :         13200.703555          2629.225167          2404.281305

                             ****ORCA TERMINATED NORMALLY****
TOTAL RUN TIME: 0 days 0 hours 0 minutes 15 seconds 776 msec
