                         Program Version 6.0.0  -   RELEASE  -
|  1> ! r2scan-3c def2/J RI DEFGRID2 scfconv6 printgap
|  2> %output
|  3>     printlevel normal
|  4> end
|  5> %cpcm
|  6>     smd true
|  7>     smdsolvent "water"
|  8> end
|  9> * xyz 0 1
| 10> C 2.2281777958 -0.245198948 -0.1522361295
| 11> O 0.9080541837 -0.2481511877 0.3424112024
| 12> C 0.0738206563 0.7019890233 -0.2966325813
| 13> C -1.3338698102 0.5647596324 0.2725750076
| 14> N -1.9314219579 -0.6801487567 -0.1906365352
| 15> H 2.7661752398 -1.005807475 0.4079737131
| 16> H 2.6999523318 0.7318740461 0.0003273411
| 17> H 2.2455705748 -0.4874130723 -1.2204546048
| 18> H 0.4595341191 1.71576766 -0.1170018642
| 19> H 0.0541701362 0.5146715281 -1.3785335839
| 20> H -1.26144337 0.6325852453 1.37002468
| 21> H -1.9466200651 1.3936497567 -0.0897298466
| 22> H -2.8148945917 -0.83217008 0.2827452897
| 23> H -1.3129177543 -1.4454775423 0.0593218896
| 24> *
| 25>
| 26>                          ****END OF INPUT****

CARTESIAN COORDINATES (ANGSTROEM)
---------------------------------
  C      2.228178   -0.245199   -0.152236
  O      0.908054   -0.248151    0.342411
  C      0.073821    0.701989   -0.296633
  C     -1.333870    0.564760    0.272575
  N     -1.931422   -0.680149   -0.190637
  H      2.766175   -1.005807    0.407974
  H      2.699952    0.731874    0.000327
  H      2.245571   -0.487413   -1.220455
  H      0.459534    1.715768   -0.117002
  H      0.054170    0.514672   -1.378534
  H     -1.261443    0.632585    1.370025
  H     -1.946620    1.393650   -0.089730
  H     -2.814895   -0.832170    0.282745
  H     -1.312918   -1.445478    0.059322

 Total Charge           Charge          ....    0
 Multiplicity           Mult            ....    1
 Number of Electrons    NEL             ....   42
 Basis Dimension        Dim             ....  150

ORBITAL ENERGIES
----------------

  NO   OCC          E(Eh)            E(eV)
   0   2.0000     -18.957045      -515.8474
   1   2.0000     -14.131996      -384.5512
   2   2.0000     -10.068722      -273.9839
   3   2.0000     -10.062797      -273.8226
   4   2.0000     -10.046932      -273.3909
   5   2.0000      -1.001320       -27.2473
   6   2.0000      -0.842673       -22.9303
   7   2.0000      -0.701814       -19.0973
   8   2.0000      -0.626379       -17.0446
   9   2.0000      -0.557037       -15.1577
  10   2.0000      -0.466225       -12.6866
  11   2.0000      -0.455391       -12.3918
  12   2.0000      -0.437076       -11.8934
  13   2.0000      -0.404961       -11.0196
  14   2.0000      -0.397758       -10.8235
  15   2.0000      -0.353645        -9.6232
  16   2.0000      -0.340655        -9.2697
  17   2.0000      -0.316271        -8.6062
  18   2.0000      -0.290516        -7.9053
  19   2.0000      -0.226914        -6.1746
  20   2.0000      -0.208485        -5.6732
  21   0.0000       0.069492         1.8910
  22   0.0000       0.102618         2.7924
  23   0.0000       0.122893         3.3441
  24   0.0000       0.129348         3.5197
  25   0.0000       0.140030         3.8104

MULLIKEN ATOMIC CHARGES
-----------------------
   0 C :   -0.305883
   1 O :   -0.307354
   2 C :   -0.150806
   3 C :   -0.212916
   4 N :   -0.645648
   5 H :    0.162042
   6 H :    0.150627
   7 H :    0.150964
   8 H :    0.144347
   9 H :    0.144257
  10 H :    0.140983
  11 H :    0.155416
  12 H :    0.285957
  13 H :    0.288013
Sum of atomic charges:    0.0000000

LOEWDIN ATOMIC CHARGES
----------------------
   0 C :   -0.073873
   1 O :   -0.833331
   2 C :    0.027926
   3 C :   -0.056573
   4 N :   -0.754634
   5 H :    0.179276
   6 H :    0.163555
   7 H :    0.163612
   8 H :    0.172880
   9 H :    0.173270
  10 H :    0.161746
  11 H :    0.181365
  12 H :    0.246986
  13 H :    0.247794

  Mayer bond orders larger than 0.100000
B(  0-C ,  1-O ) :   0.8839 B(  0-C ,  5-H ) :   0.9662 B(  0-C ,  6-H ) :   0.9630
B(  0-C ,  7-H ) :   0.9616 B(  1-O ,  2-C ) :   0.9023 B(  2-C ,  3-C ) :   0.9697
B(  2-C ,  8-H ) :   0.9451 B(  2-C ,  9-H ) :   0.9454 B(  3-C ,  4-N ) :   0.9549
B(  3-C , 10-H ) :   0.9720 B(  3-C , 11-H ) :   0.9632 B(  4-N , 12-H ) :   0.9016
B(  4-N , 13-H ) :   0.8958

Dispersion correction           -0.002725285
FINAL SINGLE POINT ENERGY      -249.627496530805

DIPOLE MOMENT
-------------

Method             : SCF
Type of density    : Electron Density
Multiplicity       :   1
Irrep              :   0
Energy             :  -249.6374750708889962 Eh
Relativity type    :
Basis              : AO
                                X                 Y                 Z
Electronic contribution:     -0.567788892      -0.753037778       0.804134871
Nuclear contribution   :      0.837397986       1.134956288      -0.638911542
                        -----------------------------------------
Total Dipole Moment    :      0.269609094       0.381918510       0.165223329
                        -----------------------------------------
Magnitude (a.u.)       :      0.495832190
Magnitude (Debye)      :      1.260305268

Rotational constants in cm-1:             0.440328             0.087702             0.080198
Rotational constants in MHz :         13200.703555          2629.225167          2404.281305

                             ****ORCA TERMINATED NORMALLY****
TOTAL RUN TIME: 0 days 0 hours 0 minutes 17 seconds 910 msec
