                         Program Version 6.0.0  -   RELEASE  -
|  1> ! r2scan-3c def2/J RI DEFGRID2 scfconv6 printgap
|  2> %output
|  3>     printlevel normal
|  4> end
|  5> * xyz 0 1
|  6> C -1.9575105178 1.4098241198 1.1897192775
|  7> O -1.6775151126 0.0313217889 0.856887568
|  8> C -0.8453050159 -0.1997902576 -0.1574435181
|  9> C 0.5431668809 0.4712498677 -0.0995664651
| 10> Cl 1.2669974483 0.1168709893 1.4772350179
| 11> Cl 1.5583816876 -0.1577606036 -1.4142442139
| 12> F -0.7095802808 -1.5429426625 -0.2577354161
| 13> F -1.4203303148 0.1731203598 -1.3637085613
| 14> H -1.1039004189 1.8564023124 1.6978479236
| 15> H -2.8072751863 1.348405951 1.8627273136
| 16> H -2.224190557 1.9686246 0.2932901902
| 17> H 0.4566561656 1.5526653481 -0.2232738813
| 18> *
| 19>
| 20>                          ****END OF INPUT****

CARTESIAN COORDINATES (ANGSTROEM)
---------------------------------
  C     -1.957511    1.409824    1.189719
  O     -1.677515    0.031322    0.856888
  C     -0.845305   -0.199790   -0.157444
  C      0.543167    0.471250   -0.099566
  Cl     1.266997    0.116871    1.477235
  Cl     1.558382   -0.157761   -1.414244
  F     -0.709580   -1.542943   -0.257735
  F     -1.420330    0.173120   -1.363709
  H     -1.103900    1.856402    1.697848
  H     -2.807275    1.348406    1.862727
  H     -2.224191    1.968625    0.293290
  H      0.456656    1.552665   -0.223274

 Total Charge           Charge          ....    0
 Multiplicity           Mult            ....    1
 Number of Electrons    NEL             ....   82
 Basis Dimension        Dim             ....  203

ORBITAL ENERGIES
----------------

  NO   OCC          E(Eh)            E(eV)
   0   2.0000    -101.239419     -2754.8646
   1   2.0000    -101.234625     -2754.7342
   2   2.0000     -24.510188      -666.9561
   3   2.0000     -24.504208      -666.7934
   4   2.0000     -19.013872      -517.3938
   5   2.0000     -10.270365      -279.4709
   6   2.0000     -10.185368      -277.1579
   7   2.0000     -10.113713      -275.2081
   8   2.0000      -9.395305      -255.6592
   9   2.0000      -9.390313      -255.5234
  10   2.0000      -7.142157      -194.3480
  11   2.0000      -7.137395      -194.2184
  12   2.0000      -7.131212      -194.0502
  13   2.0000      -7.130832      -194.0398
  14   2.0000      -7.126106      -193.9112
  15   2.0000      -7.125774      -193.9022
  16   2.0000      -1.240022       -33.7427
  17   2.0000      -1.168462       -31.7955
  18   2.0000      -1.063532       -28.9402
  19   2.0000      -0.891470       -24.2581
  20   2.0000      -0.802900       -21.8480
  21   2.0000      -0.737443       -20.0669
  22   2.0000      -0.687806       -18.7161
  23   2.0000      -0.601477       -16.3670
  24   2.0000      -0.546715       -14.8769
  25   2.0000      -0.543181       -14.7807
  26   2.0000      -0.525426       -14.2976
  27   2.0000      -0.467613       -12.7244
  28   2.0000      -0.448834       -12.2134
  29   2.0000      -0.442383       -12.0379
  30   2.0000      -0.432040       -11.7564
  31   2.0000      -0.406825       -11.0703
  32   2.0000      -0.388400       -10.5689
  33   2.0000      -0.377444       -10.2708
  34   2.0000      -0.367109        -9.9895
  35   2.0000      -0.350023        -9.5246
  36   2.0000      -0.317549        -8.6409
  37   2.0000      -0.311340        -8.4720
  38   2.0000      -0.302160        -8.2222
  39   2.0000      -0.289578        -7.8798
  40   2.0000      -0.283512        -7.7148
  41   0.0000      -0.045181        -1.2294
  42   0.0000      -0.018219        -0.4958
  43   0.0000       0.045754         1.2450
  44   0.0000       0.062330         1.6961
  45   0.0000       0.084317         2.2944

MULLIKEN ATOMIC CHARGES
-----------------------
   0 C :   -0.308818
   1 O :   -0.193845
   2 C :    0.436205
   3 C :   -0.009324
   4 Cl:   -0.099006
   5 Cl:   -0.090929
   6 F :   -0.208182
   7 F :   -0.238620
   8 H :    0.166310
   9 H :    0.168048
  10 H :    0.172606
  11 H :    0.205553
Sum of atomic charges:   -0.0000000

LOEWDIN ATOMIC CHARGES
----------------------
   0 C :   -0.044149
   1 O :   -0.617457
   2 C :    0.422405
   3 C :   -0.297007
   4 Cl:    0.130750
   5 Cl:    0.130334
   6 F :   -0.196001
   7 F :   -0.243349
   8 H :    0.169525
   9 H :    0.188916
  10 H :    0.174269
  11 H :    0.181763

  Mayer bond orders larger than 0.100000
B(  0-C ,  1-O ) :   0.8170 B(  0-C ,  8-H ) :   0.9542 B(  0-C ,  9-H ) :   0.9662
B(  0-C , 10-H ) :   0.9588 B(  1-O ,  2-C ) :   1.1827 B(  2-C ,  3-C ) :   0.9105
B(  2-C ,  6-F ) :   1.0553 B(  2-C ,  7-F ) :   0.9256 B(  3-C ,  4-Cl) :   1.0396
B(  3-C ,  5-Cl) :   1.0551 B(  3-C , 11-H ) :   0.9066

Dispersion correction           -0.003779404
FINAL SINGLE POINT ENERGY     -1311.940454759563

DIPOLE MOMENT
-------------

Method             : SCF
Type of density    : Electron Density
Multiplicity       :   1
Irrep              :   0
Energy             : -1311.9529573407219232 Eh
Relativity type    :
Basis              : AO
                                X                 Y                 Z
Electronic contribution:      6.828024523      -6.369126706      -4.311815975
Nuclear contribution   :     -7.171248226       7.634805360       4.836587623
                        -----------------------------------------
Total Dipole Moment    :     -0.343223703       1.265678654       0.524771647
                        -----------------------------------------
Magnitude (a.u.)       :      1.412490796
Magnitude (Debye)      :      3.590266280

Rotational constants in cm-1:             0.057864             0.042634             0.031046
Rotational constants in MHz :          1734.728861          1278.134332           930.743025

                             ****ORCA TERMINATED NORMALLY****
TOTAL RUN TIME: 0 days 0 hours 0 minutes 19 seconds 578 msec
