                         Program Version 6.0.0  -   RELEASE  -
|  1> ! r2scan-3c def2/J RI DEFGRID2 scfconv6 printgap
|  2> %output
|  3>     printlevel normal
|  4> end
|  5> %cpcm
|  6>     smd true
|  7>     smdsolvent "water"
|  8> end
|  9> * xyz 0 1
| 10> C -1.9575105178 1.4098241198 1.1897192775
| 11> O -1.6775151126 0.0313217889 0.856887568
| 12> C -0.8453050159 -0.1997902576 -0.1574435181
| 13> C 0.5431668809 0.4712498677 -0.0995664651
| 14> Cl 1.2669974483 0.1168709893 1.4772350179
| 15> Cl 1.5583816876 -0.1577606036 -1.4142442139
| 16> F -0.7095802808 -1.5429426625 -0.2577354161
| 17> F -1.4203303148 0.1731203598 -1.3637085613
| 18> H -1.1039004189 1.8564023124 1.6978479236
| 19> H -2.8072751863 1.348405951 1.8627273136
| 20> H -2.224190557 1.9686246 0.2932901902
| 21> H 0.4566561656 1.5526653481 -0.2232738813
| 22> *
| 23>
| 24>                          ****END OF INPUT****

CARTESIAN COORDINATES (ANGSTROEM)
---------------------------------
  C     -1.957511    1.409824    1.189719
  O     -1.677515    0.031322    0.856888
  C     -0.845305   -0.199790   -0.157444
  C      0.543167    0.471250   -0.099566
  Cl     1.266997    0.116871    1.477235
  Cl     1.558382   -0.157761   -1.414244
  F     -0.709580   -1.542943   -0.257735
  F     -1.420330    0.173120   -1.363709
  H     -1.103900    1.856402    1.697848
  H     -2.807275    1.348406    1.862727
  H     -2.224191    1.968625    0.293290
  H      0.456656    1.552665   -0.223274

 Total Charge           Charge          ....    0
 Multiplicity           Mult            ....    1
 Number of Electrons    NEL             ....   82
 Basis Dimension        Dim             ....  203

ORBITAL ENERGIES
----------------

  NO   OCC          E(Eh)            E(eV)
   0   2.0000    -101.237195     -2754.8041
   1   2.0000    -101.235434     -2754.7562
   2   2.0000     -24.517252      -667.1483
   3   2.0000     -24.506504      -666.8559
   4   2.0000     -19.007625      -517.2238
   5   2.0000     -10.270941      -279.4865
   6   2.0000     -10.177923      -276.9554
   7   2.0000     -10.087430      -274.4929
   8   2.0000      -9.393158      -255.6008
   9   2.0000      -9.391309      -255.5505
  10   2.0000      -7.139906      -194.2867
  11   2.0000      -7.138161      -194.2392
  12   2.0000      -7.129084      -193.9922
  13   2.0000      -7.128755      -193.9833
  14   2.0000      -7.127224      -193.9416
  15   2.0000      -7.126844      -193.9313
  16   2.0000      -1.245600       -33.8945
  17   2.0000      -1.173571       -31.9345
  18   2.0000      -1.058209       -28.7953
  19   2.0000      -0.888898       -24.1881
  20   2.0000      -0.802266       -21.8308
  21   2.0000      -0.726657       -19.7733
  22   2.0000      -0.679258       -18.4836
  23   2.0000      -0.598106       -16.2753
  24   2.0000      -0.548572       -14.9274
  25   2.0000      -0.533285       -14.5114
  26   2.0000      -0.522974       -14.2309
  27   2.0000      -0.459539       -12.5047
  28   2.0000      -0.443635       -12.0719
  29   2.0000      -0.430538       -11.7155
  30   2.0000      -0.424029       -11.5384
  31   2.0000      -0.404334       -11.0025
  32   2.0000      -0.388852       -10.5812
  33   2.0000      -0.379741       -10.3333
  34   2.0000      -0.370871       -10.0919
  35   2.0000      -0.341235        -9.2855
  36   2.0000      -0.316353        -8.6084
  37   2.0000      -0.310723        -8.4552
  38   2.0000      -0.297532        -8.0962
  39   2.0000      -0.289687        -7.8828
  40   2.0000      -0.279585        -7.6079
  41   0.0000      -0.042368        -1.1529
  42   0.0000      -0.014375        -0.3912
  43   0.0000       0.060527         1.6470
  44   0.0000       0.082596         2.2476
  45   0.0000       0.102488         2.7889

MULLIKEN ATOMIC CHARGES
-----------------------
   0 C :   -0.299377
   1 O :   -0.237318
   2 C :    0.425385
   3 C :   -0.013848
   4 Cl:   -0.117577
   5 Cl:   -0.119769
   6 F :   -0.221536
   7 F :   -0.247023
   8 H :    0.181272
   9 H :    0.188455
  10 H :    0.188824
  11 H :    0.272512
Sum of atomic charges:   -0.0000000

LOEWDIN ATOMIC CHARGES
----------------------
   0 C :   -0.032325
   1 O :   -0.637788
   2 C :    0.418633
   3 C :   -0.288610
   4 Cl:    0.122340
   5 Cl:    0.112393
   6 F :   -0.213057
   7 F :   -0.249185
   8 H :    0.179104
   9 H :    0.196702
  10 H :    0.184400
  11 H :    0.207393

  Mayer bond orders larger than 0.100000
B(  0-C ,  1-O ) :   0.8137 B(  0-C ,  8-H ) :   0.9450 B(  0-C ,  9-H ) :   0.9566
B(  0-C , 10-H ) :   0.9497 B(  1-O ,  2-C ) :   1.2065 B(  2-C ,  3-C ) :   0.9158
B(  2-C ,  6-F ) :   1.0424 B(  2-C ,  7-F ) :   0.9241 B(  3-C ,  4-Cl) :   1.0142
B(  3-C ,  5-Cl) :   1.0197 B(  3-C , 11-H ) :   0.8861

Dispersion correction           -0.003779404
FINAL SINGLE POINT ENERGY     -1311.946134765917

DIPOLE MOMENT
-------------

Method             : SCF
Type of density    : Electron Density
Multiplicity       :   1
Irrep              :   0
Energy             : -1311.9586373470754097 Eh
Relativity type    :
Basis              : AO
                                X                 Y                 Z
Electronic contribution:      6.746550863      -5.838375181      -4.200576474
Nuclear contribution   :     -7.171248226       7.634805360       4.836587623
                        -----------------------------------------
Total Dipole Moment    :     -0.424697363       1.796430180       0.636011149
                        -----------------------------------------
Magnitude (a.u.)       :      1.952444473
Magnitude (Debye)      :      4.962719457

Rotational constants in cm-1:             0.057864             0.042634             0.031046
Rotational constants in MHz :          1734.728861          1278.134332           930.743025

                             ****ORCA TERMINATED NORMALLY****
TOTAL RUN TIME: 0 days 0 hours 0 minutes 25 seconds 0 msec
