                         Program Version 6.0.0  -   RELEASE  -
|  1> ! pbe def2-sv(p) def2/J RI DEFGRID1 loosescf d4 GCP(DFT/SV(P)) printgap
|  2> %output
|  3>     printlevel normal
|  4> end
|  5> * xyz 0 1
|  6> C 3.0839069824 -0.4311004608 0.1710696407
|  7> C 1.8895760085 0.3168866218 -0.4092249671
|  8> C 0.5699858817 -0.2209432716 0.1426389106
|  9> C -0.6163304051 0.5195875622 -0.4508078843
| 10> S -2.2128695573 -0.0385983223 0.2514964733
| 11> H 3.1068298172 -0.3301397704 1.2536124844
| 12> H 4.0123838547 -0.0344835678 -0.2313955437
| 13> H 3.0268036477 -1.4891999854 -0.0733920882
| 14> H 1.8915857783 0.2187620113 -1.4969857192
| 15> H 1.9740356017 1.3794344857 -0.1715870449
| 16> H 0.5541423091 -0.1126282318 1.2294161387
| 17> H 0.4879391594 -1.2855855022 -0.0882003744
| 18> H -0.5730244096 1.5830021515 -0.2154483612
| 19> H -0.6694623617 0.3973132191 -1.5320933818
| 20> H -2.1273789175 -1.2962723391 -0.1645137909
| 21> *
| 22>
| 23>                          ****END OF INPUT****

CARTESIAN COORDINATES (ANGSTROEM)
---------------------------------
  C      3.083907   -0.431100    0.171070
  C      1.889576    0.316887   -0.409225
  C      0.569986   -0.220943    0.142639
  C     -0.616330    0.519588   -0.450808
  S     -2.212870   -0.038598    0.251496
  H      3.106830   -0.330140    1.253612
  H      4.012384   -0.034484   -0.231396
  H      3.026804   -1.489200   -0.073392
  H      1.891586    0.218762   -1.496986
  H      1.974036    1.379434   -0.171587
  H      0.554142   -0.112628    1.229416
  H      0.487939   -1.285586   -0.088200
  H     -0.573024    1.583002   -0.215448
  H     -0.669462    0.397313   -1.532093
  H     -2.127379   -1.296272   -0.164514

 Total Charge           Charge          ....    0
 Multiplicity           Mult            ....    1
 Number of Electrons    NEL             ....   50
 Basis Dimension        Dim             ....   94

ORBITAL ENERGIES
----------------

  NO   OCC          E(Eh)            E(eV)
   0   2.0000     -88.010194     -2394.8791
   1   2.0000      -9.916303      -269.8363
   2   2.0000      -9.889845      -269.1164
   3   2.0000      -9.888715      -269.0856
   4   2.0000      -9.876510      -268.7535
   5   2.0000      -7.656872      -208.3541
   6   2.0000      -5.685337      -154.7059
   7   2.0000      -5.681347      -154.5973
   8   2.0000      -5.672960      -154.3691
   9   2.0000      -0.738215       -20.0878
  10   2.0000      -0.690292       -18.7838
  11   2.0000      -0.620784       -16.8924
  12   2.0000      -0.548472       -14.9247
  13   2.0000      -0.522740       -14.2245
  14   2.0000      -0.438843       -11.9415
  15   2.0000      -0.396177       -10.7805
  16   2.0000      -0.390657       -10.6303
  17   2.0000      -0.374218       -10.1830
  18   2.0000      -0.337937        -9.1957
  19   2.0000      -0.327385        -8.9086
  20   2.0000      -0.315145        -8.5755
  21   2.0000      -0.301248        -8.1974
  22   2.0000      -0.292409        -7.9569
  23   2.0000      -0.272147        -7.4055
  24   2.0000      -0.191003        -5.1974
  25   0.0000       0.006760         0.1839
  26   0.0000       0.038769         1.0550
  27   0.0000       0.045722         1.2442
  28   0.0000       0.065167         1.7733
  29   0.0000       0.068916         1.8753

MULLIKEN ATOMIC CHARGES
-----------------------
   0 C :   -0.256460
   1 C :   -0.198192
   2 C :   -0.147478
   3 C :   -0.280356
   4 S :   -0.170589
   5 H :    0.100158
   6 H :    0.104002
   7 H :    0.098479
   8 H :    0.085751
   9 H :    0.087900
  10 H :    0.093713
  11 H :    0.081578
  12 H :    0.132489
  13 H :    0.129223
  14 H :    0.139780
Sum of atomic charges:   -0.0000000

LOEWDIN ATOMIC CHARGES
----------------------
   0 C :   -0.338621
   1 C :   -0.234957
   2 C :   -0.247788
   3 C :   -0.331913
   4 S :    0.013832
   5 H :    0.118346
   6 H :    0.119735
   7 H :    0.117417
   8 H :    0.114326
   9 H :    0.115463
  10 H :    0.118715
  11 H :    0.113031
  12 H :    0.126932
  13 H :    0.120778
  14 H :    0.074705

  Mayer bond orders larger than 0.100000
B(  0-C ,  1-C ) :   1.1569 B(  0-C ,  5-H ) :   0.9545 B(  0-C ,  6-H ) :   0.9530
B(  0-C ,  7-H ) :   0.9546 B(  1-C ,  2-C ) :   1.1154 B(  1-C ,  8-H ) :   0.9269
B(  1-C ,  9-H ) :   0.9277 B(  2-C ,  3-C ) :   1.0867 B(  2-C , 10-H ) :   0.9216
B(  2-C , 11-H ) :   0.9246 B(  3-C ,  4-S ) :   1.0740 B(  3-C , 12-H ) :   0.9247
B(  3-C , 13-H ) :   0.9252 B(  4-S , 14-H ) :   0.9081

Dispersion correction           -0.010544504
FINAL SINGLE POINT ENERGY      -555.913018790493

DIPOLE MOMENT
-------------

Method             : SCF
Type of density    : Electron Density
Multiplicity       :   1
Irrep              :   0
Energy             :  -555.9652700748795269 Eh
Relativity type    :
Basis              : AO
                                X                 Y                 Z
Electronic contribution:    -10.443204639       0.760536449       1.097793470
Nuclear contribution   :     11.024272249      -0.908742033      -1.405565858
                        -----------------------------------------
Total Dipole Moment    :      0.581067610      -0.148205584      -0.307772388
                        -----------------------------------------
Magnitude (a.u.)       :      0.674038801
Magnitude (Debye)      :      1.713270476

Rotational constants in cm-1:             0.533502             0.044383             0.042538
Rotational constants in MHz :         15993.992720          1330.559979          1275.266065

                             ****ORCA TERMINATED NORMALLY****
TOTAL RUN TIME: 0 days 0 hours 0 minutes 5 seconds 573 msec
