                         Program Version 6.0.0  -   RELEASE  -
|  1> ! pbe def2-sv(p) def2/J RI DEFGRID1 loosescf d4 GCP(DFT/SV(P)) printgap
|  2> %output
|  3>     printlevel normal
|  4> end
|  5> * xyz 0 1
|  6> C -2.6515684167 0.0064689114 0.8251375447
|  7> C -1.7219248058 0.7321392221 -0.1486112122
|  8> C -0.4999303838 -0.1066938004 -0.4247283109
|  9> O -0.5196161492 -1.2165491215 -0.9172746121
| 10> O 0.6108792538 0.5094493187 -0.0495898478
| 11> C 1.8716926138 -0.163154404 -0.2161603226
| 12> C 2.8128886077 0.2941856739 0.8829734595
| 13> H -3.5672102281 0.5747860095 0.955734348
| 14> H -2.8976898189 -0.978853001 0.4366978657
| 15> H -2.1714193799 -0.1126262289 1.7930797044
| 16> H -1.4034209917 1.6921401855 0.254284918
| 17> H -2.2399843284 0.8854279627 -1.0964033201
| 18> H 1.695573844 -1.2430864082 -0.1830840736
| 19> H 2.2589727287 0.099657792 -1.2052205566
| 20> H 2.9351973696 1.3723242468 0.8398755386
| 21> H 2.4133276788 0.0253222526 1.8566581683
| 22> H 3.7783506826 -0.1825072896 0.7494217724
| 23> *
| 24>
| 25>                          ****END OF INPUT****

CARTESIAN COORDINATES (ANGSTROEM)
---------------------------------
  C     -2.651568    0.006469    0.825138
  C     -1.721925    0.732139   -0.148611
  C     -0.499930   -0.106694   -0.424728
  O     -0.519616   -1.216549   -0.917275
  O      0.610879    0.509449   -0.049590
  C      1.871693   -0.163154   -0.216160
  C      2.812889    0.294186    0.882973
  H     -3.567210    0.574786    0.955734
  H     -2.897690   -0.978853    0.436698
  H     -2.171419   -0.112626    1.793080
  H     -1.403421    1.692140    0.254285
  H     -2.239984    0.885428   -1.096403
  H      1.695574   -1.243086   -0.183084
  H      2.258973    0.099658   -1.205221
  H      2.935197    1.372324    0.839876
  H      2.413328    0.025322    1.856658
  H      3.778351   -0.182507    0.749422

 Total Charge           Charge          ....    0
 Multiplicity           Mult            ....    1
 Number of Electrons    NEL             ....   56
 Basis Dimension        Dim             ....  118

ORBITAL ENERGIES
----------------

  NO   OCC          E(Eh)            E(eV)
   0   2.0000     -18.797726      -511.5121
   1   2.0000     -18.728983      -509.6415
   2   2.0000     -10.003518      -272.2096
   3   2.0000      -9.945852      -270.6404
   4   2.0000      -9.897901      -269.3356
   5   2.0000      -9.889740      -269.1135
   6   2.0000      -9.884247      -268.9640
   7   2.0000      -1.003614       -27.3097
   8   2.0000      -0.906638       -24.6709
   9   2.0000      -0.720361       -19.6020
  10   2.0000      -0.689733       -18.7686
  11   2.0000      -0.604482       -16.4488
  12   2.0000      -0.556689       -15.1483
  13   2.0000      -0.504511       -13.7284
  14   2.0000      -0.444219       -12.0878
  15   2.0000      -0.442594       -12.0436
  16   2.0000      -0.418438       -11.3863
  17   2.0000      -0.391292       -10.6476
  18   2.0000      -0.376406       -10.2425
  19   2.0000      -0.368475       -10.0267
  20   2.0000      -0.358293        -9.7497
  21   2.0000      -0.334545        -9.1034
  22   2.0000      -0.325910        -8.8685
  23   2.0000      -0.317504        -8.6397
  24   2.0000      -0.305643        -8.3170
  25   2.0000      -0.291019        -7.9190
  26   2.0000      -0.254418        -6.9231
  27   2.0000      -0.215728        -5.8702
  28   0.0000      -0.018685        -0.5085
  29   0.0000       0.040998         1.1156
  30   0.0000       0.057943         1.5767
  31   0.0000       0.080434         2.1887
  32   0.0000       0.091037         2.4772

MULLIKEN ATOMIC CHARGES
-----------------------
   0 C :   -0.298824
   1 C :   -0.148571
   2 C :    0.098657
   3 O :   -0.213698
   4 O :   -0.237350
   5 C :   -0.029780
   6 C :   -0.280365
   7 H :    0.111157
   8 H :    0.123946
   9 H :    0.107782
  10 H :    0.096746
  11 H :    0.113547
  12 H :    0.114034
  13 H :    0.103775
  14 H :    0.114233
  15 H :    0.113306
  16 H :    0.111404
Sum of atomic charges:   -0.0000000

LOEWDIN ATOMIC CHARGES
----------------------
   0 C :   -0.331884
   1 C :   -0.252845
   2 C :    0.035291
   3 O :   -0.174441
   4 O :   -0.068651
   5 C :   -0.111733
   6 C :   -0.350919
   7 H :    0.122345
   8 H :    0.127662
   9 H :    0.121152
  10 H :    0.126830
  11 H :    0.140328
  12 H :    0.119096
  13 H :    0.116283
  14 H :    0.125750
  15 H :    0.125756
  16 H :    0.129979

  Mayer bond orders larger than 0.100000
B(  0-C ,  1-C ) :   1.1415 B(  0-C ,  7-H ) :   0.9533 B(  0-C ,  8-H ) :   0.9492
B(  0-C ,  9-H ) :   0.9571 B(  1-C ,  2-C ) :   1.0215 B(  1-C , 10-H ) :   0.9143
B(  1-C , 11-H ) :   0.9029 B(  2-C ,  3-O ) :   2.0517 B(  2-C ,  4-O ) :   1.2187
B(  4-O ,  5-C ) :   0.9119 B(  5-C ,  6-C ) :   1.1576 B(  5-C , 12-H ) :   0.9156
B(  5-C , 13-H ) :   0.9361 B(  6-C , 14-H ) :   0.9488 B(  6-C , 15-H ) :   0.9524
B(  6-C , 16-H ) :   0.9448

Dispersion correction           -0.011582842
FINAL SINGLE POINT ENERGY      -346.244077068324

DIPOLE MOMENT
-------------

Method             : SCF
Type of density    : Electron Density
Multiplicity       :   1
Irrep              :   0
Energy             :  -346.3087486511677184 Eh
Relativity type    :
Basis              : AO
                                X                 Y                 Z
Electronic contribution:     -0.400409975      -1.421210079      -3.761480994
Nuclear contribution   :      0.753479434       1.990238218       4.114580592
                        -----------------------------------------
Total Dipole Moment    :      0.353069460       0.569028139       0.353099598
                        -----------------------------------------
Magnitude (a.u.)       :      0.757053758
Magnitude (Debye)      :      1.924277727

Rotational constants in cm-1:             0.188153             0.046152             0.041464
Rotational constants in MHz :          5640.691818          1383.600484          1243.071318

                             ****ORCA TERMINATED NORMALLY****
TOTAL RUN TIME: 0 days 0 hours 0 minutes 8 seconds 104 msec
