                         Program Version 6.0.0  -   RELEASE  -
|  1> ! r2scan-3c def2/J RI DEFGRID2 scfconv6 printgap
|  2> %output
|  3>     printlevel normal
|  4> end
|  5> * xyz 0 1
|  6> C 1.9868077464 1.0882248112 1.0049933921
|  7> C 1.6462401007 -0.2339879606 0.3274455345
|  8> C 0.3725395298 -0.2160053667 -0.5331471732
|  9> H 0.473752064 0.5867070741 -1.2723510116
| 10> C 0.3112985921 -1.5373900165 -1.3031086263
| 11> C -0.887831475 0.0786590378 0.3221943546
| 12> C -1.2825139753 1.5530430255 0.2059052448
| 13> C -2.1117082859 -0.7682946455 -0.0313875066
| 14> H 1.2400300476 1.3567009574 1.7471984435
| 15> H 2.947657121 1.0080836368 1.5089960499
| 16> H 2.053969832 1.8876646025 0.2701436776
| 17> H 1.545060803 -1.0121492904 1.0883862602
| 18> H 2.4853575378 -0.5140780351 -0.314360006
| 19> H 1.2173536732 -1.6551429062 -1.8942444775
| 20> H 0.2439230259 -2.3810873961 -0.6203050834
| 21> H -0.5354058056 -1.5654002221 -1.9816071658
| 22> H -0.6420818809 -0.1327260342 1.3689355605
| 23> H -1.6102215605 1.7711582242 -0.8088704358
| 24> H -0.4515579208 2.2095566444 0.4442539156
| 25> H -2.102864594 1.7802252613 0.8837802228
| 26> H -1.9185775405 -1.8285389908 0.0999283815
| 27> H -2.4241366024 -0.5907903097 -1.0577112402
| 28> H -2.9373489311 -0.4941423009 0.6224935557
| 29> *
| 30>
| 31>                          ****END OF INPUT****

CARTESIAN COORDINATES (ANGSTROEM)
---------------------------------
  C      1.986808    1.088225    1.004993
  C      1.646240   -0.233988    0.327446
  C      0.372540   -0.216005   -0.533147
  H      0.473752    0.586707   -1.272351
  C      0.311299   -1.537390   -1.303109
  C     -0.887831    0.078659    0.322194
  C     -1.282514    1.553043    0.205905
  C     -2.111708   -0.768295   -0.031388
  H      1.240030    1.356701    1.747198
  H      2.947657    1.008084    1.508996
  H      2.053970    1.887665    0.270144
  H      1.545061   -1.012149    1.088386
  H      2.485358   -0.514078   -0.314360
  H      1.217354   -1.655143   -1.894244
  H      0.243923   -2.381087   -0.620305
  H     -0.535406   -1.565400   -1.981607
  H     -0.642082   -0.132726    1.368936
  H     -1.610222    1.771158   -0.808870
  H     -0.451558    2.209557    0.444254
  H     -2.102865    1.780225    0.883780
  H     -1.918578   -1.828539    0.099928
  H     -2.424137   -0.590790   -1.057711
  H     -2.937349   -0.494142    0.622494

 Total Charge           Charge          ....    0
 Multiplicity           Mult            ....    1
 Number of Electrons    NEL             ....   58
 Basis Dimension        Dim             ....  213

ORBITAL ENERGIES
----------------

  NO   OCC          E(Eh)            E(eV)
   0   2.0000     -10.029309      -272.9114
   1   2.0000     -10.027245      -272.8552
   2   2.0000     -10.020661      -272.6761
   3   2.0000     -10.013717      -272.4871
   4   2.0000     -10.011505      -272.4269
   5   2.0000     -10.011159      -272.4175
   6   2.0000     -10.010992      -272.4129
   7   2.0000      -0.787368       -21.4254
   8   2.0000      -0.727637       -19.8000
   9   2.0000      -0.687106       -18.6971
  10   2.0000      -0.644534       -17.5387
  11   2.0000      -0.599407       -16.3107
  12   2.0000      -0.558770       -15.2049
  13   2.0000      -0.511076       -13.9071
  14   2.0000      -0.432137       -11.7590
  15   2.0000      -0.426949       -11.6179
  16   2.0000      -0.399038       -10.8584
  17   2.0000      -0.392786       -10.6882
  18   2.0000      -0.380518       -10.3544
  19   2.0000      -0.364628        -9.9220
  20   2.0000      -0.352256        -9.5854
  21   2.0000      -0.345602        -9.4043
  22   2.0000      -0.329984        -8.9793
  23   2.0000      -0.323689        -8.8080
  24   2.0000      -0.307121        -8.3572
  25   2.0000      -0.301786        -8.2120
  26   2.0000      -0.278876        -7.5886
  27   2.0000      -0.273914        -7.4536
  28   2.0000      -0.269413        -7.3311
  29   0.0000       0.084370         2.2958
  30   0.0000       0.102164         2.7800
  31   0.0000       0.111835         3.0432
  32   0.0000       0.113739         3.0950
  33   0.0000       0.124487         3.3875

MULLIKEN ATOMIC CHARGES
-----------------------
   0 C :   -0.524315
   1 C :   -0.274225
   2 C :   -0.040348
   3 H :    0.163360
   4 C :   -0.514313
   5 C :   -0.039075
   6 C :   -0.520453
   7 C :   -0.515879
   8 H :    0.156119
   9 H :    0.146892
  10 H :    0.155088
  11 H :    0.152840
  12 H :    0.135566
  13 H :    0.143903
  14 H :    0.159877
  15 H :    0.149124
  16 H :    0.158785
  17 H :    0.153138
  18 H :    0.156153
  19 H :    0.143668
  20 H :    0.148264
  21 H :    0.161588
  22 H :    0.144245
Sum of atomic charges:    0.0000000

LOEWDIN ATOMIC CHARGES
----------------------
   0 C :   -0.427693
   1 C :   -0.307294
   2 C :   -0.232324
   3 H :    0.159773
   4 C :   -0.413719
   5 C :   -0.238659
   6 C :   -0.417421
   7 C :   -0.415197
   8 H :    0.150014
   9 H :    0.150269
  10 H :    0.150108
  11 H :    0.153799
  12 H :    0.152804
  13 H :    0.152899
  14 H :    0.153677
  15 H :    0.153187
  16 H :    0.157757
  17 H :    0.152202
  18 H :    0.154687
  19 H :    0.151269
  20 H :    0.153574
  21 H :    0.152921
  22 H :    0.153368

  Mayer bond orders larger than 0.100000
B(  0-C ,  1-C ) :   0.8627 B(  0-C ,  8-H ) :   0.9778 B(  0-C ,  9-H ) :   0.9709
B(  0-C , 10-H ) :   0.9879 B(  1-C ,  2-C ) :   0.8952 B(  1-C , 11-H ) :   0.9930
B(  1-C , 12-H ) :   0.9779 B(  2-C ,  3-H ) :   0.9711 B(  2-C ,  4-C ) :   0.8835
B(  2-C ,  5-C ) :   0.8390 B(  4-C , 13-H ) :   0.9759 B(  4-C , 14-H ) :   1.0002
B(  4-C , 15-H ) :   0.9622 B(  5-C ,  6-C ) :   0.8967 B(  5-C ,  7-C ) :   0.8820
B(  5-C , 16-H ) :   0.9586 B(  6-C , 17-H ) :   0.9920 B(  6-C , 18-H ) :   0.9649
B(  6-C , 19-H ) :   0.9774 B(  7-C , 20-H ) :   0.9615 B(  7-C , 21-H ) :   1.0029
B(  7-C , 22-H ) :   0.9740

Dispersion correction           -0.006558187
FINAL SINGLE POINT ENERGY      -276.281715074090

DIPOLE MOMENT
-------------

Method             : SCF
Type of density    : Electron Density
Multiplicity       :   1
Irrep              :   0
Energy             :  -276.2863895356677517 Eh
Relativity type    :
Basis              : AO
                                X                 Y                 Z
Electronic contribution:      0.422577043      -0.408319250      -0.066787243
Nuclear contribution   :     -0.389422117       0.399695157       0.079430983
                        -----------------------------------------
Total Dipole Moment    :      0.033154926      -0.008624093       0.012643741
                        -----------------------------------------
Magnitude (a.u.)       :      0.036516959
Magnitude (Debye)      :      0.092818733

Rotational constants in cm-1:             0.100723             0.067267             0.046169
Rotational constants in MHz :          3019.589871          2016.602165          1384.124611

                             ****ORCA TERMINATED NORMALLY****
TOTAL RUN TIME: 0 days 0 hours 0 minutes 19 seconds 622 msec
