                         Program Version 6.0.0  -   RELEASE  -
|  1> ! r2scan-3c def2/J RI DEFGRID2 scfconv6 printgap
|  2> %output
|  3>     printlevel normal
|  4> end
|  5> %cpcm
|  6>     smd true
|  7>     smdsolvent "water"
|  8> end
|  9> * xyz 0 1
| 10> C 1.9868077464 1.0882248112 1.0049933921
| 11> C 1.6462401007 -0.2339879606 0.3274455345
| 12> C 0.3725395298 -0.2160053667 -0.5331471732
| 13> H 0.473752064 0.5867070741 -1.2723510116
| 14> C 0.3112985921 -1.5373900165 -1.3031086263
| 15> C -0.887831475 0.0786590378 0.3221943546
| 16> C -1.2825139753 1.5530430255 0.2059052448
| 17> C -2.1117082859 -0.7682946455 -0.0313875066
| 18> H 1.2400300476 1.3567009574 1.7471984435
| 19> H 2.947657121 1.0080836368 1.5089960499
| 20> H 2.053969832 1.8876646025 0.2701436776
| 21> H 1.545060803 -1.0121492904 1.0883862602
| 22> H 2.4853575378 -0.5140780351 -0.314360006
| 23> H 1.2173536732 -1.6551429062 -1.8942444775
| 24> H 0.2439230259 -2.3810873961 -0.6203050834
| 25> H -0.5354058056 -1.5654002221 -1.9816071658
| 26> H -0.6420818809 -0.1327260342 1.3689355605
| 27> H -1.6102215605 1.7711582242 -0.8088704358
| 28> H -0.4515579208 2.2095566444 0.4442539156
| 29> H -2.102864594 1.7802252613 0.8837802228
| 30> H -1.9185775405 -1.8285389908 0.0999283815
| 31> H -2.4241366024 -0.5907903097 -1.0577112402
| 32> H -2.9373489311 -0.4941423009 0.6224935557
| 33> *
| 34>
| 35>                          ****END OF INPUT****

CARTESIAN COORDINATES (ANGSTROEM)
---------------------------------
  C      1.986808    1.088225    1.004993
  C      1.646240   -0.233988    0.327446
  C      0.372540   -0.216005   -0.533147
  H      0.473752    0.586707   -1.272351
  C      0.311299   -1.537390   -1.303109
  C     -0.887831    0.078659    0.322194
  C     -1.282514    1.553043    0.205905
  C     -2.111708   -0.768295   -0.031388
  H      1.240030    1.356701    1.747198
  H      2.947657    1.008084    1.508996
  H      2.053970    1.887665    0.270144
  H      1.545061   -1.012149    1.088386
  H      2.485358   -0.514078   -0.314360
  H      1.217354   -1.655143   -1.894244
  H      0.243923   -2.381087   -0.620305
  H     -0.535406   -1.565400   -1.981607
  H     -0.642082   -0.132726    1.368936
  H     -1.610222    1.771158   -0.808870
  H     -0.451558    2.209557    0.444254
  H     -2.102865    1.780225    0.883780
  H     -1.918578   -1.828539    0.099928
  H     -2.424137   -0.590790   -1.057711
  H     -2.937349   -0.494142    0.622494

 Total Charge           Charge          ....    0
 Multiplicity           Mult            ....    1
 Number of Electrons    NEL             ....   58
 Basis Dimension        Dim             ....  213

ORBITAL ENERGIES
----------------

  NO   OCC          E(Eh)            E(eV)
   0   2.0000     -10.021505      -272.6990
   1   2.0000     -10.019406      -272.6419
   2   2.0000     -10.012639      -272.4578
   3   2.0000     -10.005750      -272.2703
   4   2.0000     -10.003767      -272.2163
   5   2.0000     -10.003634      -272.2127
   6   2.0000     -10.003277      -272.2030
   7   2.0000      -0.779564       -21.2130
   8   2.0000      -0.720089       -19.5946
   9   2.0000      -0.679765       -18.4973
  10   2.0000      -0.637503       -17.3473
  11   2.0000      -0.592213       -16.1149
  12   2.0000      -0.551368       -15.0035
  13   2.0000      -0.503284       -13.6951
  14   2.0000      -0.424503       -11.5513
  15   2.0000      -0.419143       -11.4055
  16   2.0000      -0.391786       -10.6610
  17   2.0000      -0.385102       -10.4792
  18   2.0000      -0.372979       -10.1493
  19   2.0000      -0.357339        -9.7237
  20   2.0000      -0.344795        -9.3824
  21   2.0000      -0.337906        -9.1949
  22   2.0000      -0.322455        -8.7744
  23   2.0000      -0.315879        -8.5955
  24   2.0000      -0.299814        -8.1583
  25   2.0000      -0.293747        -7.9933
  26   2.0000      -0.271342        -7.3836
  27   2.0000      -0.265906        -7.2357
  28   2.0000      -0.261734        -7.1221
  29   0.0000       0.092882         2.5274
  30   0.0000       0.109147         2.9700
  31   0.0000       0.119229         3.2444
  32   0.0000       0.122488         3.3331
  33   0.0000       0.130710         3.5568

MULLIKEN ATOMIC CHARGES
-----------------------
   0 C :   -0.554951
   1 C :   -0.291480
   2 C :   -0.027811
   3 H :    0.167948
   4 C :   -0.558890
   5 C :   -0.020989
   6 C :   -0.561732
   7 C :   -0.558882
   8 H :    0.164974
   9 H :    0.155570
  10 H :    0.163631
  11 H :    0.160680
  12 H :    0.144575
  13 H :    0.155008
  14 H :    0.171056
  15 H :    0.158920
  16 H :    0.165795
  17 H :    0.163476
  18 H :    0.162886
  19 H :    0.154163
  20 H :    0.157822
  21 H :    0.173570
  22 H :    0.154661
Sum of atomic charges:    0.0000000

LOEWDIN ATOMIC CHARGES
----------------------
   0 C :   -0.435068
   1 C :   -0.310021
   2 C :   -0.230752
   3 H :    0.161075
   4 C :   -0.422388
   5 C :   -0.236468
   6 C :   -0.425645
   7 C :   -0.423761
   8 H :    0.152475
   9 H :    0.151695
  10 H :    0.152427
  11 H :    0.155683
  12 H :    0.154468
  13 H :    0.154732
  14 H :    0.156316
  15 H :    0.155153
  16 H :    0.159999
  17 H :    0.154393
  18 H :    0.156039
  19 H :    0.153242
  20 H :    0.155466
  21 H :    0.155870
  22 H :    0.155071

  Mayer bond orders larger than 0.100000
B(  0-C ,  1-C ) :   0.8600 B(  0-C ,  8-H ) :   0.9753 B(  0-C ,  9-H ) :   0.9693
B(  0-C , 10-H ) :   0.9845 B(  1-C ,  2-C ) :   0.8893 B(  1-C , 11-H ) :   0.9915
B(  1-C , 12-H ) :   0.9786 B(  2-C ,  3-H ) :   0.9720 B(  2-C ,  4-C ) :   0.8726
B(  2-C ,  5-C ) :   0.8421 B(  4-C , 13-H ) :   0.9748 B(  4-C , 14-H ) :   0.9962
B(  4-C , 15-H ) :   0.9620 B(  5-C ,  6-C ) :   0.8867 B(  5-C ,  7-C ) :   0.8711
B(  5-C , 16-H ) :   0.9599 B(  6-C , 17-H ) :   0.9895 B(  6-C , 18-H ) :   0.9641
B(  6-C , 19-H ) :   0.9763 B(  7-C , 20-H ) :   0.9614 B(  7-C , 21-H ) :   0.9985
B(  7-C , 22-H ) :   0.9730

Dispersion correction           -0.006558187
FINAL SINGLE POINT ENERGY      -276.277936612984

DIPOLE MOMENT
-------------

Method             : SCF
Type of density    : Electron Density
Multiplicity       :   1
Irrep              :   0
Energy             :  -276.2826110745622259 Eh
Relativity type    :
Basis              : AO
                                X                 Y                 Z
Electronic contribution:      0.425569388      -0.409522497      -0.062244159
Nuclear contribution   :     -0.389422117       0.399695157       0.079430983
                        -----------------------------------------
Total Dipole Moment    :      0.036147272      -0.009827340       0.017186824
                        -----------------------------------------
Magnitude (a.u.)       :      0.041213939
Magnitude (Debye)      :      0.104757508

Rotational constants in cm-1:             0.100723             0.067267             0.046169
Rotational constants in MHz :          3019.589871          2016.602165          1384.124611

                             ****ORCA TERMINATED NORMALLY****
TOTAL RUN TIME: 0 days 0 hours 0 minutes 24 seconds 66 msec
