                         Program Version 6.0.0  -   RELEASE  -
|  1> ! pbe def2-sv(p) def2/J RI DEFGRID1 loosescf d4 GCP(DFT/SV(P)) printgap
|  2> %output
|  3>     printlevel normal
|  4> end
|  5> * xyz 0 1
|  6> C -2.2113927644 0.6933316393 -0.123154539
|  7> C -1.5006713995 -0.5257751344 0.4509266203
|  8> C -0.2355751611 -0.9040664671 -0.33358707
|  9> C 0.9204974029 0.0381622146 -0.0859725646
| 10> O 0.8113370791 1.2481244053 -0.1273489013
| 11> C 2.2277205039 -0.6340256618 0.2166394735
| 12> H -3.0818563373 0.9418075539 0.4790516203
| 13> H -2.5399030676 0.4990293824 -1.1419175539
| 14> H -1.5422043114 1.5498295997 -0.1340560948
| 15> H -2.1810374777 -1.3793191277 0.4360079858
| 16> H -1.2302472585 -0.3313253687 1.4912094092
| 17> H 0.0663968725 -1.9196421803 -0.081358755
| 18> H -0.4631247519 -0.8669290019 -1.4019541441
| 19> H 2.1349575097 -1.1794582171 1.1532459092
| 20> H 3.0236204277 0.1009071519 0.300662124
| 21> H 2.4607500086 -1.3501138496 -0.5671853232
| 22> *
| 23>
| 24>                          ****END OF INPUT****

CARTESIAN COORDINATES (ANGSTROEM)
---------------------------------
  C     -2.211393    0.693332   -0.123155
  C     -1.500671   -0.525775    0.450927
  C     -0.235575   -0.904066   -0.333587
  C      0.920497    0.038162   -0.085973
  O      0.811337    1.248124   -0.127349
  C      2.227721   -0.634026    0.216639
  H     -3.081856    0.941808    0.479052
  H     -2.539903    0.499029   -1.141918
  H     -1.542204    1.549830   -0.134056
  H     -2.181037   -1.379319    0.436008
  H     -1.230247   -0.331325    1.491209
  H      0.066397   -1.919642   -0.081359
  H     -0.463125   -0.866929   -1.401954
  H      2.134958   -1.179458    1.153246
  H      3.023620    0.100907    0.300662
  H      2.460750   -1.350114   -0.567185

 Total Charge           Charge          ....    0
 Multiplicity           Mult            ....    1
 Number of Electrons    NEL             ....   48
 Basis Dimension        Dim             ....  104

ORBITAL ENERGIES
----------------

  NO   OCC          E(Eh)            E(eV)
   0   2.0000     -18.739052      -509.9155
   1   2.0000      -9.974064      -271.4081
   2   2.0000      -9.893003      -269.2023
   3   2.0000      -9.892747      -269.1953
   4   2.0000      -9.886677      -269.0302
   5   2.0000      -9.865608      -268.4568
   6   2.0000      -0.936186       -25.4749
   7   2.0000      -0.720881       -19.6162
   8   2.0000      -0.676194       -18.4002
   9   2.0000      -0.617876       -16.8133
  10   2.0000      -0.534901       -14.5554
  11   2.0000      -0.467171       -12.7124
  12   2.0000      -0.426221       -11.5981
  13   2.0000      -0.415665       -11.3108
  14   2.0000      -0.401792       -10.9333
  15   2.0000      -0.378767       -10.3068
  16   2.0000      -0.363879        -9.9016
  17   2.0000      -0.357290        -9.7223
  18   2.0000      -0.333808        -9.0834
  19   2.0000      -0.316293        -8.6068
  20   2.0000      -0.298629        -8.1261
  21   2.0000      -0.297534        -8.0963
  22   2.0000      -0.293253        -7.9798
  23   2.0000      -0.194074        -5.2810
  24   0.0000      -0.050744        -1.3808
  25   0.0000       0.032325         0.8796
  26   0.0000       0.062884         1.7112
  27   0.0000       0.078633         2.1397
  28   0.0000       0.087493         2.3808

MULLIKEN ATOMIC CHARGES
-----------------------
   0 C :   -0.291639
   1 C :   -0.183282
   2 C :   -0.153893
   3 C :   -0.013567
   4 O :   -0.165622
   5 C :   -0.261301
   6 H :    0.098928
   7 H :    0.092438
   8 H :    0.129241
   9 H :    0.090196
  10 H :    0.092559
  11 H :    0.084902
  12 H :    0.112042
  13 H :    0.127122
  14 H :    0.116532
  15 H :    0.125344
Sum of atomic charges:   -0.0000000

LOEWDIN ATOMIC CHARGES
----------------------
   0 C :   -0.350363
   1 C :   -0.222409
   2 C :   -0.253360
   3 C :    0.044986
   4 O :   -0.129642
   5 C :   -0.361920
   6 H :    0.117300
   7 H :    0.114332
   8 H :    0.126579
   9 H :    0.117223
  10 H :    0.117566
  11 H :    0.121145
  12 H :    0.142990
  13 H :    0.143327
  14 H :    0.132062
  15 H :    0.140184

  Mayer bond orders larger than 0.100000
B(  0-C ,  1-C ) :   1.1535 B(  0-C ,  6-H ) :   0.9492 B(  0-C ,  7-H ) :   0.9538
B(  0-C ,  8-H ) :   0.9390 B(  1-C ,  2-C ) :   1.0986 B(  1-C ,  9-H ) :   0.9301
B(  1-C , 10-H ) :   0.9323 B(  2-C ,  3-C ) :   0.9763 B(  2-C , 11-H ) :   0.9178
B(  2-C , 12-H ) :   0.8873 B(  3-C ,  4-O ) :   2.1665 B(  3-C ,  5-C ) :   1.0824
B(  5-C , 13-H ) :   0.9230 B(  5-C , 14-H ) :   0.9367 B(  5-C , 15-H ) :   0.9267

Dispersion correction           -0.011291304
FINAL SINGLE POINT ENERGY      -271.140985560844

DIPOLE MOMENT
-------------

Method             : SCF
Type of density    : Electron Density
Multiplicity       :   1
Irrep              :   0
Energy             :  -271.1960119067464348 Eh
Relativity type    :
Basis              : AO
                                X                 Y                 Z
Electronic contribution:      3.204289074       2.694622220      -0.455077681
Nuclear contribution   :     -3.133296000      -3.673347181       0.498813538
                        -----------------------------------------
Total Dipole Moment    :      0.070993075      -0.978724960       0.043735856
                        -----------------------------------------
Magnitude (a.u.)       :      0.982270528
Magnitude (Debye)      :      2.496733263

Rotational constants in cm-1:             0.230686             0.074816             0.061475
Rotational constants in MHz :          6915.786381          2242.930830          1842.974767

                             ****ORCA TERMINATED NORMALLY****
TOTAL RUN TIME: 0 days 0 hours 0 minutes 7 seconds 896 msec
