                         Program Version 6.0.0  -   RELEASE  -
|  1> ! r2scan-3c def2/J RI DEFGRID2 scfconv6 printgap
|  2> %output
|  3>     printlevel normal
|  4> end
|  5> * xyz 0 1
|  6> C -2.3221972422 0.9080629713 0.7516625004
|  7> C -1.7310773767 -0.4201327945 0.2859914974
|  8> C -2.7545717192 -1.2279324976 -0.5072701805
|  9> C -0.4904399435 -0.1769894662 -0.5730144645
| 10> O 0.5355614096 0.4112065709 0.2374718434
| 11> C 1.8039244944 0.1588704751 -0.0578723667
| 12> O 2.1489893567 -0.5453253045 -0.9856381383
| 13> C 2.7390499882 0.8571022648 0.8831873568
| 14> H -2.6769863128 1.4816119806 -0.1014018069
| 15> H -1.5686952526 1.4913393487 1.2737019842
| 16> H -3.157777189 0.7338362879 1.4238241733
| 17> H -1.4192886332 -0.9959026863 1.1634353375
| 18> H -2.3408441804 -2.1871160839 -0.807916021
| 19> H -3.0529430008 -0.6855862801 -1.4010641145
| 20> H -3.6376293407 -1.4067852757 0.099313162
| 21> H -0.1057418869 -1.1100955892 -0.9980382855
| 22> H -0.7138681596 0.5138261783 -1.3924101654
| 23> H 2.9540538072 1.8451565544 0.4816432935
| 24> H 3.6681971693 0.3006866032 0.9525098405
| 25> H 2.2716325991 0.9684872807 1.8556536948
| 26> *
| 27>
| 28>                          ****END OF INPUT****

CARTESIAN COORDINATES (ANGSTROEM)
---------------------------------
  C     -2.322197    0.908063    0.751663
  C     -1.731077   -0.420133    0.285991
  C     -2.754572   -1.227932   -0.507270
  C     -0.490440   -0.176989   -0.573014
  O      0.535561    0.411207    0.237472
  C      1.803924    0.158870   -0.057872
  O      2.148989   -0.545325   -0.985638
  C      2.739050    0.857102    0.883187
  H     -2.676986    1.481612   -0.101402
  H     -1.568695    1.491339    1.273702
  H     -3.157777    0.733836    1.423824
  H     -1.419289   -0.995903    1.163435
  H     -2.340844   -2.187116   -0.807916
  H     -3.052943   -0.685586   -1.401064
  H     -3.637629   -1.406785    0.099313
  H     -0.105742   -1.110096   -0.998038
  H     -0.713868    0.513826   -1.392410
  H      2.954054    1.845157    0.481643
  H      3.668197    0.300687    0.952510
  H      2.271633    0.968487    1.855654

 Total Charge           Charge          ....    0
 Multiplicity           Mult            ....    1
 Number of Electrons    NEL             ....   64
 Basis Dimension        Dim             ....  222

ORBITAL ENERGIES
----------------

  NO   OCC          E(Eh)            E(eV)
   0   2.0000     -18.997334      -516.9437
   1   2.0000     -18.927016      -515.0303
   2   2.0000     -10.155509      -276.3455
   3   2.0000     -10.085858      -274.4502
   4   2.0000     -10.045303      -273.3466
   5   2.0000     -10.038989      -273.1748
   6   2.0000     -10.025995      -272.8212
   7   2.0000     -10.020261      -272.6652
   8   2.0000      -1.072409       -29.1817
   9   2.0000      -0.974858       -26.5272
  10   2.0000      -0.786002       -21.3882
  11   2.0000      -0.727904       -19.8073
  12   2.0000      -0.662254       -18.0208
  13   2.0000      -0.658589       -17.9211
  14   2.0000      -0.554287       -15.0829
  15   2.0000      -0.531225       -14.4554
  16   2.0000      -0.469331       -12.7712
  17   2.0000      -0.452392       -12.3102
  18   2.0000      -0.444806       -12.1038
  19   2.0000      -0.423733       -11.5304
  20   2.0000      -0.406164       -11.0523
  21   2.0000      -0.392683       -10.6855
  22   2.0000      -0.380893       -10.3646
  23   2.0000      -0.370859       -10.0916
  24   2.0000      -0.360194        -9.8014
  25   2.0000      -0.341507        -9.2929
  26   2.0000      -0.331159        -9.0113
  27   2.0000      -0.316585        -8.6147
  28   2.0000      -0.307440        -8.3659
  29   2.0000      -0.298329        -8.1179
  30   2.0000      -0.269829        -7.3424
  31   2.0000      -0.235546        -6.4095
  32   0.0000      -0.013127        -0.3572
  33   0.0000       0.073225         1.9925
  34   0.0000       0.078828         2.1450
  35   0.0000       0.114716         3.1216
  36   0.0000       0.124544         3.3890

MULLIKEN ATOMIC CHARGES
-----------------------
   0 C :   -0.500186
   1 C :   -0.013089
   2 C :   -0.476218
   3 C :   -0.209227
   4 O :   -0.158010
   5 C :    0.411835
   6 O :   -0.430632
   7 C :   -0.523259
   8 H :    0.147966
   9 H :    0.162188
  10 H :    0.148126
  11 H :    0.149947
  12 H :    0.150683
  13 H :    0.145823
  14 H :    0.151659
  15 H :    0.176977
  16 H :    0.149607
  17 H :    0.173550
  18 H :    0.175266
  19 H :    0.166996
Sum of atomic charges:   -0.0000000

LOEWDIN ATOMIC CHARGES
----------------------
   0 C :   -0.409481
   1 C :   -0.219703
   2 C :   -0.409764
   3 C :    0.045482
   4 O :   -0.603117
   5 C :    0.354978
   6 O :   -0.436058
   7 C :   -0.335861
   8 H :    0.154271
   9 H :    0.163490
  10 H :    0.153686
  11 H :    0.164193
  12 H :    0.156093
  13 H :    0.155629
  14 H :    0.157214
  15 H :    0.196692
  16 H :    0.180606
  17 H :    0.181053
  18 H :    0.176193
  19 H :    0.174406

  Mayer bond orders larger than 0.100000
B(  0-C ,  1-C ) :   0.9156 B(  0-C ,  8-H ) :   0.9846 B(  0-C ,  9-H ) :   0.9699
B(  0-C , 10-H ) :   0.9730 B(  1-C ,  2-C ) :   0.9086 B(  1-C ,  3-C ) :   0.9268
B(  1-C , 11-H ) :   0.9538 B(  2-C , 12-H ) :   0.9733 B(  2-C , 13-H ) :   0.9790
B(  2-C , 14-H ) :   0.9713 B(  3-C ,  4-O ) :   0.8007 B(  3-C , 15-H ) :   0.9656
B(  3-C , 16-H ) :   0.9467 B(  4-O ,  5-C ) :   1.0541 B(  5-C ,  6-O ) :   1.8354
B(  5-C ,  7-C ) :   0.9500 B(  7-C , 17-H ) :   0.9389 B(  7-C , 18-H ) :   0.9786
B(  7-C , 19-H ) :   0.9752

Dispersion correction           -0.005073002
FINAL SINGLE POINT ENERGY      -386.237409642186

DIPOLE MOMENT
-------------

Method             : SCF
Type of density    : Electron Density
Multiplicity       :   1
Irrep              :   0
Energy             :  -386.2442890597573637 Eh
Relativity type    :
Basis              : AO
                                X                 Y                 Z
Electronic contribution:      8.557352397      -0.519014326      -1.804623865
Nuclear contribution   :     -9.135360506       0.888761442       2.380528547
                        -----------------------------------------
Total Dipole Moment    :     -0.578008109       0.369747116       0.575904682
                        -----------------------------------------
Magnitude (a.u.)       :      0.895808298
Magnitude (Debye)      :      2.276963740

Rotational constants in cm-1:             0.146533             0.033507             0.028688
Rotational constants in MHz :          4392.943440          1004.504818           860.046848

                             ****ORCA TERMINATED NORMALLY****
TOTAL RUN TIME: 0 days 0 hours 0 minutes 31 seconds 439 msec
