                         Program Version 6.0.0  -   RELEASE  -
|  1> ! r2scan-3c def2/J RI DEFGRID2 scfconv6 printgap
|  2> %output
|  3>     printlevel normal
|  4> end
|  5> %cpcm
|  6>     smd true
|  7>     smdsolvent "water"
|  8> end
|  9> * xyz 0 1
| 10> C -2.3221972422 0.9080629713 0.7516625004
| 11> C -1.7310773767 -0.4201327945 0.2859914974
| 12> C -2.7545717192 -1.2279324976 -0.5072701805
| 13> C -0.4904399435 -0.1769894662 -0.5730144645
| 14> O 0.5355614096 0.4112065709 0.2374718434
| 15> C 1.8039244944 0.1588704751 -0.0578723667
| 16> O 2.1489893567 -0.5453253045 -0.9856381383
| 17> C 2.7390499882 0.8571022648 0.8831873568
| 18> H -2.6769863128 1.4816119806 -0.1014018069
| 19> H -1.5686952526 1.4913393487 1.2737019842
| 20> H -3.157777189 0.7338362879 1.4238241733
| 21> H -1.4192886332 -0.9959026863 1.1634353375
| 22> H -2.3408441804 -2.1871160839 -0.807916021
| 23> H -3.0529430008 -0.6855862801 -1.4010641145
| 24> H -3.6376293407 -1.4067852757 0.099313162
| 25> H -0.1057418869 -1.1100955892 -0.9980382855
| 26> H -0.7138681596 0.5138261783 -1.3924101654
| 27> H 2.9540538072 1.8451565544 0.4816432935
| 28> H 3.6681971693 0.3006866032 0.9525098405
| 29> H 2.2716325991 0.9684872807 1.8556536948
| 30> *
| 31>
| 32>                          ****END OF INPUT****

CARTESIAN COORDINATES (ANGSTROEM)
---------------------------------
  C     -2.322197    0.908063    0.751663
  C     -1.731077   -0.420133    0.285991
  C     -2.754572   -1.227932   -0.507270
  C     -0.490440   -0.176989   -0.573014
  O      0.535561    0.411207    0.237472
  C      1.803924    0.158870   -0.057872
  O      2.148989   -0.545325   -0.985638
  C      2.739050    0.857102    0.883187
  H     -2.676986    1.481612   -0.101402
  H     -1.568695    1.491339    1.273702
  H     -3.157777    0.733836    1.423824
  H     -1.419289   -0.995903    1.163435
  H     -2.340844   -2.187116   -0.807916
  H     -3.052943   -0.685586   -1.401064
  H     -3.637629   -1.406785    0.099313
  H     -0.105742   -1.110096   -0.998038
  H     -0.713868    0.513826   -1.392410
  H      2.954054    1.845157    0.481643
  H      3.668197    0.300687    0.952510
  H      2.271633    0.968487    1.855654

 Total Charge           Charge          ....    0
 Multiplicity           Mult            ....    1
 Number of Electrons    NEL             ....   64
 Basis Dimension        Dim             ....  222

ORBITAL ENERGIES
----------------

  NO   OCC          E(Eh)            E(eV)
   0   2.0000     -19.002627      -517.0878
   1   2.0000     -18.942727      -515.4578
   2   2.0000     -10.165584      -276.6196
   3   2.0000     -10.078539      -274.2510
   4   2.0000     -10.034306      -273.0473
   5   2.0000     -10.030250      -272.9370
   6   2.0000     -10.011985      -272.4400
   7   2.0000     -10.009056      -272.3603
   8   2.0000      -1.079267       -29.3684
   9   2.0000      -0.988585       -26.9008
  10   2.0000      -0.776817       -21.1383
  11   2.0000      -0.722603       -19.6630
  12   2.0000      -0.655061       -17.8251
  13   2.0000      -0.647089       -17.6082
  14   2.0000      -0.547702       -14.9037
  15   2.0000      -0.526124       -14.3166
  16   2.0000      -0.467480       -12.7208
  17   2.0000      -0.460734       -12.5372
  18   2.0000      -0.446677       -12.1547
  19   2.0000      -0.418143       -11.3782
  20   2.0000      -0.400107       -10.8875
  21   2.0000      -0.385526       -10.4907
  22   2.0000      -0.372366       -10.1326
  23   2.0000      -0.362587        -9.8665
  24   2.0000      -0.347731        -9.4622
  25   2.0000      -0.340812        -9.2740
  26   2.0000      -0.329912        -8.9774
  27   2.0000      -0.308345        -8.3905
  28   2.0000      -0.297256        -8.0888
  29   2.0000      -0.291735        -7.9385
  30   2.0000      -0.274284        -7.4637
  31   2.0000      -0.252280        -6.8649
  32   0.0000      -0.020609        -0.5608
  33   0.0000       0.077671         2.1135
  34   0.0000       0.090891         2.4733
  35   0.0000       0.121267         3.2999
  36   0.0000       0.135182         3.6785

MULLIKEN ATOMIC CHARGES
-----------------------
   0 C :   -0.538926
   1 C :   -0.000704
   2 C :   -0.523855
   3 C :   -0.216818
   4 O :   -0.173586
   5 C :    0.458904
   6 O :   -0.520157
   7 C :   -0.559019
   8 H :    0.164833
   9 H :    0.160793
  10 H :    0.163194
  11 H :    0.162175
  12 H :    0.161724
  13 H :    0.161085
  14 H :    0.165138
  15 H :    0.176239
  16 H :    0.176725
  17 H :    0.205719
  18 H :    0.188015
  19 H :    0.188520
Sum of atomic charges:   -0.0000000

LOEWDIN ATOMIC CHARGES
----------------------
   0 C :   -0.416696
   1 C :   -0.215013
   2 C :   -0.415623
   3 C :    0.047108
   4 O :   -0.603222
   5 C :    0.366160
   6 O :   -0.500120
   7 C :   -0.334221
   8 H :    0.159049
   9 H :    0.161394
  10 H :    0.157956
  11 H :    0.167408
  12 H :    0.158942
  13 H :    0.159729
  14 H :    0.160777
  15 H :    0.196821
  16 H :    0.190181
  17 H :    0.193645
  18 H :    0.181517
  19 H :    0.184210

  Mayer bond orders larger than 0.100000
B(  0-C ,  1-C ) :   0.9056 B(  0-C ,  8-H ) :   0.9818 B(  0-C ,  9-H ) :   0.9690
B(  0-C , 10-H ) :   0.9708 B(  1-C ,  2-C ) :   0.9002 B(  1-C ,  3-C ) :   0.9306
B(  1-C , 11-H ) :   0.9568 B(  2-C , 12-H ) :   0.9707 B(  2-C , 13-H ) :   0.9776
B(  2-C , 14-H ) :   0.9684 B(  3-C ,  4-O ) :   0.7878 B(  3-C , 15-H ) :   0.9603
B(  3-C , 16-H ) :   0.9370 B(  4-O ,  5-C ) :   1.0837 B(  5-C ,  6-O ) :   1.7616
B(  5-C ,  7-C ) :   0.9498 B(  7-C , 17-H ) :   0.9256 B(  7-C , 18-H ) :   0.9710
B(  7-C , 19-H ) :   0.9642

Dispersion correction           -0.005073002
FINAL SINGLE POINT ENERGY      -386.242321973220

DIPOLE MOMENT
-------------

Method             : SCF
Type of density    : Electron Density
Multiplicity       :   1
Irrep              :   0
Energy             :  -386.2492013907909723 Eh
Relativity type    :
Basis              : AO
                                X                 Y                 Z
Electronic contribution:      8.360314733      -0.350196651      -1.601795281
Nuclear contribution   :     -9.135360506       0.888761442       2.380528547
                        -----------------------------------------
Total Dipole Moment    :     -0.775045774       0.538564790       0.778733266
                        -----------------------------------------
Magnitude (a.u.)       :      1.223590407
Magnitude (Debye)      :      3.110119649

Rotational constants in cm-1:             0.146533             0.033507             0.028688
Rotational constants in MHz :          4392.943440          1004.504818           860.046848

                             ****ORCA TERMINATED NORMALLY****
TOTAL RUN TIME: 0 days 0 hours 0 minutes 37 seconds 529 msec
