                         Program Version 6.0.0  -   RELEASE  -
|  1> ! r2scan-3c def2/J RI DEFGRID2 scfconv6 printgap
|  2> %output
|  3>     printlevel normal
|  4> end
|  5> * xyz 0 1
|  6> C 3.58812707 -0.0325540478 -0.8464583911
|  7> C 2.5752288737 -0.1113729337 0.2535511482
|  8> C 2.9198028717 -0.309583325 1.5162940144
|  9> C 1.1335231101 0.0452107343 -0.1787143655
| 10> H 1.1070779924 0.1613922187 -1.2665089032
| 11> C 0.2916549253 -1.1849322853 0.1790755988
| 12> C -1.093742732 -1.06256106 -0.4456937954
| 13> C -1.710911838 0.2722749374 -0.1394386322
| 14> C -0.9803340311 1.3224884479 0.2680477399
| 15> C 0.4920722919 1.2895108689 0.4479499578
| 16> C -3.1470253347 0.4036687722 -0.2884823999
| 17> O -3.9089601262 -0.4828057359 -0.6324522161
| 18> H 4.5971549396 -0.1492913105 -0.4611176423
| 19> H 3.4008419463 -0.8136050528 -1.5822745013
| 20> H 3.5146008313 0.9274702034 -1.3556661808
| 21> H 2.1958178792 -0.3729951667 2.3105575225
| 22> H 3.9489344799 -0.4242870127 1.8104548134
| 23> H 0.7824408409 -2.090208944 -0.1801751238
| 24> H 0.1980866134 -1.2601883084 1.2628429463
| 25> H -1.0332882933 -1.1799046277 -1.5317812538
| 26> H -1.7598686176 -1.8478213349 -0.0811086985
| 27> H -1.4736011388 2.2576819357 0.4982022404
| 28> H 0.9303506589 2.1963251185 0.0247841606
| 29> H 0.705114233 1.3157453946 1.5212524136
| 30> H -3.5453303743 1.4105005897 -0.0597901535
| 31> *
| 32>
| 33>                          ****END OF INPUT****

CARTESIAN COORDINATES (ANGSTROEM)
---------------------------------
  C      3.588127   -0.032554   -0.846458
  C      2.575229   -0.111373    0.253551
  C      2.919803   -0.309583    1.516294
  C      1.133523    0.045211   -0.178714
  H      1.107078    0.161392   -1.266509
  C      0.291655   -1.184932    0.179076
  C     -1.093743   -1.062561   -0.445694
  C     -1.710912    0.272275   -0.139439
  C     -0.980334    1.322488    0.268048
  C      0.492072    1.289511    0.447950
  C     -3.147025    0.403669   -0.288482
  O     -3.908960   -0.482806   -0.632452
  H      4.597155   -0.149291   -0.461118
  H      3.400842   -0.813605   -1.582275
  H      3.514601    0.927470   -1.355666
  H      2.195818   -0.372995    2.310558
  H      3.948934   -0.424287    1.810455
  H      0.782441   -2.090209   -0.180175
  H      0.198087   -1.260188    1.262843
  H     -1.033288   -1.179905   -1.531781
  H     -1.759869   -1.847821   -0.081109
  H     -1.473601    2.257682    0.498202
  H      0.930351    2.196325    0.024784
  H      0.705114    1.315745    1.521252
  H     -3.545330    1.410501   -0.059790

 Total Charge           Charge          ....    0
 Multiplicity           Mult            ....    1
 Number of Electrons    NEL             ....   82
 Basis Dimension        Dim             ....  284

ORBITAL ENERGIES
----------------

  NO   OCC          E(Eh)            E(eV)
   0   2.0000     -18.938762      -515.3499
   1   2.0000     -10.108682      -275.0712
   2   2.0000     -10.062210      -273.8067
   3   2.0000     -10.051046      -273.5029
   4   2.0000     -10.050155      -273.4786
   5   2.0000     -10.049084      -273.4495
   6   2.0000     -10.047426      -273.4044
   7   2.0000     -10.036961      -273.1196
   8   2.0000     -10.036759      -273.1141
   9   2.0000     -10.032606      -273.0011
  10   2.0000     -10.018903      -272.6282
  11   2.0000      -0.999067       -27.1860
  12   2.0000      -0.833632       -22.6843
  13   2.0000      -0.784314       -21.3423
  14   2.0000      -0.729708       -19.8564
  15   2.0000      -0.724668       -19.7192
  16   2.0000      -0.661783       -18.0080
  17   2.0000      -0.627691       -17.0803
  18   2.0000      -0.597537       -16.2598
  19   2.0000      -0.558763       -15.2047
  20   2.0000      -0.512065       -13.9340
  21   2.0000      -0.494928       -13.4677
  22   2.0000      -0.464471       -12.6389
  23   2.0000      -0.445721       -12.1287
  24   2.0000      -0.426716       -11.6115
  25   2.0000      -0.417941       -11.3728
  26   2.0000      -0.409958       -11.1555
  27   2.0000      -0.399593       -10.8735
  28   2.0000      -0.392474       -10.6798
  29   2.0000      -0.376520       -10.2456
  30   2.0000      -0.370272       -10.0756
  31   2.0000      -0.369512       -10.0549
  32   2.0000      -0.355863        -9.6835
  33   2.0000      -0.344518        -9.3748
  34   2.0000      -0.337689        -9.1890
  35   2.0000      -0.312180        -8.4948
  36   2.0000      -0.304017        -8.2727
  37   2.0000      -0.288636        -7.8542
  38   2.0000      -0.246859        -6.7174
  39   2.0000      -0.230941        -6.2842
  40   2.0000      -0.217534        -5.9194
  41   0.0000      -0.086800        -2.3620
  42   0.0000      -0.018382        -0.5002
  43   0.0000       0.025928         0.7055
  44   0.0000       0.066258         1.8030
  45   0.0000       0.085308         2.3214

MULLIKEN ATOMIC CHARGES
-----------------------
   0 C :   -0.512572
   1 C :    0.070535
   2 C :   -0.382619
   3 C :   -0.029695
   4 H :    0.174406
   5 C :   -0.334900
   6 C :   -0.314257
   7 C :    0.132123
   8 C :   -0.135115
   9 C :   -0.396917
  10 C :    0.014949
  11 O :   -0.350887
  12 H :    0.149793
  13 H :    0.160171
  14 H :    0.156994
  15 H :    0.138782
  16 H :    0.147418
  17 H :    0.166028
  18 H :    0.169616
  19 H :    0.180152
  20 H :    0.183737
  21 H :    0.159852
  22 H :    0.163266
  23 H :    0.189199
  24 H :    0.099942
Sum of atomic charges:   -0.0000000

LOEWDIN ATOMIC CHARGES
----------------------
   0 C :   -0.389869
   1 C :   -0.121334
   2 C :   -0.322948
   3 C :   -0.200599
   4 H :    0.170248
   5 C :   -0.266812
   6 C :   -0.265363
   7 C :   -0.115377
   8 C :   -0.121615
   9 C :   -0.264481
  10 C :    0.200926
  11 O :   -0.469108
  12 H :    0.158786
  13 H :    0.162318
  14 H :    0.161289
  15 H :    0.157314
  16 H :    0.159456
  17 H :    0.164922
  18 H :    0.165005
  19 H :    0.174412
  20 H :    0.181712
  21 H :    0.170614
  22 H :    0.172977
  23 H :    0.182152
  24 H :    0.155372

  Mayer bond orders larger than 0.100000
B(  0-C ,  1-C ) :   0.9025 B(  0-C , 12-H ) :   0.9853 B(  0-C , 13-H ) :   0.9737
B(  0-C , 14-H ) :   0.9690 B(  1-C ,  2-C ) :   1.8587 B(  1-C ,  3-C ) :   0.8277
B(  2-C , 15-H ) :   0.9903 B(  2-C , 16-H ) :   0.9681 B(  3-C ,  4-H ) :   0.9964
B(  3-C ,  5-C ) :   0.8673 B(  3-C ,  9-C ) :   0.9192 B(  5-C ,  6-C ) :   0.8837
B(  5-C , 17-H ) :   0.9770 B(  5-C , 18-H ) :   0.9874 B(  6-C ,  7-C ) :   0.8641
B(  6-C , 19-H ) :   0.9957 B(  6-C , 20-H ) :   0.9836 B(  7-C ,  8-C ) :   1.7423
B(  7-C , 10-C ) :   0.9064 B(  7-C , 24-H ) :  -0.1318 B(  8-C ,  9-C ) :   0.9120
B(  8-C , 11-O ) :   0.1062 B(  8-C , 21-H ) :   0.9217 B(  9-C , 22-H ) :   0.9692
B(  9-C , 23-H ) :   0.9714 B( 10-C , 11-O ) :   1.9066 B( 10-C , 24-H ) :   1.0418

Dispersion correction           -0.008857588
FINAL SINGLE POINT ENERGY      -464.555608419699

DIPOLE MOMENT
-------------

Method             : SCF
Type of density    : Electron Density
Multiplicity       :   1
Irrep              :   0
Energy             :  -464.5561982291775394 Eh
Relativity type    :
Basis              : AO
                                X                 Y                 Z
Electronic contribution:    -11.334569289       0.548972501      -0.675352937
Nuclear contribution   :     12.671422675       0.115567924       0.844048848
                        -----------------------------------------
Total Dipole Moment    :      1.336853386       0.664540425       0.168695911
                        -----------------------------------------
Magnitude (a.u.)       :      1.502414477
Magnitude (Debye)      :      3.818834114

Rotational constants in cm-1:             0.099245             0.017994             0.017067
Rotational constants in MHz :          2975.280786           539.437794           511.660145

                             ****ORCA TERMINATED NORMALLY****
TOTAL RUN TIME: 0 days 0 hours 0 minutes 55 seconds 501 msec
