                         Program Version 6.0.0  -   RELEASE  -
|  1> ! r2scan-3c def2/J RI DEFGRID2 scfconv6 printgap
|  2> %output
|  3>     printlevel normal
|  4> end
|  5> %cpcm
|  6>     smd true
|  7>     smdsolvent "water"
|  8> end
|  9> * xyz 0 1
| 10> C 3.58812707 -0.0325540478 -0.8464583911
| 11> C 2.5752288737 -0.1113729337 0.2535511482
| 12> C 2.9198028717 -0.309583325 1.5162940144
| 13> C 1.1335231101 0.0452107343 -0.1787143655
| 14> H 1.1070779924 0.1613922187 -1.2665089032
| 15> C 0.2916549253 -1.1849322853 0.1790755988
| 16> C -1.093742732 -1.06256106 -0.4456937954
| 17> C -1.710911838 0.2722749374 -0.1394386322
| 18> C -0.9803340311 1.3224884479 0.2680477399
| 19> C 0.4920722919 1.2895108689 0.4479499578
| 20> C -3.1470253347 0.4036687722 -0.2884823999
| 21> O -3.9089601262 -0.4828057359 -0.6324522161
| 22> H 4.5971549396 -0.1492913105 -0.4611176423
| 23> H 3.4008419463 -0.8136050528 -1.5822745013
| 24> H 3.5146008313 0.9274702034 -1.3556661808
| 25> H 2.1958178792 -0.3729951667 2.3105575225
| 26> H 3.9489344799 -0.4242870127 1.8104548134
| 27> H 0.7824408409 -2.090208944 -0.1801751238
| 28> H 0.1980866134 -1.2601883084 1.2628429463
| 29> H -1.0332882933 -1.1799046277 -1.5317812538
| 30> H -1.7598686176 -1.8478213349 -0.0811086985
| 31> H -1.4736011388 2.2576819357 0.4982022404
| 32> H 0.9303506589 2.1963251185 0.0247841606
| 33> H 0.705114233 1.3157453946 1.5212524136
| 34> H -3.5453303743 1.4105005897 -0.0597901535
| 35> *
| 36>
| 37>                          ****END OF INPUT****

CARTESIAN COORDINATES (ANGSTROEM)
---------------------------------
  C      3.588127   -0.032554   -0.846458
  C      2.575229   -0.111373    0.253551
  C      2.919803   -0.309583    1.516294
  C      1.133523    0.045211   -0.178714
  H      1.107078    0.161392   -1.266509
  C      0.291655   -1.184932    0.179076
  C     -1.093743   -1.062561   -0.445694
  C     -1.710912    0.272275   -0.139439
  C     -0.980334    1.322488    0.268048
  C      0.492072    1.289511    0.447950
  C     -3.147025    0.403669   -0.288482
  O     -3.908960   -0.482806   -0.632452
  H      4.597155   -0.149291   -0.461118
  H      3.400842   -0.813605   -1.582275
  H      3.514601    0.927470   -1.355666
  H      2.195818   -0.372995    2.310558
  H      3.948934   -0.424287    1.810455
  H      0.782441   -2.090209   -0.180175
  H      0.198087   -1.260188    1.262843
  H     -1.033288   -1.179905   -1.531781
  H     -1.759869   -1.847821   -0.081109
  H     -1.473601    2.257682    0.498202
  H      0.930351    2.196325    0.024784
  H      0.705114    1.315745    1.521252
  H     -3.545330    1.410501   -0.059790

 Total Charge           Charge          ....    0
 Multiplicity           Mult            ....    1
 Number of Electrons    NEL             ....   82
 Basis Dimension        Dim             ....  284

ORBITAL ENERGIES
----------------

  NO   OCC          E(Eh)            E(eV)
   0   2.0000     -18.949879      -515.6524
   1   2.0000     -10.114212      -275.2217
   2   2.0000     -10.054640      -273.6007
   3   2.0000     -10.041500      -273.2431
   4   2.0000     -10.037182      -273.1256
   5   2.0000     -10.034130      -273.0426
   6   2.0000     -10.033956      -273.0378
   7   2.0000     -10.027402      -272.8595
   8   2.0000     -10.023048      -272.7410
   9   2.0000     -10.015822      -272.5444
  10   2.0000     -10.006195      -272.2824
  11   2.0000      -1.012658       -27.5558
  12   2.0000      -0.821787       -22.3620
  13   2.0000      -0.773829       -21.0570
  14   2.0000      -0.717420       -19.5220
  15   2.0000      -0.713390       -19.4123
  16   2.0000      -0.648093       -17.6355
  17   2.0000      -0.618495       -16.8301
  18   2.0000      -0.586643       -15.9634
  19   2.0000      -0.551349       -15.0030
  20   2.0000      -0.499085       -13.5808
  21   2.0000      -0.483946       -13.1688
  22   2.0000      -0.458942       -12.4884
  23   2.0000      -0.435347       -11.8464
  24   2.0000      -0.424139       -11.5414
  25   2.0000      -0.409698       -11.1485
  26   2.0000      -0.399529       -10.8717
  27   2.0000      -0.389886       -10.6093
  28   2.0000      -0.379139       -10.3169
  29   2.0000      -0.374469       -10.1898
  30   2.0000      -0.366209        -9.9650
  31   2.0000      -0.358119        -9.7449
  32   2.0000      -0.344994        -9.3878
  33   2.0000      -0.337638        -9.1876
  34   2.0000      -0.325007        -8.8439
  35   2.0000      -0.296926        -8.0798
  36   2.0000      -0.291041        -7.9196
  37   2.0000      -0.275856        -7.5064
  38   2.0000      -0.241190        -6.5631
  39   2.0000      -0.229781        -6.2527
  40   2.0000      -0.222034        -6.0419
  41   0.0000      -0.086631        -2.3574
  42   0.0000      -0.009186        -0.2500
  43   0.0000       0.031291         0.8515
  44   0.0000       0.082010         2.2316
  45   0.0000       0.100624         2.7381

MULLIKEN ATOMIC CHARGES
-----------------------
   0 C :   -0.547753
   1 C :    0.031967
   2 C :   -0.461448
   3 C :    0.033854
   4 H :    0.190332
   5 C :   -0.370041
   6 C :   -0.329672
   7 C :    0.073073
   8 C :   -0.112360
   9 C :   -0.418576
  10 C :    0.055880
  11 O :   -0.458602
  12 H :    0.163593
  13 H :    0.176442
  14 H :    0.175448
  15 H :    0.167281
  16 H :    0.169391
  17 H :    0.174188
  18 H :    0.185062
  19 H :    0.196854
  20 H :    0.179467
  21 H :    0.193193
  22 H :    0.188982
  23 H :    0.209680
  24 H :    0.133766
Sum of atomic charges:   -0.0000000

LOEWDIN ATOMIC CHARGES
----------------------
   0 C :   -0.397394
   1 C :   -0.119439
   2 C :   -0.352091
   3 C :   -0.197458
   4 H :    0.176501
   5 C :   -0.268691
   6 C :   -0.270557
   7 C :   -0.128511
   8 C :   -0.088164
   9 C :   -0.262852
  10 C :    0.212469
  11 O :   -0.554754
  12 H :    0.161416
  13 H :    0.168442
  14 H :    0.168278
  15 H :    0.164901
  16 H :    0.163771
  17 H :    0.167048
  18 H :    0.169004
  19 H :    0.178409
  20 H :    0.177972
  21 H :    0.184364
  22 H :    0.183279
  23 H :    0.191575
  24 H :    0.172480

  Mayer bond orders larger than 0.100000
B(  0-C ,  1-C ) :   0.9082 B(  0-C , 12-H ) :   0.9832 B(  0-C , 13-H ) :   0.9666
B(  0-C , 14-H ) :   0.9620 B(  1-C ,  2-C ) :   1.8414 B(  1-C ,  3-C ) :   0.8065
B(  2-C , 15-H ) :   0.9852 B(  2-C , 16-H ) :   0.9692 B(  3-C ,  4-H ) :   0.9906
B(  3-C ,  5-C ) :   0.8494 B(  3-C ,  9-C ) :   0.8956 B(  5-C ,  6-C ) :   0.8999
B(  5-C , 17-H ) :   0.9722 B(  5-C , 18-H ) :   0.9872 B(  6-C ,  7-C ) :   0.8313
B(  6-C , 19-H ) :   0.9861 B(  6-C , 20-H ) :   0.9852 B(  7-C ,  8-C ) :   1.7425
B(  7-C , 10-C ) :   0.9754 B(  8-C ,  9-C ) :   0.9190 B(  8-C , 21-H ) :   0.9134
B(  9-C , 22-H ) :   0.9590 B(  9-C , 23-H ) :   0.9618 B( 10-C , 11-O ) :   1.8250
B( 10-C , 24-H ) :   1.0116

Dispersion correction           -0.008857588
FINAL SINGLE POINT ENERGY      -464.562627075295

DIPOLE MOMENT
-------------

Method             : SCF
Type of density    : Electron Density
Multiplicity       :   1
Irrep              :   0
Energy             :  -464.5632168847735102 Eh
Relativity type    :
Basis              : AO
                                X                 Y                 Z
Electronic contribution:    -10.837368041       1.063498015      -0.587591655
Nuclear contribution   :     12.671422675       0.115567924       0.844048848
                        -----------------------------------------
Total Dipole Moment    :      1.834054634       1.179065939       0.256457193
                        -----------------------------------------
Magnitude (a.u.)       :      2.195386795
Magnitude (Debye)      :      5.580229764

Rotational constants in cm-1:             0.099245             0.017994             0.017067
Rotational constants in MHz :          2975.280786           539.437794           511.660145

                             ****ORCA TERMINATED NORMALLY****
TOTAL RUN TIME: 0 days 0 hours 1 minutes 12 seconds 6 msec
