                         Program Version 6.0.0  -   RELEASE  -
|  1> ! r2scan-3c def2/J RI DEFGRID2 scfconv6 printgap
|  2> %output
|  3>     printlevel normal
|  4> end
|  5> * xyz 0 1
|  6> C 2.2294160954 0.970410537 0.8415904541
|  7> C 1.4345318562 -0.3159486662 0.640520241
|  8> C 0.3371740805 -0.1879770016 -0.4381001766
|  9> H 0.4863263697 0.7567211414 -0.9730003681
| 10> C 0.4775712646 -1.3257004749 -1.4518054386
| 11> C -1.0733345068 -0.1542809496 0.1839376448
| 12> C -1.2397703892 1.0480075601 1.1141667081
| 13> C -2.169317151 -0.1019792689 -0.8820459356
| 14> H 2.984219292 0.8324252323 1.612933475
| 15> H 2.7324733208 1.2514486681 -0.0811708627
| 16> H 1.580806546 1.7898917288 1.1396888613
| 17> H 0.990089269 -0.6209482616 1.5895589718
| 18> H 2.1320098096 -1.105015534 0.3527928886
| 19> H -0.1811225659 -1.182748619 -2.303273614
| 20> H 1.4983736256 -1.3657950679 -1.8256999144
| 21> H 0.2437592107 -2.2807545004 -0.9854677451
| 22> H -1.2086378352 -1.0706148188 0.7711280403
| 23> H -0.5285696716 1.0216916919 1.934252571
| 24> H -2.241175297 1.056188944 1.5393583141
| 25> H -1.0973072392 1.9734683446 0.5598360947
| 26> H -3.1374821576 0.052124881 -0.4105451794
| 27> H -2.2191364742 -1.0263632778 -1.4495091822
| 28> H -1.9901912206 0.7222890911 -1.5693572637
| 29> *
| 30>
| 31>                          ****END OF INPUT****

CARTESIAN COORDINATES (ANGSTROEM)
---------------------------------
  C      2.229416    0.970411    0.841590
  C      1.434532   -0.315949    0.640520
  C      0.337174   -0.187977   -0.438100
  H      0.486326    0.756721   -0.973000
  C      0.477571   -1.325700   -1.451805
  C     -1.073335   -0.154281    0.183938
  C     -1.239770    1.048008    1.114167
  C     -2.169317   -0.101979   -0.882046
  H      2.984219    0.832425    1.612933
  H      2.732473    1.251449   -0.081171
  H      1.580807    1.789892    1.139689
  H      0.990089   -0.620948    1.589559
  H      2.132010   -1.105016    0.352793
  H     -0.181123   -1.182749   -2.303274
  H      1.498374   -1.365795   -1.825700
  H      0.243759   -2.280755   -0.985468
  H     -1.208638   -1.070615    0.771128
  H     -0.528570    1.021692    1.934253
  H     -2.241175    1.056189    1.539358
  H     -1.097307    1.973468    0.559836
  H     -3.137482    0.052125   -0.410545
  H     -2.219136   -1.026363   -1.449509
  H     -1.990191    0.722289   -1.569357

 Total Charge           Charge          ....    0
 Multiplicity           Mult            ....    1
 Number of Electrons    NEL             ....   58
 Basis Dimension        Dim             ....  213

ORBITAL ENERGIES
----------------

  NO   OCC          E(Eh)            E(eV)
   0   2.0000     -10.029667      -272.9211
   1   2.0000     -10.027073      -272.8505
   2   2.0000     -10.019447      -272.6430
   3   2.0000     -10.013647      -272.4852
   4   2.0000     -10.012130      -272.4439
   5   2.0000     -10.011724      -272.4329
   6   2.0000     -10.011707      -272.4324
   7   2.0000      -0.788447       -21.4547
   8   2.0000      -0.727561       -19.7980
   9   2.0000      -0.686654       -18.6848
  10   2.0000      -0.645073       -17.5533
  11   2.0000      -0.598955       -16.2984
  12   2.0000      -0.556875       -15.1533
  13   2.0000      -0.517077       -14.0704
  14   2.0000      -0.432979       -11.7819
  15   2.0000      -0.421377       -11.4663
  16   2.0000      -0.404871       -11.0171
  17   2.0000      -0.390518       -10.6265
  18   2.0000      -0.377726       -10.2784
  19   2.0000      -0.367418        -9.9980
  20   2.0000      -0.352729        -9.5982
  21   2.0000      -0.345328        -9.3968
  22   2.0000      -0.331312        -9.0155
  23   2.0000      -0.321642        -8.7523
  24   2.0000      -0.306224        -8.3328
  25   2.0000      -0.302867        -8.2414
  26   2.0000      -0.283647        -7.7184
  27   2.0000      -0.273904        -7.4533
  28   2.0000      -0.268943        -7.3183
  29   0.0000       0.084203         2.2913
  30   0.0000       0.103546         2.8176
  31   0.0000       0.108058         2.9404
  32   0.0000       0.116924         3.1817
  33   0.0000       0.122584         3.3357

MULLIKEN ATOMIC CHARGES
-----------------------
   0 C :   -0.488062
   1 C :   -0.307370
   2 C :   -0.005843
   3 H :    0.165693
   4 C :   -0.533731
   5 C :   -0.055238
   6 C :   -0.527215
   7 C :   -0.516689
   8 H :    0.144681
   9 H :    0.146234
  10 H :    0.151425
  11 H :    0.152280
  12 H :    0.148806
  13 H :    0.154461
  14 H :    0.146950
  15 H :    0.154384
  16 H :    0.158236
  17 H :    0.154235
  18 H :    0.145285
  19 H :    0.158931
  20 H :    0.142235
  21 H :    0.155242
  22 H :    0.155069
Sum of atomic charges:   -0.0000000

LOEWDIN ATOMIC CHARGES
----------------------
   0 C :   -0.422962
   1 C :   -0.310083
   2 C :   -0.234356
   3 H :    0.159384
   4 C :   -0.414816
   5 C :   -0.239521
   6 C :   -0.417245
   7 C :   -0.417902
   8 H :    0.148955
   9 H :    0.148761
  10 H :    0.150123
  11 H :    0.156002
  12 H :    0.155603
  13 H :    0.152425
  14 H :    0.152048
  15 H :    0.155224
  16 H :    0.156880
  17 H :    0.153873
  18 H :    0.152029
  19 H :    0.154349
  20 H :    0.152864
  21 H :    0.153268
  22 H :    0.155100

  Mayer bond orders larger than 0.100000
B(  0-C ,  1-C ) :   0.8957 B(  0-C ,  8-H ) :   0.9758 B(  0-C ,  9-H ) :   0.9867
B(  0-C , 10-H ) :   0.9744 B(  1-C ,  2-C ) :   0.8074 B(  1-C , 11-H ) :   0.9799
B(  1-C , 12-H ) :   0.9790 B(  2-C ,  3-H ) :   0.9943 B(  2-C ,  4-C ) :   0.8582
B(  2-C ,  5-C ) :   0.8711 B(  4-C , 13-H ) :   0.9763 B(  4-C , 14-H ) :   0.9785
B(  4-C , 15-H ) :   0.9858 B(  5-C ,  6-C ) :   0.8830 B(  5-C ,  7-C ) :   0.8809
B(  5-C , 16-H ) :   0.9710 B(  6-C , 17-H ) :   0.9686 B(  6-C , 18-H ) :   0.9735
B(  6-C , 19-H ) :   0.9913 B(  7-C , 20-H ) :   0.9745 B(  7-C , 21-H ) :   0.9742
B(  7-C , 22-H ) :   0.9877

Dispersion correction           -0.006526597
FINAL SINGLE POINT ENERGY      -276.283584958793

DIPOLE MOMENT
-------------

Method             : SCF
Type of density    : Electron Density
Multiplicity       :   1
Irrep              :   0
Energy             :  -276.2882443872196063 Eh
Relativity type    :
Basis              : AO
                                X                 Y                 Z
Electronic contribution:     -0.038487514      -0.774558024       0.105635315
Nuclear contribution   :      0.041687187       0.754290842      -0.092385366
                        -----------------------------------------
Total Dipole Moment    :      0.003199673      -0.020267182       0.013249949
                        -----------------------------------------
Magnitude (a.u.)       :      0.024424531
Magnitude (Debye)      :      0.062082225

Rotational constants in cm-1:             0.107023             0.064124             0.044649
Rotational constants in MHz :          3208.461787          1922.401832          1338.532603

                             ****ORCA TERMINATED NORMALLY****
TOTAL RUN TIME: 0 days 0 hours 0 minutes 22 seconds 186 msec
