                         Program Version 6.0.0  -   RELEASE  -
|  1> ! r2scan-3c def2/J RI DEFGRID2 scfconv6 printgap
|  2> %output
|  3>     printlevel normal
|  4> end
|  5> %cpcm
|  6>     smd true
|  7>     smdsolvent "water"
|  8> end
|  9> * xyz 0 1
| 10> C 2.2294160954 0.970410537 0.8415904541
| 11> C 1.4345318562 -0.3159486662 0.640520241
| 12> C 0.3371740805 -0.1879770016 -0.4381001766
| 13> H 0.4863263697 0.7567211414 -0.9730003681
| 14> C 0.4775712646 -1.3257004749 -1.4518054386
| 15> C -1.0733345068 -0.1542809496 0.1839376448
| 16> C -1.2397703892 1.0480075601 1.1141667081
| 17> C -2.169317151 -0.1019792689 -0.8820459356
| 18> H 2.984219292 0.8324252323 1.612933475
| 19> H 2.7324733208 1.2514486681 -0.0811708627
| 20> H 1.580806546 1.7898917288 1.1396888613
| 21> H 0.990089269 -0.6209482616 1.5895589718
| 22> H 2.1320098096 -1.105015534 0.3527928886
| 23> H -0.1811225659 -1.182748619 -2.303273614
| 24> H 1.4983736256 -1.3657950679 -1.8256999144
| 25> H 0.2437592107 -2.2807545004 -0.9854677451
| 26> H -1.2086378352 -1.0706148188 0.7711280403
| 27> H -0.5285696716 1.0216916919 1.934252571
| 28> H -2.241175297 1.056188944 1.5393583141
| 29> H -1.0973072392 1.9734683446 0.5598360947
| 30> H -3.1374821576 0.052124881 -0.4105451794
| 31> H -2.2191364742 -1.0263632778 -1.4495091822
| 32> H -1.9901912206 0.7222890911 -1.5693572637
| 33> *
| 34>
| 35>                          ****END OF INPUT****

CARTESIAN COORDINATES (ANGSTROEM)
---------------------------------
  C      2.229416    0.970411    0.841590
  C      1.434532   -0.315949    0.640520
  C      0.337174   -0.187977   -0.438100
  H      0.486326    0.756721   -0.973000
  C      0.477571   -1.325700   -1.451805
  C     -1.073335   -0.154281    0.183938
  C     -1.239770    1.048008    1.114167
  C     -2.169317   -0.101979   -0.882046
  H      2.984219    0.832425    1.612933
  H      2.732473    1.251449   -0.081171
  H      1.580807    1.789892    1.139689
  H      0.990089   -0.620948    1.589559
  H      2.132010   -1.105016    0.352793
  H     -0.181123   -1.182749   -2.303274
  H      1.498374   -1.365795   -1.825700
  H      0.243759   -2.280755   -0.985468
  H     -1.208638   -1.070615    0.771128
  H     -0.528570    1.021692    1.934253
  H     -2.241175    1.056189    1.539358
  H     -1.097307    1.973468    0.559836
  H     -3.137482    0.052125   -0.410545
  H     -2.219136   -1.026363   -1.449509
  H     -1.990191    0.722289   -1.569357

 Total Charge           Charge          ....    0
 Multiplicity           Mult            ....    1
 Number of Electrons    NEL             ....   58
 Basis Dimension        Dim             ....  213

ORBITAL ENERGIES
----------------

  NO   OCC          E(Eh)            E(eV)
   0   2.0000     -10.021779      -272.7065
   1   2.0000     -10.019182      -272.6358
   2   2.0000     -10.011614      -272.4299
   3   2.0000     -10.006426      -272.2887
   4   2.0000     -10.004014      -272.2231
   5   2.0000     -10.003896      -272.2199
   6   2.0000     -10.003880      -272.2194
   7   2.0000      -0.780622       -21.2418
   8   2.0000      -0.720092       -19.5947
   9   2.0000      -0.679428       -18.4882
  10   2.0000      -0.637756       -17.3542
  11   2.0000      -0.591849       -16.1050
  12   2.0000      -0.549614       -14.9558
  13   2.0000      -0.509214       -13.8564
  14   2.0000      -0.425038       -11.5659
  15   2.0000      -0.413802       -11.2601
  16   2.0000      -0.397536       -10.8175
  17   2.0000      -0.383037       -10.4230
  18   2.0000      -0.370298       -10.0763
  19   2.0000      -0.359901        -9.7934
  20   2.0000      -0.345065        -9.3897
  21   2.0000      -0.337853        -9.1935
  22   2.0000      -0.324041        -8.8176
  23   2.0000      -0.313907        -8.5418
  24   2.0000      -0.298642        -8.1264
  25   2.0000      -0.295100        -8.0301
  26   2.0000      -0.275511        -7.4970
  27   2.0000      -0.266275        -7.2457
  28   2.0000      -0.261268        -7.1095
  29   0.0000       0.092488         2.5167
  30   0.0000       0.110551         3.0082
  31   0.0000       0.116413         3.1678
  32   0.0000       0.124445         3.3863
  33   0.0000       0.129104         3.5131

MULLIKEN ATOMIC CHARGES
-----------------------
   0 C :   -0.525982
   1 C :   -0.312167
   2 C :   -0.005660
   3 H :    0.171884
   4 C :   -0.567724
   5 C :   -0.039207
   6 C :   -0.567594
   7 C :   -0.556364
   8 H :    0.153535
   9 H :    0.156493
  10 H :    0.159117
  11 H :    0.160950
  12 H :    0.154663
  13 H :    0.162478
  14 H :    0.157390
  15 H :    0.162493
  16 H :    0.164313
  17 H :    0.164330
  18 H :    0.156393
  19 H :    0.168022
  20 H :    0.153600
  21 H :    0.163764
  22 H :    0.165274
Sum of atomic charges:   -0.0000000

LOEWDIN ATOMIC CHARGES
----------------------
   0 C :   -0.430795
   1 C :   -0.312175
   2 C :   -0.233424
   3 H :    0.161087
   4 C :   -0.422518
   5 C :   -0.237797
   6 C :   -0.425182
   7 C :   -0.426201
   8 H :    0.150733
   9 H :    0.151002
  10 H :    0.151743
  11 H :    0.158361
  12 H :    0.156798
  13 H :    0.154062
  14 H :    0.154258
  15 H :    0.157066
  16 H :    0.158689
  17 H :    0.156525
  18 H :    0.154025
  19 H :    0.156324
  20 H :    0.154923
  21 H :    0.155150
  22 H :    0.157345

  Mayer bond orders larger than 0.100000
B(  0-C ,  1-C ) :   0.8882 B(  0-C ,  8-H ) :   0.9740 B(  0-C ,  9-H ) :   0.9838
B(  0-C , 10-H ) :   0.9733 B(  1-C ,  2-C ) :   0.8045 B(  1-C , 11-H ) :   0.9794
B(  1-C , 12-H ) :   0.9790 B(  2-C ,  3-H ) :   0.9945 B(  2-C ,  4-C ) :   0.8563
B(  2-C ,  5-C ) :   0.8707 B(  4-C , 13-H ) :   0.9742 B(  4-C , 14-H ) :   0.9759
B(  4-C , 15-H ) :   0.9833 B(  5-C ,  6-C ) :   0.8765 B(  5-C ,  7-C ) :   0.8739
B(  5-C , 16-H ) :   0.9714 B(  6-C , 17-H ) :   0.9663 B(  6-C , 18-H ) :   0.9721
B(  6-C , 19-H ) :   0.9890 B(  7-C , 20-H ) :   0.9733 B(  7-C , 21-H ) :   0.9712
B(  7-C , 22-H ) :   0.9854

Dispersion correction           -0.006526597
FINAL SINGLE POINT ENERGY      -276.279681058723

DIPOLE MOMENT
-------------

Method             : SCF
Type of density    : Electron Density
Multiplicity       :   1
Irrep              :   0
Energy             :  -276.2843404871503026 Eh
Relativity type    :
Basis              : AO
                                X                 Y                 Z
Electronic contribution:     -0.033838365      -0.779039462       0.113609147
Nuclear contribution   :      0.041687187       0.754290842      -0.092385366
                        -----------------------------------------
Total Dipole Moment    :      0.007848821      -0.024748620       0.021223781
                        -----------------------------------------
Magnitude (a.u.)       :      0.033534267
Magnitude (Debye)      :      0.085237334

Rotational constants in cm-1:             0.107023             0.064124             0.044649
Rotational constants in MHz :          3208.461787          1922.401832          1338.532603

                             ****ORCA TERMINATED NORMALLY****
TOTAL RUN TIME: 0 days 0 hours 0 minutes 28 seconds 134 msec
