                         Program Version 6.0.0  -   RELEASE  -
|  1> ! pbe def2-sv(p) def2/J RI DEFGRID1 loosescf d4 GCP(DFT/SV(P)) printgap
|  2> %output
|  3>     printlevel normal
|  4> end
|  5> * xyz 0 1
|  6> C 2.0486467396 -1.1398955309 -0.0353938753
|  7> C 1.4544538823 0.2760939199 -0.0737440763
|  8> C 1.6701958631 0.9874205622 1.2573237987
|  9> C 0.0132306522 0.1634175302 -0.5428143603
| 10> O -0.2164756598 0.0342592714 -1.7310892625
| 11> C -1.1155852237 0.1519280637 0.4708230664
| 12> C -1.4998989377 -1.3115495195 0.7263255079
| 13> C -2.313950685 0.9263187979 -0.07857735
| 14> H 1.607366944 -1.7186353885 0.7717602697
| 15> H 3.1213974344 -1.081606111 0.1270309582
| 16> H 1.864434733 -1.6527843388 -0.9765733259
| 17> H 1.9745748504 0.8281516268 -0.8654257647
| 18> H 2.7362831628 1.13735282 1.41001842
| 19> H 1.1866216856 1.9610805728 1.262277848
| 20> H 1.2938709621 0.3948061005 2.0868642835
| 21> H -0.7920319416 0.6041579806 1.4074560663
| 22> H -1.7573582123 -1.7975340804 -0.2122629127
| 23> H -0.6809768683 -1.8567172776 1.1870171069
| 24> H -2.3604717 -1.3518373478 1.388529403
| 25> H -2.0580107299 1.9742260066 -0.2184424649
| 26> H -2.6104591703 0.5167336284 -1.0415559695
| 27> H -3.1526395365 0.8584360097 0.6086306625
| 28> *
| 29>
| 30>                          ****END OF INPUT****

CARTESIAN COORDINATES (ANGSTROEM)
---------------------------------
  C      2.048647   -1.139896   -0.035394
  C      1.454454    0.276094   -0.073744
  C      1.670196    0.987421    1.257324
  C      0.013231    0.163418   -0.542814
  O     -0.216476    0.034259   -1.731089
  C     -1.115585    0.151928    0.470823
  C     -1.499899   -1.311550    0.726326
  C     -2.313951    0.926319   -0.078577
  H      1.607367   -1.718635    0.771760
  H      3.121397   -1.081606    0.127031
  H      1.864435   -1.652784   -0.976573
  H      1.974575    0.828152   -0.865426
  H      2.736283    1.137353    1.410018
  H      1.186622    1.961081    1.262278
  H      1.293871    0.394806    2.086864
  H     -0.792032    0.604158    1.407456
  H     -1.757358   -1.797534   -0.212263
  H     -0.680977   -1.856717    1.187017
  H     -2.360472   -1.351837    1.388529
  H     -2.058011    1.974226   -0.218442
  H     -2.610459    0.516734   -1.041556
  H     -3.152640    0.858436    0.608631

 Total Charge           Charge          ....    0
 Multiplicity           Mult            ....    1
 Number of Electrons    NEL             ....   64
 Basis Dimension        Dim             ....  140

ORBITAL ENERGIES
----------------

  NO   OCC          E(Eh)            E(eV)
   0   2.0000     -18.733049      -509.7522
   1   2.0000      -9.965257      -271.1684
   2   2.0000      -9.901771      -269.4409
   3   2.0000      -9.900598      -269.4090
   4   2.0000      -9.885492      -268.9979
   5   2.0000      -9.885363      -268.9944
   6   2.0000      -9.884966      -268.9836
   7   2.0000      -9.874125      -268.6886
   8   2.0000      -0.932032       -25.3619
   9   2.0000      -0.735942       -20.0260
  10   2.0000      -0.713837       -19.4245
  11   2.0000      -0.623237       -16.9591
  12   2.0000      -0.615027       -16.7357
  13   2.0000      -0.578040       -15.7293
  14   2.0000      -0.533976       -14.5302
  15   2.0000      -0.457140       -12.4394
  16   2.0000      -0.439281       -11.9535
  17   2.0000      -0.412321       -11.2198
  18   2.0000      -0.402107       -10.9419
  19   2.0000      -0.381494       -10.3810
  20   2.0000      -0.378693       -10.3048
  21   2.0000      -0.362615        -9.8673
  22   2.0000      -0.351178        -9.5560
  23   2.0000      -0.345281        -9.3956
  24   2.0000      -0.334036        -9.0896
  25   2.0000      -0.332148        -9.0382
  26   2.0000      -0.318891        -8.6775
  27   2.0000      -0.303947        -8.2708
  28   2.0000      -0.295337        -8.0365
  29   2.0000      -0.291846        -7.9415
  30   2.0000      -0.286112        -7.7855
  31   2.0000      -0.190196        -5.1755
  32   0.0000      -0.051697        -1.4068
  33   0.0000       0.025842         0.7032
  34   0.0000       0.055485         1.5098
  35   0.0000       0.062860         1.7105
  36   0.0000       0.074501         2.0273

MULLIKEN ATOMIC CHARGES
-----------------------
   0 C :   -0.266208
   1 C :   -0.140434
   2 C :   -0.252290
   3 C :    0.038433
   4 O :   -0.177904
   5 C :   -0.174843
   6 C :   -0.254396
   7 C :   -0.237477
   8 H :    0.107223
   9 H :    0.108648
  10 H :    0.118930
  11 H :    0.086216
  12 H :    0.104478
  13 H :    0.113529
  14 H :    0.108747
  15 H :    0.075443
  16 H :    0.112908
  17 H :    0.108304
  18 H :    0.108518
  19 H :    0.100056
  20 H :    0.115764
  21 H :    0.096355
Sum of atomic charges:   -0.0000000

LOEWDIN ATOMIC CHARGES
----------------------
   0 C :   -0.319338
   1 C :   -0.178914
   2 C :   -0.333597
   3 C :    0.070999
   4 O :   -0.131502
   5 C :   -0.182087
   6 C :   -0.317812
   7 C :   -0.323695
   8 H :    0.116815
   9 H :    0.122624
  10 H :    0.126981
  11 H :    0.133475
  12 H :    0.124685
  13 H :    0.121538
  14 H :    0.119001
  15 H :    0.121498
  16 H :    0.126529
  17 H :    0.117415
  18 H :    0.122609
  19 H :    0.119486
  20 H :    0.125875
  21 H :    0.117415

  Mayer bond orders larger than 0.100000
B(  0-C ,  1-C ) :   1.1002 B(  0-C ,  8-H ) :   0.9405 B(  0-C ,  9-H ) :   0.9475
B(  0-C , 10-H ) :   0.9451 B(  1-C ,  2-C ) :   1.1057 B(  1-C ,  3-C ) :   0.9732
B(  1-C , 11-H ) :   0.8753 B(  2-C , 12-H ) :   0.9411 B(  2-C , 13-H ) :   0.9481
B(  2-C , 14-H ) :   0.9352 B(  3-C ,  4-O ) :   2.1467 B(  3-C ,  5-C ) :   0.9607
B(  5-C ,  6-C ) :   1.0952 B(  5-C ,  7-C ) :   1.1024 B(  5-C , 15-H ) :   0.8798
B(  6-C , 16-H ) :   0.9437 B(  6-C , 17-H ) :   0.9435 B(  6-C , 18-H ) :   0.9462
B(  7-C , 19-H ) :   0.9545 B(  7-C , 20-H ) :   0.9404 B(  7-C , 21-H ) :   0.9485

Dispersion correction           -0.019171141
FINAL SINGLE POINT ENERGY      -349.566263563128

DIPOLE MOMENT
-------------

Method             : SCF
Type of density    : Electron Density
Multiplicity       :   1
Irrep              :   0
Energy             :  -349.6398339900134147 Eh
Relativity type    :
Basis              : AO
                                X                 Y                 Z
Electronic contribution:     -0.106918843       1.129188632      -5.546644313
Nuclear contribution   :      0.346350261      -1.110438293       6.480796766
                        -----------------------------------------
Total Dipole Moment    :      0.239431418       0.018750339       0.934152453
                        -----------------------------------------
Magnitude (a.u.)       :      0.964530862
Magnitude (Debye)      :      2.451642617

Rotational constants in cm-1:             0.092697             0.046252             0.044785
Rotational constants in MHz :          2778.975111          1386.597402          1342.628602

                             ****ORCA TERMINATED NORMALLY****
TOTAL RUN TIME: 0 days 0 hours 0 minutes 10 seconds 939 msec
