                         Program Version 6.0.0  -   RELEASE  -
|  1> ! pbe def2-sv(p) def2/J RI DEFGRID1 loosescf d4 GCP(DFT/SV(P)) printgap
|  2> %output
|  3>     printlevel normal
|  4> end
|  5> * xyz 0 1
|  6> C -2.367514304 0.2156303382 1.0718237452
|  7> C -1.7984386916 0.602732519 -0.2967422005
|  8> C -0.5282531137 -0.1698221363 -0.5404796159
|  9> O -0.464926019 -1.2397198644 -1.11222999
| 10> O 0.5239261505 0.4425327551 -0.0197905682
| 11> C 1.8065890271 -0.2005006522 -0.1155762712
| 12> C 2.7185253366 0.3890913016 0.943481367
| 13> H -2.5584779014 -0.8541873348 1.1112785867
| 14> H -1.6654335187 0.476159262 1.8593322765
| 15> H -3.3001990931 0.7442882092 1.2428368677
| 16> H -1.5725504149 1.6677054183 -0.3164411066
| 17> H -2.5109295833 0.351963395 -1.0816224912
| 18> H 1.6656047798 -1.2781899564 0.0165898497
| 19> H 2.197448606 -0.0247887739 -1.1228788476
| 20> H 3.6997487091 -0.0674127529 0.8658313387
| 21> H 2.8086245261 1.4615372343 0.7989511819
| 22> H 2.3146381956 0.2014951453 1.9340674238
| 23> *
| 24>
| 25>                          ****END OF INPUT****

CARTESIAN COORDINATES (ANGSTROEM)
---------------------------------
  C     -2.367514    0.215630    1.071824
  C     -1.798439    0.602733   -0.296742
  C     -0.528253   -0.169822   -0.540480
  O     -0.464926   -1.239720   -1.112230
  O      0.523926    0.442533   -0.019791
  C      1.806589   -0.200501   -0.115576
  C      2.718525    0.389091    0.943481
  H     -2.558478   -0.854187    1.111279
  H     -1.665434    0.476159    1.859332
  H     -3.300199    0.744288    1.242837
  H     -1.572550    1.667705   -0.316441
  H     -2.510930    0.351963   -1.081622
  H      1.665605   -1.278190    0.016590
  H      2.197449   -0.024789   -1.122879
  H      3.699749   -0.067413    0.865831
  H      2.808625    1.461537    0.798951
  H      2.314638    0.201495    1.934067

 Total Charge           Charge          ....    0
 Multiplicity           Mult            ....    1
 Number of Electrons    NEL             ....   56
 Basis Dimension        Dim             ....  118

ORBITAL ENERGIES
----------------

  NO   OCC          E(Eh)            E(eV)
   0   2.0000     -18.797091      -511.4949
   1   2.0000     -18.728223      -509.6209
   2   2.0000     -10.002607      -272.1848
   3   2.0000      -9.946407      -270.6555
   4   2.0000      -9.898002      -269.3383
   5   2.0000      -9.889719      -269.1129
   6   2.0000      -9.887986      -269.0658
   7   2.0000      -1.003707       -27.3122
   8   2.0000      -0.905428       -24.6380
   9   2.0000      -0.722480       -19.6597
  10   2.0000      -0.689750       -18.7690
  11   2.0000      -0.602314       -16.3898
  12   2.0000      -0.559480       -15.2242
  13   2.0000      -0.506450       -13.7812
  14   2.0000      -0.446164       -12.1407
  15   2.0000      -0.440508       -11.9868
  16   2.0000      -0.416703       -11.3391
  17   2.0000      -0.387306       -10.5391
  18   2.0000      -0.384559       -10.4644
  19   2.0000      -0.364889        -9.9291
  20   2.0000      -0.358202        -9.7472
  21   2.0000      -0.335594        -9.1320
  22   2.0000      -0.330318        -8.9884
  23   2.0000      -0.314469        -8.5571
  24   2.0000      -0.309951        -8.4342
  25   2.0000      -0.293212        -7.9787
  26   2.0000      -0.254437        -6.9236
  27   2.0000      -0.212748        -5.7892
  28   0.0000      -0.017811        -0.4847
  29   0.0000       0.038706         1.0532
  30   0.0000       0.057951         1.5769
  31   0.0000       0.078932         2.1478
  32   0.0000       0.087639         2.3848

MULLIKEN ATOMIC CHARGES
-----------------------
   0 C :   -0.304179
   1 C :   -0.129233
   2 C :    0.095955
   3 O :   -0.215555
   4 O :   -0.244612
   5 C :   -0.027993
   6 C :   -0.276429
   7 H :    0.117521
   8 H :    0.111036
   9 H :    0.116289
  10 H :    0.100069
  11 H :    0.105062
  12 H :    0.109975
  13 H :    0.103473
  14 H :    0.111147
  15 H :    0.114048
  16 H :    0.113427
Sum of atomic charges:    0.0000000

LOEWDIN ATOMIC CHARGES
----------------------
   0 C :   -0.330605
   1 C :   -0.249186
   2 C :    0.034245
   3 O :   -0.173391
   4 O :   -0.071935
   5 C :   -0.109355
   6 C :   -0.350895
   7 H :    0.125508
   8 H :    0.121580
   9 H :    0.123825
  10 H :    0.130364
  11 H :    0.134734
  12 H :    0.117574
  13 H :    0.115862
  14 H :    0.130105
  15 H :    0.126000
  16 H :    0.125571

  Mayer bond orders larger than 0.100000
B(  0-C ,  1-C ) :   1.1405 B(  0-C ,  7-H ) :   0.9531 B(  0-C ,  8-H ) :   0.9542
B(  0-C ,  9-H ) :   0.9525 B(  1-C ,  2-C ) :   1.0293 B(  1-C , 10-H ) :   0.9082
B(  1-C , 11-H ) :   0.9110 B(  2-C ,  3-O ) :   2.0544 B(  2-C ,  4-O ) :   1.2012
B(  4-O ,  5-C ) :   0.9126 B(  5-C ,  6-C ) :   1.1531 B(  5-C , 12-H ) :   0.9217
B(  5-C , 13-H ) :   0.9366 B(  6-C , 14-H ) :   0.9447 B(  6-C , 15-H ) :   0.9485
B(  6-C , 16-H ) :   0.9519

Dispersion correction           -0.011682337
FINAL SINGLE POINT ENERGY      -346.243772091879

DIPOLE MOMENT
-------------

Method             : SCF
Type of density    : Electron Density
Multiplicity       :   1
Irrep              :   0
Energy             :  -346.3082935476440980 Eh
Relativity type    :
Basis              : AO
                                X                 Y                 Z
Electronic contribution:     -0.717156082      -1.930237032      -4.484815704
Nuclear contribution   :      1.012663966       2.501127155       4.962956467
                        -----------------------------------------
Total Dipole Moment    :      0.295507885       0.570890124       0.478140762
                        -----------------------------------------
Magnitude (a.u.)       :      0.801161052
Magnitude (Debye)      :      2.036389561

Rotational constants in cm-1:             0.159801             0.050752             0.042751
Rotational constants in MHz :          4790.701534          1521.495407          1281.656282

                             ****ORCA TERMINATED NORMALLY****
TOTAL RUN TIME: 0 days 0 hours 0 minutes 8 seconds 898 msec
