                         Program Version 6.0.0  -   RELEASE  -
|  1> ! pbe def2-sv(p) def2/J RI DEFGRID1 loosescf d4 GCP(DFT/SV(P)) printgap
|  2> %output
|  3>     printlevel normal
|  4> end
|  5> * xyz 0 1
|  6> C 1.9868077464 1.0882248112 1.0049933921
|  7> C 1.6462401007 -0.2339879606 0.3274455345
|  8> C 0.3725395298 -0.2160053667 -0.5331471732
|  9> H 0.473752064 0.5867070741 -1.2723510116
| 10> C 0.3112985921 -1.5373900165 -1.3031086263
| 11> C -0.887831475 0.0786590378 0.3221943546
| 12> C -1.2825139753 1.5530430255 0.2059052448
| 13> C -2.1117082859 -0.7682946455 -0.0313875066
| 14> H 1.2400300476 1.3567009574 1.7471984435
| 15> H 2.947657121 1.0080836368 1.5089960499
| 16> H 2.053969832 1.8876646025 0.2701436776
| 17> H 1.545060803 -1.0121492904 1.0883862602
| 18> H 2.4853575378 -0.5140780351 -0.314360006
| 19> H 1.2173536732 -1.6551429062 -1.8942444775
| 20> H 0.2439230259 -2.3810873961 -0.6203050834
| 21> H -0.5354058056 -1.5654002221 -1.9816071658
| 22> H -0.6420818809 -0.1327260342 1.3689355605
| 23> H -1.6102215605 1.7711582242 -0.8088704358
| 24> H -0.4515579208 2.2095566444 0.4442539156
| 25> H -2.102864594 1.7802252613 0.8837802228
| 26> H -1.9185775405 -1.8285389908 0.0999283815
| 27> H -2.4241366024 -0.5907903097 -1.0577112402
| 28> H -2.9373489311 -0.4941423009 0.6224935557
| 29> *
| 30>
| 31>                          ****END OF INPUT****

CARTESIAN COORDINATES (ANGSTROEM)
---------------------------------
  C      1.986808    1.088225    1.004993
  C      1.646240   -0.233988    0.327446
  C      0.372540   -0.216005   -0.533147
  H      0.473752    0.586707   -1.272351
  C      0.311299   -1.537390   -1.303109
  C     -0.887831    0.078659    0.322194
  C     -1.282514    1.553043    0.205905
  C     -2.111708   -0.768295   -0.031388
  H      1.240030    1.356701    1.747198
  H      2.947657    1.008084    1.508996
  H      2.053970    1.887665    0.270144
  H      1.545061   -1.012149    1.088386
  H      2.485358   -0.514078   -0.314360
  H      1.217354   -1.655143   -1.894244
  H      0.243923   -2.381087   -0.620305
  H     -0.535406   -1.565400   -1.981607
  H     -0.642082   -0.132726    1.368936
  H     -1.610222    1.771158   -0.808870
  H     -0.451558    2.209557    0.444254
  H     -2.102865    1.780225    0.883780
  H     -1.918578   -1.828539    0.099928
  H     -2.424137   -0.590790   -1.057711
  H     -2.937349   -0.494142    0.622494

 Total Charge           Charge          ....    0
 Multiplicity           Mult            ....    1
 Number of Electrons    NEL             ....   58
 Basis Dimension        Dim             ....  130

ORBITAL ENERGIES
----------------

  NO   OCC          E(Eh)            E(eV)
   0   2.0000      -9.889198      -269.0988
   1   2.0000      -9.887179      -269.0438
   2   2.0000      -9.878355      -268.8037
   3   2.0000      -9.869472      -268.5620
   4   2.0000      -9.867589      -268.5108
   5   2.0000      -9.867246      -268.5014
   6   2.0000      -9.866872      -268.4912
   7   2.0000      -0.740377       -20.1467
   8   2.0000      -0.682719       -18.5777
   9   2.0000      -0.644758       -17.5448
  10   2.0000      -0.604227       -16.4419
  11   2.0000      -0.562045       -15.2940
  12   2.0000      -0.525509       -14.2998
  13   2.0000      -0.484107       -13.1732
  14   2.0000      -0.414230       -11.2718
  15   2.0000      -0.410014       -11.1571
  16   2.0000      -0.382628       -10.4118
  17   2.0000      -0.376938       -10.2570
  18   2.0000      -0.365272        -9.9395
  19   2.0000      -0.349902        -9.5213
  20   2.0000      -0.338152        -9.2016
  21   2.0000      -0.331827        -9.0295
  22   2.0000      -0.316917        -8.6238
  23   2.0000      -0.311080        -8.4649
  24   2.0000      -0.295315        -8.0359
  25   2.0000      -0.290412        -7.9025
  26   2.0000      -0.268456        -7.3051
  27   2.0000      -0.264104        -7.1866
  28   2.0000      -0.259833        -7.0704
  29   0.0000       0.036183         0.9846
  30   0.0000       0.056303         1.5321
  31   0.0000       0.060508         1.6465
  32   0.0000       0.062661         1.7051
  33   0.0000       0.091307         2.4846

MULLIKEN ATOMIC CHARGES
-----------------------
   0 C :   -0.264227
   1 C :   -0.183280
   2 C :   -0.140303
   3 H :    0.060486
   4 C :   -0.220523
   5 C :   -0.156060
   6 C :   -0.260038
   7 C :   -0.233792
   8 H :    0.110818
   9 H :    0.099089
  10 H :    0.099638
  11 H :    0.081080
  12 H :    0.077750
  13 H :    0.093755
  14 H :    0.091305
  15 H :    0.097799
  16 H :    0.068836
  17 H :    0.094204
  18 H :    0.103276
  19 H :    0.093600
  20 H :    0.098417
  21 H :    0.092996
  22 H :    0.095174
Sum of atomic charges:    0.0000000

LOEWDIN ATOMIC CHARGES
----------------------
   0 C :   -0.343065
   1 C :   -0.222799
   2 C :   -0.143210
   3 H :    0.112669
   4 C :   -0.328772
   5 C :   -0.148593
   6 C :   -0.330131
   7 C :   -0.329121
   8 H :    0.116920
   9 H :    0.119197
  10 H :    0.116402
  11 H :    0.112050
  12 H :    0.112226
  13 H :    0.116423
  14 H :    0.115951
  15 H :    0.116163
  16 H :    0.112989
  17 H :    0.115038
  18 H :    0.115710
  19 H :    0.115113
  20 H :    0.116206
  21 H :    0.115612
  22 H :    0.117023

  Mayer bond orders larger than 0.100000
B(  0-C ,  1-C ) :   1.1640 B(  0-C ,  8-H ) :   0.9416 B(  0-C ,  9-H ) :   0.9475
B(  0-C , 10-H ) :   0.9478 B(  1-C ,  2-C ) :   1.0946 B(  1-C , 11-H ) :   0.9197
B(  1-C , 12-H ) :   0.9244 B(  2-C ,  3-H ) :   0.8942 B(  2-C ,  4-C ) :   1.1619
B(  2-C ,  5-C ) :   1.0029 B(  4-C , 13-H ) :   0.9442 B(  4-C , 14-H ) :   0.9417
B(  4-C , 15-H ) :   0.9335 B(  5-C ,  6-C ) :   1.1137 B(  5-C ,  7-C ) :   1.1606
B(  5-C , 16-H ) :   0.8958 B(  6-C , 17-H ) :   0.9475 B(  6-C , 18-H ) :   0.9413
B(  6-C , 19-H ) :   0.9498 B(  7-C , 20-H ) :   0.9344 B(  7-C , 21-H ) :   0.9426
B(  7-C , 22-H ) :   0.9470

Dispersion correction           -0.019172723
FINAL SINGLE POINT ENERGY      -275.655905007582

DIPOLE MOMENT
-------------

Method             : SCF
Type of density    : Electron Density
Multiplicity       :   1
Irrep              :   0
Energy             :  -275.7334961217284786 Eh
Relativity type    :
Basis              : AO
                                X                 Y                 Z
Electronic contribution:      0.418357926      -0.409136610      -0.065688269
Nuclear contribution   :     -0.389422117       0.399695157       0.079430983
                        -----------------------------------------
Total Dipole Moment    :      0.028935810      -0.009441453       0.013742715
                        -----------------------------------------
Magnitude (a.u.)       :      0.033395873
Magnitude (Debye)      :      0.084885562

Rotational constants in cm-1:             0.100723             0.067267             0.046169
Rotational constants in MHz :          3019.589871          2016.602165          1384.124611

                             ****ORCA TERMINATED NORMALLY****
TOTAL RUN TIME: 0 days 0 hours 0 minutes 10 seconds 183 msec
