                         Program Version 6.0.0  -   RELEASE  -
|  1> ! pbe def2-sv(p) def2/J RI DEFGRID1 loosescf d4 GCP(DFT/SV(P)) printgap
|  2> %output
|  3>     printlevel normal
|  4> end
|  5> * xyz 0 1
|  6> C 1.4617430931 -1.2214569216 -0.6592273087
|  7> C 1.0768243877 -0.2377461457 0.4444816945
|  8> C 1.2784547806 1.1997531823 -0.0299193423
|  9> C -0.3509912097 -0.4788013944 0.9604104638
| 10> C -1.4728960108 -0.3729304903 -0.0772857294
| 11> O -1.7401288029 0.9382953599 -0.5298623237
| 12> H 1.2451917613 -2.2436866989 -0.3575774602
| 13> H 2.5252261163 -1.1436021912 -0.8723926987
| 14> H 0.9198303179 -1.0048791929 -1.5762516378
| 15> H 1.7463246258 -0.4119319761 1.2963472093
| 16> H 0.6004409725 1.4280737691 -0.8480208045
| 17> H 2.2996202298 1.3410826763 -0.3765167778
| 18> H 1.0930054352 1.900864095 0.7807352954
| 19> H -0.5540521329 0.2292409724 1.7681209319
| 20> H -0.399066609 -1.4847747001 1.3823480714
| 21> H -1.2241599671 -0.9425266982 -0.973934208
| 22> H -2.3883754505 -0.8046096409 0.3526183681
| 23> H -1.9930935525 1.4840473867 0.2271220535
| 24> *
| 25>
| 26>                          ****END OF INPUT****

CARTESIAN COORDINATES (ANGSTROEM)
---------------------------------
  C      1.461743   -1.221457   -0.659227
  C      1.076824   -0.237746    0.444482
  C      1.278455    1.199753   -0.029919
  C     -0.350991   -0.478801    0.960410
  C     -1.472896   -0.372930   -0.077286
  O     -1.740129    0.938295   -0.529862
  H      1.245192   -2.243687   -0.357577
  H      2.525226   -1.143602   -0.872393
  H      0.919830   -1.004879   -1.576252
  H      1.746325   -0.411932    1.296347
  H      0.600441    1.428074   -0.848021
  H      2.299620    1.341083   -0.376517
  H      1.093005    1.900864    0.780735
  H     -0.554052    0.229241    1.768121
  H     -0.399067   -1.484775    1.382348
  H     -1.224160   -0.942527   -0.973934
  H     -2.388375   -0.804610    0.352618
  H     -1.993094    1.484047    0.227122

 Total Charge           Charge          ....    0
 Multiplicity           Mult            ....    1
 Number of Electrons    NEL             ....   50
 Basis Dimension        Dim             ....  108

ORBITAL ENERGIES
----------------

  NO   OCC          E(Eh)            E(eV)
   0   2.0000     -18.740650      -509.9590
   1   2.0000      -9.927199      -270.1328
   2   2.0000      -9.891943      -269.1735
   3   2.0000      -9.883672      -268.9484
   4   2.0000      -9.870246      -268.5831
   5   2.0000      -9.862143      -268.3625
   6   2.0000      -0.917257       -24.9598
   7   2.0000      -0.726556       -19.7706
   8   2.0000      -0.647125       -17.6092
   9   2.0000      -0.605335       -16.4720
  10   2.0000      -0.566480       -15.4147
  11   2.0000      -0.493203       -13.4207
  12   2.0000      -0.441635       -12.0175
  13   2.0000      -0.421572       -11.4715
  14   2.0000      -0.404162       -10.9978
  15   2.0000      -0.376787       -10.2529
  16   2.0000      -0.358937        -9.7672
  17   2.0000      -0.356633        -9.7045
  18   2.0000      -0.331363        -9.0169
  19   2.0000      -0.314472        -8.5572
  20   2.0000      -0.292341        -7.9550
  21   2.0000      -0.285680        -7.7738
  22   2.0000      -0.282721        -7.6932
  23   2.0000      -0.263061        -7.1583
  24   2.0000      -0.208146        -5.6639
  25   0.0000       0.021674         0.5898
  26   0.0000       0.051495         1.4012
  27   0.0000       0.064337         1.7507
  28   0.0000       0.079633         2.1669
  29   0.0000       0.098769         2.6876

MULLIKEN ATOMIC CHARGES
-----------------------
   0 C :   -0.264593
   1 C :   -0.155968
   2 C :   -0.258856
   3 C :   -0.170163
   4 C :    0.004420
   5 O :   -0.430343
   6 H :    0.094690
   7 H :    0.099740
   8 H :    0.108602
   9 H :    0.069634
  10 H :    0.119265
  11 H :    0.091128
  12 H :    0.083845
  13 H :    0.069781
  14 H :    0.079966
  15 H :    0.092364
  16 H :    0.073685
  17 H :    0.292802
Sum of atomic charges:    0.0000000

LOEWDIN ATOMIC CHARGES
----------------------
   0 C :   -0.332864
   1 C :   -0.156049
   2 C :   -0.340123
   3 C :   -0.242655
   4 C :   -0.124490
   5 O :   -0.335213
   6 H :    0.114896
   7 H :    0.119804
   8 H :    0.118405
   9 H :    0.112910
  10 H :    0.122378
  11 H :    0.113454
  12 H :    0.111236
  13 H :    0.110182
  14 H :    0.119348
  15 H :    0.113080
  16 H :    0.095670
  17 H :    0.280031

  Mayer bond orders larger than 0.100000
B(  0-C ,  1-C ) :   1.1121 B(  0-C ,  6-H ) :   0.9514 B(  0-C ,  7-H ) :   0.9487
B(  0-C ,  8-H ) :   0.9438 B(  1-C ,  2-C ) :   1.1148 B(  1-C ,  3-C ) :   1.0853
B(  1-C ,  9-H ) :   0.9045 B(  2-C , 10-H ) :   0.9338 B(  2-C , 11-H ) :   0.9489
B(  2-C , 12-H ) :   0.9512 B(  3-C ,  4-C ) :   1.0912 B(  3-C , 13-H ) :   0.9179
B(  3-C , 14-H ) :   0.9065 B(  4-C ,  5-O ) :   1.0540 B(  4-C , 15-H ) :   0.9256
B(  4-C , 16-H ) :   0.9267 B(  5-O , 17-H ) :   0.8511

Dispersion correction           -0.013410132
FINAL SINGLE POINT ENERGY      -272.299322504599

DIPOLE MOMENT
-------------

Method             : SCF
Type of density    : Electron Density
Multiplicity       :   1
Irrep              :   0
Energy             :  -272.3693152998674236 Eh
Relativity type    :
Basis              : AO
                                X                 Y                 Z
Electronic contribution:     -3.667955800       1.413478010      -0.165333650
Nuclear contribution   :      3.605705548      -1.536580364       0.745105177
                        -----------------------------------------
Total Dipole Moment    :     -0.062250251      -0.123102354       0.579771527
                        -----------------------------------------
Magnitude (a.u.)       :      0.595956632
Magnitude (Debye)      :      1.514801374

Rotational constants in cm-1:             0.159976             0.081156             0.069791
Rotational constants in MHz :          4795.953701          2432.982606          2092.267867

                             ****ORCA TERMINATED NORMALLY****
TOTAL RUN TIME: 0 days 0 hours 0 minutes 8 seconds 299 msec
