                         Program Version 6.0.0  -   RELEASE  -
|  1> ! pbe def2-sv(p) def2/J RI DEFGRID1 loosescf d4 GCP(DFT/SV(P)) printgap
|  2> %output
|  3>     printlevel normal
|  4> end
|  5> * xyz 0 1
|  6> C -1.3605626834 -0.073020311 -0.5445823056
|  7> C -0.0149337317 0.019894824 0.1795274506
|  8> C 1.0894795936 -0.7364729509 -0.5692007916
|  9> O 2.2811665238 -0.5812177019 0.171743211
| 10> O 0.3246052592 1.3835367997 0.3040444196
| 11> O -2.3921616334 -0.0637028845 0.4158161867
| 12> H -1.3984263326 -0.9997856788 -1.1320952526
| 13> H -1.4386404237 0.7884827289 -1.2167410261
| 14> H -0.1330168591 -0.4259366121 1.1787083515
| 15> H 1.1978079738 -0.3060300868 -1.5727104699
| 16> H 0.81446484 -1.7940202612 -0.6508043252
| 17> H 3.0061673656 -1.0333620548 -0.280001846
| 18> H 1.215199773 1.4324438134 0.6838148209
| 19> H -3.2460580593 0.0228323975 -0.0302214469
| 20> *
| 21>
| 22>                          ****END OF INPUT****

CARTESIAN COORDINATES (ANGSTROEM)
---------------------------------
  C     -1.360563   -0.073020   -0.544582
  C     -0.014934    0.019895    0.179527
  C      1.089480   -0.736473   -0.569201
  O      2.281167   -0.581218    0.171743
  O      0.324605    1.383537    0.304044
  O     -2.392162   -0.063703    0.415816
  H     -1.398426   -0.999786   -1.132095
  H     -1.438640    0.788483   -1.216741
  H     -0.133017   -0.425937    1.178708
  H      1.197808   -0.306030   -1.572710
  H      0.814465   -1.794020   -0.650804
  H      3.006167   -1.033362   -0.280002
  H      1.215200    1.432444    0.683815
  H     -3.246058    0.022832   -0.030221

 Total Charge           Charge          ....    0
 Multiplicity           Mult            ....    1
 Number of Electrons    NEL             ....   50
 Basis Dimension        Dim             ....  100

ORBITAL ENERGIES
----------------

  NO   OCC          E(Eh)            E(eV)
   0   2.0000     -18.756118      -510.3799
   1   2.0000     -18.739341      -509.9234
   2   2.0000     -18.732708      -509.7429
   3   2.0000      -9.932534      -270.2780
   4   2.0000      -9.931081      -270.2384
   5   2.0000      -9.927470      -270.1402
   6   2.0000      -0.936169       -25.4744
   7   2.0000      -0.918031       -24.9809
   8   2.0000      -0.901939       -24.5430
   9   2.0000      -0.681160       -18.5353
  10   2.0000      -0.602676       -16.3997
  11   2.0000      -0.520747       -14.1702
  12   2.0000      -0.481295       -13.0967
  13   2.0000      -0.463873       -12.6226
  14   2.0000      -0.450462       -12.2577
  15   2.0000      -0.406230       -11.0541
  16   2.0000      -0.371692       -10.1143
  17   2.0000      -0.359580        -9.7847
  18   2.0000      -0.353742        -9.6258
  19   2.0000      -0.300631        -8.1806
  20   2.0000      -0.288240        -7.8434
  21   2.0000      -0.261919        -7.1272
  22   2.0000      -0.226932        -6.1751
  23   2.0000      -0.214302        -5.8315
  24   2.0000      -0.201998        -5.4966
  25   0.0000       0.019386         0.5275
  26   0.0000       0.033497         0.9115
  27   0.0000       0.060759         1.6533
  28   0.0000       0.072869         1.9829
  29   0.0000       0.091937         2.5017

MULLIKEN ATOMIC CHARGES
-----------------------
   0 C :    0.028239
   1 C :    0.027042
   2 C :   -0.016100
   3 O :   -0.441739
   4 O :   -0.433338
   5 O :   -0.433376
   6 H :    0.064027
   7 H :    0.079646
   8 H :    0.077898
   9 H :    0.071828
  10 H :    0.072498
  11 H :    0.306114
  12 H :    0.300035
  13 H :    0.297228
Sum of atomic charges:   -0.0000000

LOEWDIN ATOMIC CHARGES
----------------------
   0 C :   -0.122894
   1 C :   -0.073420
   2 C :   -0.142952
   3 O :   -0.347679
   4 O :   -0.329767
   5 O :   -0.342313
   6 H :    0.092404
   7 H :    0.105252
   8 H :    0.109916
   9 H :    0.097714
  10 H :    0.098076
  11 H :    0.290158
  12 H :    0.280931
  13 H :    0.284575

  Mayer bond orders larger than 0.100000
B(  0-C ,  1-C ) :   1.0477 B(  0-C ,  5-O ) :   1.0971 B(  0-C ,  6-H ) :   0.9253
B(  0-C ,  7-H ) :   0.9027 B(  1-C ,  2-C ) :   1.0577 B(  1-C ,  4-O ) :   1.0721
B(  1-C ,  8-H ) :   0.8968 B(  2-C ,  3-O ) :   1.0804 B(  2-C ,  9-H ) :   0.9083
B(  2-C , 10-H ) :   0.9097 B(  3-O , 11-H ) :   0.8492 B(  4-O , 12-H ) :   0.8382
B(  5-O , 13-H ) :   0.8524

Dispersion correction           -0.008872193
FINAL SINGLE POINT ENERGY      -344.004672052739

DIPOLE MOMENT
-------------

Method             : SCF
Type of density    : Electron Density
Multiplicity       :   1
Irrep              :   0
Energy             :  -344.0775979766524983 Eh
Relativity type    :
Basis              : AO
                                X                 Y                 Z
Electronic contribution:      0.292071073       1.496118324       1.942703197
Nuclear contribution   :      0.019588814      -2.161254452      -2.820090119
                        -----------------------------------------
Total Dipole Moment    :      0.311659887      -0.665136128      -0.877386922
                        -----------------------------------------
Magnitude (a.u.)       :      1.144266475
Magnitude (Debye)      :      2.908494236

Rotational constants in cm-1:             0.247179             0.065113             0.056936
Rotational constants in MHz :          7410.251499          1952.030888          1706.912233

                             ****ORCA TERMINATED NORMALLY****
TOTAL RUN TIME: 0 days 0 hours 0 minutes 6 seconds 700 msec
