                         Program Version 6.0.0  -   RELEASE  -
|  1> ! wb97x-v def2-tzvp def2/J RIJCOSX DEFGRID2 scfconv7 GCP(DFT/TZ) printgap
|  2> %output
|  3>     printlevel normal
|  4> end
|  5> * xyz 0 1
|  6> C 2.259771484341284 -0.569900341701046 0.5829566457592822
|  7> C 1.527978354215719 -0.1243053849572141 -0.6810112020642747
|  8> C 0.5823835056942595 1.0571563860609663 -0.4581015828859318
|  9> C -0.52780515750067 0.8290376655020913 0.5602396358542097
| 10> S -1.6869874133254943 -0.5522424380274564 0.13429097648000596
| 11> H 1.572727103791615 -0.9917213866960759 1.3239709284179677
| 12> H 2.7814078407185816 0.27237250364156884 1.0522897808356289
| 13> H 3.003882358391573 -1.3392663047688491 0.3533942356267823
| 14> H 0.9642910828636506 -0.9680710178793764 -1.0960901027225831
| 15> H 2.2616067998098948 0.16640916355593763 -1.4420959992322686
| 16> H 0.13323140928738703 1.3555753935547932 -1.413571520622708
| 17> H 1.1649979720245445 1.9193088902003015 -0.10271586991645881
| 18> H -0.12340198621387165 0.5578601973531407 1.540266388543336
| 19> H -1.118849744183697 1.7389778817615738 0.6920064560827829
| 20> H -2.1009311490759774 -0.03828236880273497 -1.0390792519915766
| 21> *
| 22>
| 23>                          ****END OF INPUT****

CARTESIAN COORDINATES (ANGSTROEM)
---------------------------------
  C      2.259771   -0.569900    0.582957
  C      1.527978   -0.124305   -0.681011
  C      0.582384    1.057156   -0.458102
  C     -0.527805    0.829038    0.560240
  S     -1.686987   -0.552242    0.134291
  H      1.572727   -0.991721    1.323971
  H      2.781408    0.272373    1.052290
  H      3.003882   -1.339266    0.353394
  H      0.964291   -0.968071   -1.096090
  H      2.261607    0.166409   -1.442096
  H      0.133231    1.355575   -1.413572
  H      1.164998    1.919309   -0.102716
  H     -0.123402    0.557860    1.540266
  H     -1.118850    1.738978    0.692006
  H     -2.100931   -0.038282   -1.039079

 Total Charge           Charge          ....    0
 Multiplicity           Mult            ....    1
 Number of Electrons    NEL             ....   50
 Basis Dimension        Dim             ....  221

ORBITAL ENERGIES
----------------

  NO   OCC          E(Eh)            E(eV)
   0   2.0000     -94.118444     -2561.0931
   1   2.0000     -12.080475      -328.7264
   2   2.0000     -12.050752      -327.9176
   3   2.0000     -12.041162      -327.6567
   4   2.0000     -12.034887      -327.4859
   5   2.0000      -9.629734      -262.0384
   6   2.0000      -7.607428      -207.0086
   7   2.0000      -7.606237      -206.9762
   8   2.0000      -7.605710      -206.9619
   9   2.0000      -1.317832       -35.8600
  10   2.0000      -1.257936       -34.2302
  11   2.0000      -1.190806       -32.4035
  12   2.0000      -1.115800       -30.3625
  13   2.0000      -1.038615       -28.2622
  14   2.0000      -0.899288       -24.4709
  15   2.0000      -0.892789       -24.2940
  16   2.0000      -0.863879       -23.5073
  17   2.0000      -0.834581       -22.7101
  18   2.0000      -0.833637       -22.6844
  19   2.0000      -0.812412       -22.1068
  20   2.0000      -0.776093       -21.1186
  21   2.0000      -0.769931       -20.9509
  22   2.0000      -0.763061       -20.7639
  23   2.0000      -0.738613       -20.0987
  24   2.0000      -0.644345       -17.5335
  25   0.0000      -0.197500        -5.3742
  26   0.0000      -0.105469        -2.8700
  27   0.0000      -0.025893        -0.7046
  28   0.0000      -0.021211        -0.5772
  29   0.0000      -0.012028        -0.3273

MULLIKEN ATOMIC CHARGES
-----------------------
   0 C :   -0.371297
   1 C :   -0.131002
   2 C :   -0.191234
   3 C :   -0.207095
   4 S :   -0.223942
   5 H :    0.114244
   6 H :    0.104227
   7 H :    0.116968
   8 H :    0.102603
   9 H :    0.095508
  10 H :    0.102254
  11 H :    0.096241
  12 H :    0.129356
  13 H :    0.133299
  14 H :    0.129870
Sum of atomic charges:   -0.0000000

LOEWDIN ATOMIC CHARGES
----------------------
   0 C :   -0.308568
   1 C :   -0.298816
   2 C :   -0.301290
   3 C :   -0.467006
   4 S :    0.217714
   5 H :    0.114982
   6 H :    0.115722
   7 H :    0.117678
   8 H :    0.131180
   9 H :    0.131549
  10 H :    0.132275
  11 H :    0.137216
  12 H :    0.125523
  13 H :    0.120751
  14 H :    0.031092

  Mayer bond orders larger than 0.100000
B(  0-C ,  1-C ) :   0.9695 B(  0-C ,  5-H ) :   0.9821 B(  0-C ,  6-H ) :   0.9786
B(  0-C ,  7-H ) :   0.9816 B(  1-C ,  2-C ) :   0.9784 B(  1-C ,  8-H ) :   0.9688
B(  1-C ,  9-H ) :   0.9754 B(  2-C ,  3-C ) :   0.9653 B(  2-C , 10-H ) :   0.9764
B(  2-C , 11-H ) :   0.9684 B(  3-C ,  4-S ) :   1.0210 B(  3-C , 12-H ) :   0.9659
B(  3-C , 13-H ) :   0.9717 B(  4-S , 14-H ) :   0.9713

FINAL SINGLE POINT ENERGY      -556.595243526835

DIPOLE MOMENT
-------------

Method             : SCF
Type of density    : Electron Density
Multiplicity       :   1
Irrep              :   0
Energy             :  -556.6057756526348612 Eh
Relativity type    :
Basis              : AO
                                X                 Y                 Z
Electronic contribution:     -7.635288878      -2.059150642       0.381066920
Nuclear contribution   :      7.990129123       2.595793827      -0.565203611
                        -----------------------------------------
Total Dipole Moment    :      0.354840244       0.536643185      -0.184136691
                        -----------------------------------------
Magnitude (a.u.)       :      0.669181461
Magnitude (Debye)      :      1.700924099

Rotational constants in cm-1:             0.221598             0.067930             0.062230
Rotational constants in MHz :          6643.340814          2036.495855          1865.597790

                             ****ORCA TERMINATED NORMALLY****
TOTAL RUN TIME: 0 days 0 hours 1 minutes 11 seconds 477 msec
