                         Program Version 6.0.0  -   RELEASE  -
|  1> ! wb97x-v def2-tzvp def2/J RIJCOSX DEFGRID2 scfconv7 GCP(DFT/TZ) printgap
|  2> %output
|  3>     printlevel normal
|  4> end
|  5> %cpcm
|  6>     smd true
|  7>     smdsolvent "water"
|  8> end
|  9> * xyz 0 1
| 10> C 2.259771484341284 -0.569900341701046 0.5829566457592822
| 11> C 1.527978354215719 -0.1243053849572141 -0.6810112020642747
| 12> C 0.5823835056942595 1.0571563860609663 -0.4581015828859318
| 13> C -0.52780515750067 0.8290376655020913 0.5602396358542097
| 14> S -1.6869874133254943 -0.5522424380274564 0.13429097648000596
| 15> H 1.572727103791615 -0.9917213866960759 1.3239709284179677
| 16> H 2.7814078407185816 0.27237250364156884 1.0522897808356289
| 17> H 3.003882358391573 -1.3392663047688491 0.3533942356267823
| 18> H 0.9642910828636506 -0.9680710178793764 -1.0960901027225831
| 19> H 2.2616067998098948 0.16640916355593763 -1.4420959992322686
| 20> H 0.13323140928738703 1.3555753935547932 -1.413571520622708
| 21> H 1.1649979720245445 1.9193088902003015 -0.10271586991645881
| 22> H -0.12340198621387165 0.5578601973531407 1.540266388543336
| 23> H -1.118849744183697 1.7389778817615738 0.6920064560827829
| 24> H -2.1009311490759774 -0.03828236880273497 -1.0390792519915766
| 25> *
| 26>
| 27>                          ****END OF INPUT****

CARTESIAN COORDINATES (ANGSTROEM)
---------------------------------
  C      2.259771   -0.569900    0.582957
  C      1.527978   -0.124305   -0.681011
  C      0.582384    1.057156   -0.458102
  C     -0.527805    0.829038    0.560240
  S     -1.686987   -0.552242    0.134291
  H      1.572727   -0.991721    1.323971
  H      2.781408    0.272373    1.052290
  H      3.003882   -1.339266    0.353394
  H      0.964291   -0.968071   -1.096090
  H      2.261607    0.166409   -1.442096
  H      0.133231    1.355575   -1.413572
  H      1.164998    1.919309   -0.102716
  H     -0.123402    0.557860    1.540266
  H     -1.118850    1.738978    0.692006
  H     -2.100931   -0.038282   -1.039079

 Total Charge           Charge          ....    0
 Multiplicity           Mult            ....    1
 Number of Electrons    NEL             ....   50
 Basis Dimension        Dim             ....  221

ORBITAL ENERGIES
----------------

  NO   OCC          E(Eh)            E(eV)
   0   2.0000     -94.115037     -2561.0004
   1   2.0000     -12.068938      -328.4125
   2   2.0000     -12.037159      -327.5477
   3   2.0000     -12.031310      -327.3886
   4   2.0000     -12.024147      -327.1937
   5   2.0000      -9.626472      -261.9496
   6   2.0000      -7.604190      -206.9205
   7   2.0000      -7.603005      -206.8883
   8   2.0000      -7.602693      -206.8798
   9   2.0000      -1.306963       -35.5643
  10   2.0000      -1.249692       -34.0058
  11   2.0000      -1.182105       -32.1667
  12   2.0000      -1.105910       -30.0933
  13   2.0000      -1.027609       -27.9627
  14   2.0000      -0.887434       -24.1483
  15   2.0000      -0.881611       -23.9898
  16   2.0000      -0.853787       -23.2327
  17   2.0000      -0.823805       -22.4169
  18   2.0000      -0.822818       -22.3900
  19   2.0000      -0.803341       -21.8600
  20   2.0000      -0.766138       -20.8477
  21   2.0000      -0.757971       -20.6254
  22   2.0000      -0.754116       -20.5205
  23   2.0000      -0.731240       -19.8981
  24   2.0000      -0.641927       -17.4677
  25   0.0000      -0.191539        -5.2120
  26   0.0000      -0.096301        -2.6205
  27   0.0000      -0.012758        -0.3472
  28   0.0000      -0.010366        -0.2821
  29   0.0000      -0.000731        -0.0199

MULLIKEN ATOMIC CHARGES
-----------------------
   0 C :   -0.411195
   1 C :   -0.154897
   2 C :   -0.203882
   3 C :   -0.213113
   4 S :   -0.302447
   5 H :    0.126135
   6 H :    0.120144
   7 H :    0.129791
   8 H :    0.094794
   9 H :    0.109708
  10 H :    0.120063
  11 H :    0.113194
  12 H :    0.153985
  13 H :    0.153882
  14 H :    0.163838
Sum of atomic charges:   -0.0000000

LOEWDIN ATOMIC CHARGES
----------------------
   0 C :   -0.315088
   1 C :   -0.302421
   2 C :   -0.299212
   3 C :   -0.461151
   4 S :    0.182032
   5 H :    0.116968
   6 H :    0.119209
   7 H :    0.118262
   8 H :    0.126979
   9 H :    0.134183
  10 H :    0.136523
  11 H :    0.142547
  12 H :    0.131610
  13 H :    0.126454
  14 H :    0.043103

  Mayer bond orders larger than 0.100000
B(  0-C ,  1-C ) :   0.9686 B(  0-C ,  5-H ) :   0.9784 B(  0-C ,  6-H ) :   0.9766
B(  0-C ,  7-H ) :   0.9789 B(  1-C ,  2-C ) :   0.9779 B(  1-C ,  8-H ) :   0.9719
B(  1-C ,  9-H ) :   0.9756 B(  2-C ,  3-C ) :   0.9675 B(  2-C , 10-H ) :   0.9744
B(  2-C , 11-H ) :   0.9656 B(  3-C ,  4-S ) :   0.9975 B(  3-C , 12-H ) :   0.9593
B(  3-C , 13-H ) :   0.9686 B(  4-S , 14-H ) :   0.9663

FINAL SINGLE POINT ENERGY      -556.596670266533

DIPOLE MOMENT
-------------

Method             : SCF
Type of density    : Electron Density
Multiplicity       :   1
Irrep              :   0
Energy             :  -556.6072023923334200 Eh
Relativity type    :
Basis              : AO
                                X                 Y                 Z
Electronic contribution:     -7.529296376      -1.807885718       0.353490184
Nuclear contribution   :      7.990129123       2.595793827      -0.565203611
                        -----------------------------------------
Total Dipole Moment    :      0.460832747       0.787908108      -0.211713427
                        -----------------------------------------
Magnitude (a.u.)       :      0.937010450
Magnitude (Debye)      :      2.381691287

Rotational constants in cm-1:             0.221598             0.067930             0.062230
Rotational constants in MHz :          6643.340814          2036.495855          1865.597790

                             ****ORCA TERMINATED NORMALLY****
TOTAL RUN TIME: 0 days 0 hours 1 minutes 13 seconds 738 msec
