                         Program Version 6.0.0  -   RELEASE  -
|  1> ! pbe def2-sv(p) def2/J RI DEFGRID1 loosescf d4 GCP(DFT/SV(P)) printgap
|  2> %output
|  3>     printlevel normal
|  4> end
|  5> * xyz 0 1
|  6> C 2.0427508177 0.409452714 1.0059256768
|  7> C 1.2356226299 0.793884444 -0.2318992882
|  8> C 0.2383466594 -0.256276747 -0.7596490297
|  9> H 0.1152174826 -0.0498124503 -1.8308297876
| 10> C 0.79119921 -1.6773286485 -0.6477132685
| 11> C -1.1837583794 -0.1642473181 -0.161834106
| 12> C -1.2343439281 -0.1759863944 1.3638023511
| 13> C -1.9278293658 1.0639361682 -0.6885925632
| 14> H 2.6628859225 1.2527957665 1.3042211461
| 15> H 1.4033910461 0.1480368482 1.8422876978
| 16> H 2.6995041355 -0.4304465748 0.7973487983
| 17> H 1.9476283807 1.0108408655 -1.0326563076
| 18> H 0.6967908626 1.7205337479 -0.0286571333
| 19> H 1.7750064165 -1.7359612974 -1.1075155376
| 20> H 0.8744222949 -1.991035604 0.3885817934
| 21> H 0.1338422903 -2.3749112142 -1.1625694233
| 22> H -1.7233332158 -1.0502996325 -0.5190987961
| 23> H -0.8007994031 0.7329962283 1.7721055327
| 24> H -0.7069005871 -1.0355653576 1.7681565682
| 25> H -2.2696859192 -0.2317498277 1.6946115629
| 26> H -1.9452433507 1.067759808 -1.7761660831
| 27> H -1.4551589058 1.9829915293 -0.3504408235
| 28> H -2.9545796431 1.062070647 -0.3298303497
| 29> *
| 30>
| 31>                          ****END OF INPUT****

CARTESIAN COORDINATES (ANGSTROEM)
---------------------------------
  C      2.042751    0.409453    1.005926
  C      1.235623    0.793884   -0.231899
  C      0.238347   -0.256277   -0.759649
  H      0.115217   -0.049812   -1.830830
  C      0.791199   -1.677329   -0.647713
  C     -1.183758   -0.164247   -0.161834
  C     -1.234344   -0.175986    1.363802
  C     -1.927829    1.063936   -0.688593
  H      2.662886    1.252796    1.304221
  H      1.403391    0.148037    1.842288
  H      2.699504   -0.430447    0.797349
  H      1.947628    1.010841   -1.032656
  H      0.696791    1.720534   -0.028657
  H      1.775006   -1.735961   -1.107516
  H      0.874422   -1.991036    0.388582
  H      0.133842   -2.374911   -1.162569
  H     -1.723333   -1.050300   -0.519099
  H     -0.800799    0.732996    1.772106
  H     -0.706901   -1.035565    1.768157
  H     -2.269686   -0.231750    1.694612
  H     -1.945243    1.067760   -1.776166
  H     -1.455159    1.982992   -0.350441
  H     -2.954580    1.062071   -0.329830

 Total Charge           Charge          ....    0
 Multiplicity           Mult            ....    1
 Number of Electrons    NEL             ....   58
 Basis Dimension        Dim             ....  130

ORBITAL ENERGIES
----------------

  NO   OCC          E(Eh)            E(eV)
   0   2.0000      -9.888325      -269.0750
   1   2.0000      -9.886475      -269.0247
   2   2.0000      -9.877889      -268.7910
   3   2.0000      -9.868785      -268.5433
   4   2.0000      -9.867870      -268.5184
   5   2.0000      -9.867749      -268.5151
   6   2.0000      -9.867517      -268.5088
   7   2.0000      -0.739858       -20.1326
   8   2.0000      -0.681356       -18.5406
   9   2.0000      -0.640263       -17.4224
  10   2.0000      -0.608036       -16.5455
  11   2.0000      -0.570331       -15.5195
  12   2.0000      -0.526169       -14.3178
  13   2.0000      -0.464952       -12.6520
  14   2.0000      -0.426739       -11.6121
  15   2.0000      -0.406419       -11.0592
  16   2.0000      -0.395353       -10.7581
  17   2.0000      -0.368277       -10.0213
  18   2.0000      -0.363532        -9.8922
  19   2.0000      -0.341959        -9.3052
  20   2.0000      -0.337755        -9.1908
  21   2.0000      -0.331042        -9.0081
  22   2.0000      -0.328745        -8.9456
  23   2.0000      -0.305038        -8.3005
  24   2.0000      -0.296674        -8.0729
  25   2.0000      -0.295918        -8.0523
  26   2.0000      -0.265992        -7.2380
  27   2.0000      -0.263534        -7.1711
  28   2.0000      -0.255851        -6.9621
  29   0.0000       0.028474         0.7748
  30   0.0000       0.060470         1.6455
  31   0.0000       0.063806         1.7363
  32   0.0000       0.066587         1.8119
  33   0.0000       0.093612         2.5473

MULLIKEN ATOMIC CHARGES
-----------------------
   0 C :   -0.288242
   1 C :   -0.167043
   2 C :   -0.125571
   3 H :    0.059403
   4 C :   -0.244459
   5 C :   -0.160933
   6 C :   -0.254881
   7 C :   -0.241167
   8 H :    0.099485
   9 H :    0.103998
  10 H :    0.101500
  11 H :    0.079500
  12 H :    0.084794
  13 H :    0.098497
  14 H :    0.104839
  15 H :    0.094369
  16 H :    0.063189
  17 H :    0.103827
  18 H :    0.105407
  19 H :    0.095505
  20 H :    0.095275
  21 H :    0.097881
  22 H :    0.094826
Sum of atomic charges:   -0.0000000

LOEWDIN ATOMIC CHARGES
----------------------
   0 C :   -0.344660
   1 C :   -0.227848
   2 C :   -0.144714
   3 H :    0.113345
   4 C :   -0.330531
   5 C :   -0.148680
   6 C :   -0.331167
   7 C :   -0.329852
   8 H :    0.119649
   9 H :    0.116298
  10 H :    0.116973
  11 H :    0.117057
  12 H :    0.113002
  13 H :    0.117402
  14 H :    0.116390
  15 H :    0.116722
  16 H :    0.112445
  17 H :    0.117020
  18 H :    0.115739
  19 H :    0.118347
  20 H :    0.115496
  21 H :    0.114694
  22 H :    0.116873

  Mayer bond orders larger than 0.100000
B(  0-C ,  1-C ) :   1.1669 B(  0-C ,  8-H ) :   0.9489 B(  0-C ,  9-H ) :   0.9468
B(  0-C , 10-H ) :   0.9417 B(  1-C ,  2-C ) :   1.0689 B(  1-C , 11-H ) :   0.9183
B(  1-C , 12-H ) :   0.9236 B(  2-C ,  3-H ) :   0.8965 B(  2-C ,  4-C ) :   1.1268
B(  2-C ,  5-C ) :   1.0470 B(  4-C , 13-H ) :   0.9482 B(  4-C , 14-H ) :   0.9335
B(  4-C , 15-H ) :   0.9440 B(  5-C ,  6-C ) :   1.1168 B(  5-C ,  7-C ) :   1.1133
B(  5-C , 16-H ) :   0.8992 B(  6-C , 17-H ) :   0.9380 B(  6-C , 18-H ) :   0.9426
B(  6-C , 19-H ) :   0.9444 B(  7-C , 20-H ) :   0.9481 B(  7-C , 21-H ) :   0.9420
B(  7-C , 22-H ) :   0.9492

Dispersion correction           -0.019691862
FINAL SINGLE POINT ENERGY      -275.657266044036

DIPOLE MOMENT
-------------

Method             : SCF
Type of density    : Electron Density
Multiplicity       :   1
Irrep              :   0
Energy             :  -275.7344252473490087 Eh
Relativity type    :
Basis              : AO
                                X                 Y                 Z
Electronic contribution:     -0.443410810      -0.083054346      -1.372463687
Nuclear contribution   :      0.424975692       0.073405018       1.341147610
                        -----------------------------------------
Total Dipole Moment    :     -0.018435118      -0.009649328      -0.031316077
                        -----------------------------------------
Magnitude (a.u.)       :      0.037598668
Magnitude (Debye)      :      0.095568218

Rotational constants in cm-1:             0.105022             0.060281             0.056110
Rotational constants in MHz :          3148.469444          1807.192267          1682.127476

                             ****ORCA TERMINATED NORMALLY****
TOTAL RUN TIME: 0 days 0 hours 0 minutes 9 seconds 93 msec
