                         Program Version 6.0.0  -   RELEASE  -
|  1> ! r2scan-3c def2/J RI DEFGRID2 scfconv6 printgap
|  2> %output
|  3>     printlevel normal
|  4> end
|  5> * xyz 0 1
|  6> C 4.1951448189 -0.1266865992 -0.1171952064
|  7> N 2.7712132672 -0.3554186404 -0.2356070394
|  8> C 2.4098005912 -1.5831853666 -0.9059243453
|  9> C 1.903245589 0.5660177571 0.2059027161
| 10> O 2.2742760302 1.6522453024 0.6679130533
| 11> C 0.4475818242 0.2427358858 0.1401215455
| 12> C -0.4131262575 1.1221660107 -0.5018501687
| 13> C -1.778251891 0.8973843449 -0.5253234492
| 14> C -2.3069071539 -0.2122827937 0.1265898027
| 15> C -1.4462225534 -1.0844784619 0.7981001144
| 16> C -0.0872492182 -0.8608944447 0.8031129662
| 17> O -3.6278296702 -0.5317086807 0.1755780592
| 18> C -4.5596650639 0.3155405875 -0.4717692614
| 19> H 4.6487565376 -0.0410225967 -1.1056514027
| 20> H 4.6566096096 -0.9548987046 0.4208704134
| 21> H 4.3500393282 0.7999516002 0.4316325759
| 22> H 1.355858456 -1.5804678476 -1.1670096931
| 23> H 2.6221627663 -2.4417840855 -0.2658759884
| 24> H 3.0027907079 -1.6739960958 -1.816892967
| 25> H -0.0032034166 1.9926119811 -0.9922220673
| 26> H -2.4148359244 1.5952253245 -1.043906418
| 27> H -1.8746861827 -1.9303339956 1.3111090102
| 28> H 0.5628637077 -1.5350310521 1.3386120294
| 29> H -5.5308393678 -0.1400513168 -0.2932187691
| 30> H -4.3677336174 0.364328036 -1.5464598354
| 31> H -4.5409930816 1.3213256051 -0.0447943755
| 32> *
| 33>
| 34>                          ****END OF INPUT****

CARTESIAN COORDINATES (ANGSTROEM)
---------------------------------
  C      4.195145   -0.126687   -0.117195
  N      2.771213   -0.355419   -0.235607
  C      2.409801   -1.583185   -0.905924
  C      1.903246    0.566018    0.205903
  O      2.274276    1.652245    0.667913
  C      0.447582    0.242736    0.140122
  C     -0.413126    1.122166   -0.501850
  C     -1.778252    0.897384   -0.525323
  C     -2.306907   -0.212283    0.126590
  C     -1.446223   -1.084478    0.798100
  C     -0.087249   -0.860894    0.803113
  O     -3.627830   -0.531709    0.175578
  C     -4.559665    0.315541   -0.471769
  H      4.648757   -0.041023   -1.105651
  H      4.656610   -0.954899    0.420870
  H      4.350039    0.799952    0.431633
  H      1.355858   -1.580468   -1.167010
  H      2.622163   -2.441784   -0.265876
  H      3.002791   -1.673996   -1.816893
  H     -0.003203    1.992612   -0.992222
  H     -2.414836    1.595225   -1.043906
  H     -1.874686   -1.930334    1.311109
  H      0.562864   -1.535031    1.338612
  H     -5.530839   -0.140051   -0.293219
  H     -4.367734    0.364328   -1.546460
  H     -4.540993    1.321326   -0.044794

 Total Charge           Charge          ....    0
 Multiplicity           Mult            ....    1
 Number of Electrons    NEL             ....   96
 Basis Dimension        Dim             ....  327

ORBITAL ENERGIES
----------------

  NO   OCC          E(Eh)            E(eV)
   0   2.0000     -18.991800      -516.7931
   1   2.0000     -18.898090      -514.2432
   2   2.0000     -14.193983      -386.2379
   3   2.0000     -10.118576      -275.3405
   4   2.0000     -10.101190      -274.8674
   5   2.0000     -10.091504      -274.6038
   6   2.0000     -10.067349      -273.9465
   7   2.0000     -10.057089      -273.6673
   8   2.0000     -10.043516      -273.2980
   9   2.0000     -10.041343      -273.2388
  10   2.0000     -10.040045      -273.2035
  11   2.0000     -10.038513      -273.1618
  12   2.0000     -10.036042      -273.0946
  13   2.0000      -1.039916       -28.2976
  14   2.0000      -0.988443       -26.8969
  15   2.0000      -0.902658       -24.5626
  16   2.0000      -0.830594       -22.6016
  17   2.0000      -0.740719       -20.1560
  18   2.0000      -0.726426       -19.7671
  19   2.0000      -0.694721       -18.9043
  20   2.0000      -0.683510       -18.5992
  21   2.0000      -0.659374       -17.9425
  22   2.0000      -0.588163       -16.0047
  23   2.0000      -0.576008       -15.6740
  24   2.0000      -0.524517       -14.2728
  25   2.0000      -0.507861       -13.8196
  26   2.0000      -0.485911       -13.2223
  27   2.0000      -0.463255       -12.6058
  28   2.0000      -0.447049       -12.1648
  29   2.0000      -0.443635       -12.0719
  30   2.0000      -0.437781       -11.9126
  31   2.0000      -0.422195       -11.4885
  32   2.0000      -0.401775       -10.9328
  33   2.0000      -0.394902       -10.7458
  34   2.0000      -0.391735       -10.6597
  35   2.0000      -0.376902       -10.2560
  36   2.0000      -0.369841       -10.0639
  37   2.0000      -0.363387        -9.8883
  38   2.0000      -0.351391        -9.5618
  39   2.0000      -0.343535        -9.3481
  40   2.0000      -0.339631        -9.2418
  41   2.0000      -0.325250        -8.8505
  42   2.0000      -0.300333        -8.1725
  43   2.0000      -0.297932        -8.1071
  44   2.0000      -0.244053        -6.6410
  45   2.0000      -0.220474        -5.9994
  46   2.0000      -0.212992        -5.7958
  47   2.0000      -0.196430        -5.3451
  48   0.0000      -0.038235        -1.0404
  49   0.0000      -0.036098        -0.9823
  50   0.0000       0.020485         0.5574
  51   0.0000       0.057464         1.5637
  52   0.0000       0.070089         1.9072

MULLIKEN ATOMIC CHARGES
-----------------------
   0 C :   -0.412739
   1 N :    0.079951
   2 C :   -0.405712
   3 C :    0.227058
   4 O :   -0.452456
   5 C :    0.039138
   6 C :   -0.188864
   7 C :   -0.285503
   8 C :    0.363077
   9 C :   -0.312451
  10 C :   -0.174381
  11 O :   -0.186338
  12 C :   -0.332104
  13 H :    0.146184
  14 H :    0.138373
  15 H :    0.203367
  16 H :    0.175054
  17 H :    0.160596
  18 H :    0.142031
  19 H :    0.157993
  20 H :    0.148016
  21 H :    0.156724
  22 H :    0.148264
  23 H :    0.155850
  24 H :    0.153152
  25 H :    0.155717
Sum of atomic charges:   -0.0000000

LOEWDIN ATOMIC CHARGES
----------------------
   0 C :   -0.111080
   1 N :   -0.835780
   2 C :   -0.106838
   3 C :    0.348931
   4 O :   -0.484289
   5 C :   -0.054694
   6 C :   -0.108334
   7 C :   -0.167619
   8 C :    0.193834
   9 C :   -0.129218
  10 C :   -0.134549
  11 O :   -0.680509
  12 C :   -0.053797
  13 H :    0.172441
  14 H :    0.172687
  15 H :    0.210339
  16 H :    0.196318
  17 H :    0.169540
  18 H :    0.174922
  19 H :    0.181908
  20 H :    0.176235
  21 H :    0.181645
  22 H :    0.175486
  23 H :    0.180973
  24 H :    0.165164
  25 H :    0.166283

  Mayer bond orders larger than 0.100000
B(  0-C ,  1-N ) :   0.9258 B(  0-C , 13-H ) :   0.9580 B(  0-C , 14-H ) :   0.9513
B(  0-C , 15-H ) :   0.9553 B(  1-N ,  2-C ) :   0.9154 B(  1-N ,  3-C ) :   1.2363
B(  2-C , 16-H ) :   0.9559 B(  2-C , 17-H ) :   0.9596 B(  2-C , 18-H ) :   0.9527
B(  3-C ,  4-O ) :   1.8745 B(  3-C ,  5-C ) :   0.8800 B(  4-O ,  5-C ) :  -0.1121
B(  5-C ,  6-C ) :   1.4496 B(  5-C , 10-C ) :   1.3762 B(  6-C ,  7-C ) :   1.3648
B(  6-C , 19-H ) :   0.9544 B(  7-C ,  8-C ) :   1.3531 B(  7-C , 20-H ) :   0.9272
B(  8-C ,  9-C ) :   1.3878 B(  8-C , 11-O ) :   1.0515 B(  9-C , 10-C ) :   1.3830
B(  9-C , 21-H ) :   0.9509 B( 10-C , 22-H ) :   0.9426 B( 11-O , 12-C ) :   0.8537
B( 12-C , 23-H ) :   0.9678 B( 12-C , 24-H ) :   0.9633 B( 12-C , 25-H ) :   0.9627

Dispersion correction           -0.009578456
FINAL SINGLE POINT ENERGY      -593.941200575254

DIPOLE MOMENT
-------------

Method             : SCF
Type of density    : Electron Density
Multiplicity       :   1
Irrep              :   0
Energy             :  -593.9502372633984351 Eh
Relativity type    :
Basis              : AO
                                X                 Y                 Z
Electronic contribution:     -2.802354931       2.916744161       3.554131004
Nuclear contribution   :      2.309415232      -3.948310002      -4.467435935
                        -----------------------------------------
Total Dipole Moment    :     -0.492939700      -1.031565841      -0.913304931
                        -----------------------------------------
Magnitude (a.u.)       :      1.463298852
Magnitude (Debye)      :      3.719410094

Rotational constants in cm-1:             0.076559             0.012711             0.011789
Rotational constants in MHz :          2295.168977           381.053306           353.435183

                             ****ORCA TERMINATED NORMALLY****
TOTAL RUN TIME: 0 days 0 hours 1 minutes 0 seconds 212 msec
