                         Program Version 6.0.0  -   RELEASE  -
|  1> ! r2scan-3c def2/J RI DEFGRID2 scfconv6 printgap
|  2> %output
|  3>     printlevel normal
|  4> end
|  5> %cpcm
|  6>     smd true
|  7>     smdsolvent "water"
|  8> end
|  9> * xyz 0 1
| 10> C 4.1951448189 -0.1266865992 -0.1171952064
| 11> N 2.7712132672 -0.3554186404 -0.2356070394
| 12> C 2.4098005912 -1.5831853666 -0.9059243453
| 13> C 1.903245589 0.5660177571 0.2059027161
| 14> O 2.2742760302 1.6522453024 0.6679130533
| 15> C 0.4475818242 0.2427358858 0.1401215455
| 16> C -0.4131262575 1.1221660107 -0.5018501687
| 17> C -1.778251891 0.8973843449 -0.5253234492
| 18> C -2.3069071539 -0.2122827937 0.1265898027
| 19> C -1.4462225534 -1.0844784619 0.7981001144
| 20> C -0.0872492182 -0.8608944447 0.8031129662
| 21> O -3.6278296702 -0.5317086807 0.1755780592
| 22> C -4.5596650639 0.3155405875 -0.4717692614
| 23> H 4.6487565376 -0.0410225967 -1.1056514027
| 24> H 4.6566096096 -0.9548987046 0.4208704134
| 25> H 4.3500393282 0.7999516002 0.4316325759
| 26> H 1.355858456 -1.5804678476 -1.1670096931
| 27> H 2.6221627663 -2.4417840855 -0.2658759884
| 28> H 3.0027907079 -1.6739960958 -1.816892967
| 29> H -0.0032034166 1.9926119811 -0.9922220673
| 30> H -2.4148359244 1.5952253245 -1.043906418
| 31> H -1.8746861827 -1.9303339956 1.3111090102
| 32> H 0.5628637077 -1.5350310521 1.3386120294
| 33> H -5.5308393678 -0.1400513168 -0.2932187691
| 34> H -4.3677336174 0.364328036 -1.5464598354
| 35> H -4.5409930816 1.3213256051 -0.0447943755
| 36> *
| 37>
| 38>                          ****END OF INPUT****

CARTESIAN COORDINATES (ANGSTROEM)
---------------------------------
  C      4.195145   -0.126687   -0.117195
  N      2.771213   -0.355419   -0.235607
  C      2.409801   -1.583185   -0.905924
  C      1.903246    0.566018    0.205903
  O      2.274276    1.652245    0.667913
  C      0.447582    0.242736    0.140122
  C     -0.413126    1.122166   -0.501850
  C     -1.778252    0.897384   -0.525323
  C     -2.306907   -0.212283    0.126590
  C     -1.446223   -1.084478    0.798100
  C     -0.087249   -0.860894    0.803113
  O     -3.627830   -0.531709    0.175578
  C     -4.559665    0.315541   -0.471769
  H      4.648757   -0.041023   -1.105651
  H      4.656610   -0.954899    0.420870
  H      4.350039    0.799952    0.431633
  H      1.355858   -1.580468   -1.167010
  H      2.622163   -2.441784   -0.265876
  H      3.002791   -1.673996   -1.816893
  H     -0.003203    1.992612   -0.992222
  H     -2.414836    1.595225   -1.043906
  H     -1.874686   -1.930334    1.311109
  H      0.562864   -1.535031    1.338612
  H     -5.530839   -0.140051   -0.293219
  H     -4.367734    0.364328   -1.546460
  H     -4.540993    1.321326   -0.044794

 Total Charge           Charge          ....    0
 Multiplicity           Mult            ....    1
 Number of Electrons    NEL             ....   96
 Basis Dimension        Dim             ....  327

ORBITAL ENERGIES
----------------

  NO   OCC          E(Eh)            E(eV)
   0   2.0000     -18.991421      -516.7828
   1   2.0000     -18.920325      -514.8482
   2   2.0000     -14.199146      -386.3784
   3   2.0000     -10.132614      -275.7224
   4   2.0000     -10.101792      -274.8837
   5   2.0000     -10.074018      -274.1280
   6   2.0000     -10.053315      -273.5646
   7   2.0000     -10.049996      -273.4743
   8   2.0000     -10.044302      -273.3193
   9   2.0000     -10.043001      -273.2839
  10   2.0000     -10.042892      -273.2810
  11   2.0000     -10.036672      -273.1117
  12   2.0000     -10.035518      -273.0803
  13   2.0000      -1.038691       -28.2642
  14   2.0000      -1.007370       -27.4119
  15   2.0000      -0.908421       -24.7194
  16   2.0000      -0.832632       -22.6571
  17   2.0000      -0.741074       -20.1656
  18   2.0000      -0.726168       -19.7600
  19   2.0000      -0.687723       -18.7139
  20   2.0000      -0.677874       -18.4459
  21   2.0000      -0.654981       -17.8229
  22   2.0000      -0.587505       -15.9868
  23   2.0000      -0.573565       -15.6075
  24   2.0000      -0.522474       -14.2173
  25   2.0000      -0.502630       -13.6773
  26   2.0000      -0.484839       -13.1931
  27   2.0000      -0.462368       -12.5817
  28   2.0000      -0.445109       -12.1120
  29   2.0000      -0.436524       -11.8784
  30   2.0000      -0.434512       -11.8237
  31   2.0000      -0.417553       -11.3622
  32   2.0000      -0.404325       -11.0023
  33   2.0000      -0.395007       -10.7487
  34   2.0000      -0.385805       -10.4983
  35   2.0000      -0.370157       -10.0725
  36   2.0000      -0.364433        -9.9167
  37   2.0000      -0.362237        -9.8570
  38   2.0000      -0.350770        -9.5449
  39   2.0000      -0.347895        -9.4667
  40   2.0000      -0.342653        -9.3241
  41   2.0000      -0.326012        -8.8712
  42   2.0000      -0.298542        -8.1237
  43   2.0000      -0.298179        -8.1139
  44   2.0000      -0.246524        -6.7083
  45   2.0000      -0.238334        -6.4854
  46   2.0000      -0.221127        -6.0172
  47   2.0000      -0.206121        -5.6088
  48   0.0000      -0.043369        -1.1801
  49   0.0000      -0.038626        -1.0511
  50   0.0000       0.011018         0.2998
  51   0.0000       0.065585         1.7847
  52   0.0000       0.075989         2.0678

MULLIKEN ATOMIC CHARGES
-----------------------
   0 C :   -0.433388
   1 N :    0.090405
   2 C :   -0.418107
   3 C :    0.265425
   4 O :   -0.570250
   5 C :    0.004845
   6 C :   -0.227353
   7 C :   -0.301365
   8 C :    0.358232
   9 C :   -0.353823
  10 C :   -0.184503
  11 O :   -0.224029
  12 C :   -0.341043
  13 H :    0.177211
  14 H :    0.170379
  15 H :    0.187772
  16 H :    0.180500
  17 H :    0.185375
  18 H :    0.168467
  19 H :    0.184038
  20 H :    0.187115
  21 H :    0.185450
  22 H :    0.187128
  23 H :    0.174459
  24 H :    0.173538
  25 H :    0.173521
Sum of atomic charges:   -0.0000000

LOEWDIN ATOMIC CHARGES
----------------------
   0 C :   -0.108169
   1 N :   -0.816782
   2 C :   -0.098333
   3 C :    0.348008
   4 O :   -0.578611
   5 C :   -0.069819
   6 C :   -0.122762
   7 C :   -0.164449
   8 C :    0.187174
   9 C :   -0.136780
  10 C :   -0.131037
  11 O :   -0.701925
  12 C :   -0.049480
  13 H :    0.185445
  14 H :    0.186566
  15 H :    0.202810
  16 H :    0.198547
  17 H :    0.182576
  18 H :    0.187087
  19 H :    0.188549
  20 H :    0.191680
  21 H :    0.191261
  22 H :    0.189333
  23 H :    0.188063
  24 H :    0.175506
  25 H :    0.175543

  Mayer bond orders larger than 0.100000
B(  0-C ,  1-N ) :   0.9138 B(  0-C , 13-H ) :   0.9480 B(  0-C , 14-H ) :   0.9433
B(  0-C , 15-H ) :   0.9577 B(  1-N ,  2-C ) :   0.9144 B(  1-N ,  3-C ) :   1.3041
B(  2-C , 16-H ) :   0.9507 B(  2-C , 17-H ) :   0.9482 B(  2-C , 18-H ) :   0.9447
B(  3-C ,  4-O ) :   1.7897 B(  3-C ,  5-C ) :   0.8889 B(  4-O ,  5-C ) :  -0.1167
B(  5-C ,  6-C ) :   1.3810 B(  5-C , 10-C ) :   1.3619 B(  6-C ,  7-C ) :   1.3666
B(  6-C , 19-H ) :   0.9613 B(  7-C ,  8-C ) :   1.3384 B(  7-C , 20-H ) :   0.9335
B(  8-C ,  9-C ) :   1.3322 B(  8-C , 11-O ) :   1.0384 B(  9-C , 10-C ) :   1.3884
B(  9-C , 21-H ) :   0.9597 B( 10-C , 22-H ) :   0.9444 B( 11-O , 12-C ) :   0.8457
B( 12-C , 23-H ) :   0.9599 B( 12-C , 24-H ) :   0.9553 B( 12-C , 25-H ) :   0.9551

Dispersion correction           -0.009578456
FINAL SINGLE POINT ENERGY      -593.955829473937

DIPOLE MOMENT
-------------

Method             : SCF
Type of density    : Electron Density
Multiplicity       :   1
Irrep              :   0
Energy             :  -593.9648661620814210 Eh
Relativity type    :
Basis              : AO
                                X                 Y                 Z
Electronic contribution:     -2.887197365       2.281163669       3.087244443
Nuclear contribution   :      2.309415232      -3.948310002      -4.467435935
                        -----------------------------------------
Total Dipole Moment    :     -0.577782133      -1.667146333      -1.380191492
                        -----------------------------------------
Magnitude (a.u.)       :      2.240120007
Magnitude (Debye)      :      5.693932553

Rotational constants in cm-1:             0.076559             0.012711             0.011789
Rotational constants in MHz :          2295.168977           381.053306           353.435183

                             ****ORCA TERMINATED NORMALLY****
TOTAL RUN TIME: 0 days 0 hours 1 minutes 4 seconds 474 msec
