                         Program Version 6.0.0  -   RELEASE  -
|  1> ! pbe def2-sv(p) def2/J RI DEFGRID1 loosescf d4 GCP(DFT/SV(P)) printgap
|  2> %output
|  3>     printlevel normal
|  4> end
|  5> * xyz 0 1
|  6> C 1.8085070268 -0.9864641156 -0.0243149667
|  7> C 1.8036905059 0.5239128228 -0.2275277379
|  8> C 0.5488845265 1.2138826334 0.3100610229
|  9> C -0.7302254361 0.866220694 -0.4407107136
| 10> S -1.4902010321 -0.6882537635 0.1956894987
| 11> H 1.6540199048 -1.2304596492 1.0249896273
| 12> H 2.7615910486 -1.4052023492 -0.3386208701
| 13> H 1.021408871 -1.4641653825 -0.6017725968
| 14> H 1.9058988404 0.7472342746 -1.2921476989
| 15> H 2.6687603186 0.951313972 0.284450109
| 16> H 0.6937982339 2.2943409406 0.2349292216
| 17> H 0.4211834457 0.9698898599 1.3677713569
| 18> H -1.4771692406 1.6452154876 -0.2960607719
| 19> H -0.5374989237 0.7287833482 -1.5040579399
| 20> H -2.5879319522 -0.617034282 -0.5469663792
| 21> *
| 22>
| 23>                          ****END OF INPUT****

CARTESIAN COORDINATES (ANGSTROEM)
---------------------------------
  C      1.808507   -0.986464   -0.024315
  C      1.803691    0.523913   -0.227528
  C      0.548885    1.213883    0.310061
  C     -0.730225    0.866221   -0.440711
  S     -1.490201   -0.688254    0.195689
  H      1.654020   -1.230460    1.024990
  H      2.761591   -1.405202   -0.338621
  H      1.021409   -1.464165   -0.601773
  H      1.905899    0.747234   -1.292148
  H      2.668760    0.951314    0.284450
  H      0.693798    2.294341    0.234929
  H      0.421183    0.969890    1.367771
  H     -1.477169    1.645215   -0.296061
  H     -0.537499    0.728783   -1.504058
  H     -2.587932   -0.617034   -0.546966

 Total Charge           Charge          ....    0
 Multiplicity           Mult            ....    1
 Number of Electrons    NEL             ....   50
 Basis Dimension        Dim             ....   94

ORBITAL ENERGIES
----------------

  NO   OCC          E(Eh)            E(eV)
   0   2.0000     -88.011838     -2394.9239
   1   2.0000      -9.915891      -269.8251
   2   2.0000      -9.892225      -269.1811
   3   2.0000      -9.884519      -268.9714
   4   2.0000      -9.865866      -268.4639
   5   2.0000      -7.658068      -208.3866
   6   2.0000      -5.686507      -154.7377
   7   2.0000      -5.682673      -154.6334
   8   2.0000      -5.674115      -154.4005
   9   2.0000      -0.736787       -20.0490
  10   2.0000      -0.681446       -18.5431
  11   2.0000      -0.623577       -16.9684
  12   2.0000      -0.553608       -15.0644
  13   2.0000      -0.506149       -13.7730
  14   2.0000      -0.424880       -11.5616
  15   2.0000      -0.414158       -11.2698
  16   2.0000      -0.388624       -10.5750
  17   2.0000      -0.357398        -9.7253
  18   2.0000      -0.343052        -9.3349
  19   2.0000      -0.335841        -9.1387
  20   2.0000      -0.300276        -8.1709
  21   2.0000      -0.289419        -7.8755
  22   2.0000      -0.285671        -7.7735
  23   2.0000      -0.275251        -7.4899
  24   2.0000      -0.189843        -5.1659
  25   0.0000       0.001108         0.0301
  26   0.0000       0.039651         1.0790
  27   0.0000       0.049690         1.3521
  28   0.0000       0.067614         1.8399
  29   0.0000       0.078061         2.1241

MULLIKEN ATOMIC CHARGES
-----------------------
   0 C :   -0.289770
   1 C :   -0.185377
   2 C :   -0.161532
   3 C :   -0.263360
   4 S :   -0.188508
   5 H :    0.099028
   6 H :    0.100300
   7 H :    0.120188
   8 H :    0.085190
   9 H :    0.087958
  10 H :    0.096314
  11 H :    0.101086
  12 H :    0.128384
  13 H :    0.127308
  14 H :    0.142791
Sum of atomic charges:   -0.0000000

LOEWDIN ATOMIC CHARGES
----------------------
   0 C :   -0.353309
   1 C :   -0.233022
   2 C :   -0.243421
   3 C :   -0.325732
   4 S :    0.015979
   5 H :    0.117048
   6 H :    0.118045
   7 H :    0.115466
   8 H :    0.113175
   9 H :    0.116051
  10 H :    0.124048
  11 H :    0.118818
  12 H :    0.122073
  13 H :    0.118718
  14 H :    0.076062

  Mayer bond orders larger than 0.100000
B(  0-C ,  1-C ) :   1.1590 B(  0-C ,  5-H ) :   0.9538 B(  0-C ,  6-H ) :   0.9490
B(  0-C ,  7-H ) :   0.9401 B(  1-C ,  2-C ) :   1.1308 B(  1-C ,  8-H ) :   0.9260
B(  1-C ,  9-H ) :   0.9270 B(  2-C ,  3-C ) :   1.0997 B(  2-C , 10-H ) :   0.9208
B(  2-C , 11-H ) :   0.9205 B(  3-C ,  4-S ) :   1.0493 B(  3-C , 12-H ) :   0.9304
B(  3-C , 13-H ) :   0.9246 B(  4-S , 14-H ) :   0.9080

Dispersion correction           -0.011693671
FINAL SINGLE POINT ENERGY      -555.908955212938

DIPOLE MOMENT
-------------

Method             : SCF
Type of density    : Electron Density
Multiplicity       :   1
Irrep              :   0
Energy             :  -555.9604074765834412 Eh
Relativity type    :
Basis              : AO
                                X                 Y                 Z
Electronic contribution:     -6.180294592      -1.975799227       1.212068384
Nuclear contribution   :      6.162986034       2.477465934      -1.569943171
                        -----------------------------------------
Total Dipole Moment    :     -0.017308558       0.501666708      -0.357874787
                        -----------------------------------------
Magnitude (a.u.)       :      0.616476630
Magnitude (Debye)      :      1.566959065

Rotational constants in cm-1:             0.202156             0.080954             0.063277
Rotational constants in MHz :          6060.470576          2426.935951          1897.004228

                             ****ORCA TERMINATED NORMALLY****
TOTAL RUN TIME: 0 days 0 hours 0 minutes 5 seconds 647 msec
