                         Program Version 6.0.0  -   RELEASE  -
|  1> ! wb97x-v def2-tzvp def2/J RIJCOSX DEFGRID2 scfconv7 GCP(DFT/TZ) printgap
|  2> %output
|  3>     printlevel normal
|  4> end
|  5> * xyz 0 1
|  6> C 2.505118980487559 -0.4200525730580023 -0.6164633543774052
|  7> C 1.6228491621060663 -0.4615484498001106 0.6289111580271912
|  8> C 0.6577686806059343 0.7200096033983122 0.7345193332985309
|  9> C -0.312955415430244 0.88421623367084 -0.4283848786905845
| 10> S -1.449713251869977 -0.5566119834859125 -0.6899022744706634
| 11> H 3.2588507892211713 -1.2131538125996773 -0.5884614094817977
| 12> H 3.030414317651639 0.5391046280716856 -0.6943305659869236
| 13> H 1.9217056438015954 -0.5561470199606888 -1.5331639070427014
| 14> H 2.256684926269211 -0.46318967485274554 1.5236127351757267
| 15> H 1.055092664116293 -1.3993700023755924 0.6468599751938336
| 16> H 1.2382322445697111 1.652093803560082 0.7945497448270938
| 17> H 0.08607840895452555 0.6469704327181373 1.6681138724905495
| 18> H -0.9261767663632264 1.77867545569055 -0.2922642484613336
| 19> H 0.21637388532311683 0.9931047701928493 -1.380037712681921
| 20> H -2.019115855195203 -0.5161977067306248 0.5300479901047879
| 21> *
| 22>
| 23>                          ****END OF INPUT****

CARTESIAN COORDINATES (ANGSTROEM)
---------------------------------
  C      2.505119   -0.420053   -0.616463
  C      1.622849   -0.461548    0.628911
  C      0.657769    0.720010    0.734519
  C     -0.312955    0.884216   -0.428385
  S     -1.449713   -0.556612   -0.689902
  H      3.258851   -1.213154   -0.588461
  H      3.030414    0.539105   -0.694331
  H      1.921706   -0.556147   -1.533164
  H      2.256685   -0.463190    1.523613
  H      1.055093   -1.399370    0.646860
  H      1.238232    1.652094    0.794550
  H      0.086078    0.646970    1.668114
  H     -0.926177    1.778675   -0.292264
  H      0.216374    0.993105   -1.380038
  H     -2.019116   -0.516198    0.530048

 Total Charge           Charge          ....    0
 Multiplicity           Mult            ....    1
 Number of Electrons    NEL             ....   50
 Basis Dimension        Dim             ....  221

ORBITAL ENERGIES
----------------

  NO   OCC          E(Eh)            E(eV)
   0   2.0000     -94.118480     -2561.0940
   1   2.0000     -12.080513      -328.7275
   2   2.0000     -12.050810      -327.9192
   3   2.0000     -12.041248      -327.6590
   4   2.0000     -12.034845      -327.4848
   5   2.0000      -9.629746      -262.0387
   6   2.0000      -7.607441      -207.0090
   7   2.0000      -7.606250      -206.9766
   8   2.0000      -7.605720      -206.9622
   9   2.0000      -1.317832       -35.8600
  10   2.0000      -1.257814       -34.2269
  11   2.0000      -1.190756       -32.4021
  12   2.0000      -1.115870       -30.3644
  13   2.0000      -1.038533       -28.2599
  14   2.0000      -0.899377       -24.4733
  15   2.0000      -0.892797       -24.2943
  16   2.0000      -0.863789       -23.5049
  17   2.0000      -0.834606       -22.7108
  18   2.0000      -0.833557       -22.6822
  19   2.0000      -0.812230       -22.1019
  20   2.0000      -0.776197       -21.1214
  21   2.0000      -0.769995       -20.9526
  22   2.0000      -0.762946       -20.7608
  23   2.0000      -0.738514       -20.0960
  24   2.0000      -0.644283       -17.5318
  25   0.0000      -0.197770        -5.3816
  26   0.0000      -0.105688        -2.8759
  27   0.0000      -0.025961        -0.7064
  28   0.0000      -0.021323        -0.5802
  29   0.0000      -0.011808        -0.3213

MULLIKEN ATOMIC CHARGES
-----------------------
   0 C :   -0.371953
   1 C :   -0.129356
   2 C :   -0.193574
   3 C :   -0.206469
   4 S :   -0.224098
   5 H :    0.116854
   6 H :    0.104343
   7 H :    0.114959
   8 H :    0.095522
   9 H :    0.102118
  10 H :    0.096488
  11 H :    0.102338
  12 H :    0.133374
  13 H :    0.129663
  14 H :    0.129792
Sum of atomic charges:   -0.0000000

LOEWDIN ATOMIC CHARGES
----------------------
   0 C :   -0.308610
   1 C :   -0.298861
   2 C :   -0.301363
   3 C :   -0.466592
   4 S :    0.216953
   5 H :    0.117601
   6 H :    0.115776
   7 H :    0.115148
   8 H :    0.131602
   9 H :    0.131218
  10 H :    0.137314
  11 H :    0.132301
  12 H :    0.120688
  13 H :    0.125608
  14 H :    0.031217

  Mayer bond orders larger than 0.100000
B(  0-C ,  1-C ) :   0.9687 B(  0-C ,  5-H ) :   0.9815 B(  0-C ,  6-H ) :   0.9788
B(  0-C ,  7-H ) :   0.9818 B(  1-C ,  2-C ) :   0.9787 B(  1-C ,  8-H ) :   0.9757
B(  1-C ,  9-H ) :   0.9686 B(  2-C ,  3-C ) :   0.9658 B(  2-C , 10-H ) :   0.9684
B(  2-C , 11-H ) :   0.9766 B(  3-C ,  4-S ) :   1.0209 B(  3-C , 12-H ) :   0.9716
B(  3-C , 13-H ) :   0.9655 B(  4-S , 14-H ) :   0.9713

FINAL SINGLE POINT ENERGY      -556.595205333387

DIPOLE MOMENT
-------------

Method             : SCF
Type of density    : Electron Density
Multiplicity       :   1
Irrep              :   0
Energy             :  -556.6057374395874149 Eh
Relativity type    :
Basis              : AO
                                X                 Y                 Z
Electronic contribution:     -7.418015890      -1.755305218      -2.067528174
Nuclear contribution   :      7.725498837       2.185342621       2.479622938
                        -----------------------------------------
Total Dipole Moment    :      0.307482947       0.430037404       0.412094763
                        -----------------------------------------
Magnitude (a.u.)       :      0.670298460
Magnitude (Debye)      :      1.703763284

Rotational constants in cm-1:             0.220608             0.068206             0.062386
Rotational constants in MHz :          6613.670695          2044.759695          1870.295752

                             ****ORCA TERMINATED NORMALLY****
TOTAL RUN TIME: 0 days 0 hours 1 minutes 10 seconds 651 msec
