                         Program Version 6.0.0  -   RELEASE  -
|  1> ! wb97x-v def2-tzvp def2/J RIJCOSX DEFGRID2 scfconv7 GCP(DFT/TZ) printgap
|  2> %output
|  3>     printlevel normal
|  4> end
|  5> %cpcm
|  6>     smd true
|  7>     smdsolvent "water"
|  8> end
|  9> * xyz 0 1
| 10> C 2.505118980487559 -0.4200525730580023 -0.6164633543774052
| 11> C 1.6228491621060663 -0.4615484498001106 0.6289111580271912
| 12> C 0.6577686806059343 0.7200096033983122 0.7345193332985309
| 13> C -0.312955415430244 0.88421623367084 -0.4283848786905845
| 14> S -1.449713251869977 -0.5566119834859125 -0.6899022744706634
| 15> H 3.2588507892211713 -1.2131538125996773 -0.5884614094817977
| 16> H 3.030414317651639 0.5391046280716856 -0.6943305659869236
| 17> H 1.9217056438015954 -0.5561470199606888 -1.5331639070427014
| 18> H 2.256684926269211 -0.46318967485274554 1.5236127351757267
| 19> H 1.055092664116293 -1.3993700023755924 0.6468599751938336
| 20> H 1.2382322445697111 1.652093803560082 0.7945497448270938
| 21> H 0.08607840895452555 0.6469704327181373 1.6681138724905495
| 22> H -0.9261767663632264 1.77867545569055 -0.2922642484613336
| 23> H 0.21637388532311683 0.9931047701928493 -1.380037712681921
| 24> H -2.019115855195203 -0.5161977067306248 0.5300479901047879
| 25> *
| 26>
| 27>                          ****END OF INPUT****

CARTESIAN COORDINATES (ANGSTROEM)
---------------------------------
  C      2.505119   -0.420053   -0.616463
  C      1.622849   -0.461548    0.628911
  C      0.657769    0.720010    0.734519
  C     -0.312955    0.884216   -0.428385
  S     -1.449713   -0.556612   -0.689902
  H      3.258851   -1.213154   -0.588461
  H      3.030414    0.539105   -0.694331
  H      1.921706   -0.556147   -1.533164
  H      2.256685   -0.463190    1.523613
  H      1.055093   -1.399370    0.646860
  H      1.238232    1.652094    0.794550
  H      0.086078    0.646970    1.668114
  H     -0.926177    1.778675   -0.292264
  H      0.216374    0.993105   -1.380038
  H     -2.019116   -0.516198    0.530048

 Total Charge           Charge          ....    0
 Multiplicity           Mult            ....    1
 Number of Electrons    NEL             ....   50
 Basis Dimension        Dim             ....  221

ORBITAL ENERGIES
----------------

  NO   OCC          E(Eh)            E(eV)
   0   2.0000     -94.115105     -2561.0022
   1   2.0000     -12.069032      -328.4151
   2   2.0000     -12.037209      -327.5491
   3   2.0000     -12.031361      -327.3900
   4   2.0000     -12.024171      -327.1943
   5   2.0000      -9.626516      -261.9508
   6   2.0000      -7.604235      -206.9218
   7   2.0000      -7.603050      -206.8895
   8   2.0000      -7.602735      -206.8809
   9   2.0000      -1.306969       -35.5644
  10   2.0000      -1.249599       -34.0033
  11   2.0000      -1.182091       -32.1663
  12   2.0000      -1.106013       -30.0962
  13   2.0000      -1.027537       -27.9607
  14   2.0000      -0.887550       -24.1515
  15   2.0000      -0.881626       -23.9903
  16   2.0000      -0.853701       -23.2304
  17   2.0000      -0.823849       -22.4181
  18   2.0000      -0.822812       -22.3898
  19   2.0000      -0.803193       -21.8560
  20   2.0000      -0.766241       -20.8505
  21   2.0000      -0.758049       -20.6276
  22   2.0000      -0.754062       -20.5191
  23   2.0000      -0.731147       -19.8955
  24   2.0000      -0.641906       -17.4672
  25   0.0000      -0.191841        -5.2203
  26   0.0000      -0.096561        -2.6276
  27   0.0000      -0.012887        -0.3507
  28   0.0000      -0.010466        -0.2848
  29   0.0000      -0.000515        -0.0140

MULLIKEN ATOMIC CHARGES
-----------------------
   0 C :   -0.411304
   1 C :   -0.154032
   2 C :   -0.205350
   3 C :   -0.212937
   4 S :   -0.302540
   5 H :    0.129832
   6 H :    0.120364
   7 H :    0.126025
   8 H :    0.109735
   9 H :    0.094787
  10 H :    0.113394
  11 H :    0.120054
  12 H :    0.153907
  13 H :    0.154358
  14 H :    0.163709
Sum of atomic charges:   -0.0000000

LOEWDIN ATOMIC CHARGES
----------------------
   0 C :   -0.315118
   1 C :   -0.302421
   2 C :   -0.299250
   3 C :   -0.460781
   4 S :    0.181265
   5 H :    0.118209
   6 H :    0.119344
   7 H :    0.116891
   8 H :    0.134294
   9 H :    0.127098
  10 H :    0.142654
  11 H :    0.136550
  12 H :    0.126361
  13 H :    0.131676
  14 H :    0.043228

  Mayer bond orders larger than 0.100000
B(  0-C ,  1-C ) :   0.9679 B(  0-C ,  5-H ) :   0.9789 B(  0-C ,  6-H ) :   0.9767
B(  0-C ,  7-H ) :   0.9782 B(  1-C ,  2-C ) :   0.9782 B(  1-C ,  8-H ) :   0.9758
B(  1-C ,  9-H ) :   0.9718 B(  2-C ,  3-C ) :   0.9680 B(  2-C , 10-H ) :   0.9655
B(  2-C , 11-H ) :   0.9746 B(  3-C ,  4-S ) :   0.9971 B(  3-C , 12-H ) :   0.9685
B(  3-C , 13-H ) :   0.9591 B(  4-S , 14-H ) :   0.9663

FINAL SINGLE POINT ENERGY      -556.596629201950

DIPOLE MOMENT
-------------

Method             : SCF
Type of density    : Electron Density
Multiplicity       :   1
Irrep              :   0
Energy             :  -556.6071613081500118 Eh
Relativity type    :
Basis              : AO
                                X                 Y                 Z
Electronic contribution:     -7.326308341      -1.532119043      -1.935195245
Nuclear contribution   :      7.725498837       2.185342621       2.479622938
                        -----------------------------------------
Total Dipole Moment    :      0.399190496       0.653223578       0.544427693
                        -----------------------------------------
Magnitude (a.u.)       :      0.939391083
Magnitude (Debye)      :      2.387742377

Rotational constants in cm-1:             0.220608             0.068206             0.062386
Rotational constants in MHz :          6613.670695          2044.759695          1870.295752

                             ****ORCA TERMINATED NORMALLY****
TOTAL RUN TIME: 0 days 0 hours 1 minutes 13 seconds 777 msec
