                         Program Version 6.0.0  -   RELEASE  -
|  1> ! pbe def2-sv(p) def2/J RI DEFGRID1 loosescf d4 GCP(DFT/SV(P)) printgap
|  2> %output
|  3>     printlevel normal
|  4> end
|  5> * xyz 0 1
|  6> C -1.4557266547 0.3796130686 -0.2364765353
|  7> C -0.01040549 0.3782107055 0.2758931325
|  8> C 0.8031135974 -0.7441066194 -0.3815277062
|  9> O 2.0929026162 -0.8552017979 0.1715098756
| 10> O 0.6104194492 1.6301110177 0.0829954831
| 11> O -2.066571099 -0.8323425401 0.1406121595
| 12> H -1.4506279852 0.4852556176 -1.3310837479
| 13> H -1.9771866363 1.2391523787 0.2037296788
| 14> H -0.0177559111 0.2177828004 1.3588865526
| 15> H 0.8718610517 -0.5597986975 -1.4645496221
| 16> H 0.3021906987 -1.6986929532 -0.2151454704
| 17> H 2.462397649 0.0375349929 0.2556288148
| 18> H 0.5938965622 1.8548102375 -0.8593837862
| 19> H -2.9915478773 -0.8278398558 -0.1432898118
| 20> *
| 21>
| 22>                          ****END OF INPUT****

CARTESIAN COORDINATES (ANGSTROEM)
---------------------------------
  C     -1.455727    0.379613   -0.236477
  C     -0.010405    0.378211    0.275893
  C      0.803114   -0.744107   -0.381528
  O      2.092903   -0.855202    0.171510
  O      0.610419    1.630111    0.082995
  O     -2.066571   -0.832343    0.140612
  H     -1.450628    0.485256   -1.331084
  H     -1.977187    1.239152    0.203730
  H     -0.017756    0.217783    1.358887
  H      0.871861   -0.559799   -1.464550
  H      0.302191   -1.698693   -0.215145
  H      2.462398    0.037535    0.255629
  H      0.593897    1.854810   -0.859384
  H     -2.991548   -0.827840   -0.143290

 Total Charge           Charge          ....    0
 Multiplicity           Mult            ....    1
 Number of Electrons    NEL             ....   50
 Basis Dimension        Dim             ....  100

ORBITAL ENERGIES
----------------

  NO   OCC          E(Eh)            E(eV)
   0   2.0000     -18.761916      -510.5377
   1   2.0000     -18.757590      -510.4200
   2   2.0000     -18.733883      -509.7749
   3   2.0000      -9.939286      -270.4617
   4   2.0000      -9.938922      -270.4518
   5   2.0000      -9.922736      -270.0114
   6   2.0000      -0.944278       -25.6951
   7   2.0000      -0.929447       -25.2915
   8   2.0000      -0.906364       -24.6634
   9   2.0000      -0.682061       -18.5598
  10   2.0000      -0.600972       -16.3533
  11   2.0000      -0.554358       -15.0849
  12   2.0000      -0.481315       -13.0972
  13   2.0000      -0.467897       -12.7321
  14   2.0000      -0.431754       -11.7486
  15   2.0000      -0.402578       -10.9547
  16   2.0000      -0.398105       -10.8330
  17   2.0000      -0.380702       -10.3594
  18   2.0000      -0.342059        -9.3079
  19   2.0000      -0.311282        -8.4704
  20   2.0000      -0.282616        -7.6904
  21   2.0000      -0.275324        -7.4919
  22   2.0000      -0.236589        -6.4379
  23   2.0000      -0.226013        -6.1501
  24   2.0000      -0.204033        -5.5520
  25   0.0000       0.012024         0.3272
  26   0.0000       0.019642         0.5345
  27   0.0000       0.064038         1.7426
  28   0.0000       0.075454         2.0532
  29   0.0000       0.091523         2.4905

MULLIKEN ATOMIC CHARGES
-----------------------
   0 C :    0.009482
   1 C :   -0.024573
   2 C :    0.048726
   3 O :   -0.435405
   4 O :   -0.429380
   5 O :   -0.430885
   6 H :    0.052130
   7 H :    0.085521
   8 H :    0.087497
   9 H :    0.043681
  10 H :    0.101242
  11 H :    0.291905
  12 H :    0.295255
  13 H :    0.304804
Sum of atomic charges:    0.0000000

LOEWDIN ATOMIC CHARGES
----------------------
   0 C :   -0.137130
   1 C :   -0.093423
   2 C :   -0.136959
   3 O :   -0.341563
   4 O :   -0.316784
   5 O :   -0.340672
   6 H :    0.088255
   7 H :    0.100565
   8 H :    0.122116
   9 H :    0.086225
  10 H :    0.121557
  11 H :    0.275654
  12 H :    0.282305
  13 H :    0.289853

  Mayer bond orders larger than 0.100000
B(  0-C ,  1-C ) :   1.0506 B(  0-C ,  5-O ) :   1.0837 B(  0-C ,  6-H ) :   0.9042
B(  0-C ,  7-H ) :   0.9182 B(  1-C ,  2-C ) :   1.0618 B(  1-C ,  4-O ) :   1.0123
B(  1-C ,  8-H ) :   0.8851 B(  2-C ,  3-O ) :   1.0759 B(  2-C ,  9-H ) :   0.9007
B(  2-C , 10-H ) :   0.9121 B(  3-O , 11-H ) :   0.8413 B(  4-O , 12-H ) :   0.8495
B(  5-O , 13-H ) :   0.8484

Dispersion correction           -0.009046015
FINAL SINGLE POINT ENERGY      -344.007608108796

DIPOLE MOMENT
-------------

Method             : SCF
Type of density    : Electron Density
Multiplicity       :   1
Irrep              :   0
Energy             :  -344.0810779655478768 Eh
Relativity type    :
Basis              : AO
                                X                 Y                 Z
Electronic contribution:      1.161879392      -0.041222761       1.229292279
Nuclear contribution   :     -2.060878557       0.701092600      -2.053617108
                        -----------------------------------------
Total Dipole Moment    :     -0.898999165       0.659869839      -0.824324829
                        -----------------------------------------
Magnitude (a.u.)       :      1.386772918
Magnitude (Debye)      :      3.524896630

Rotational constants in cm-1:             0.176473             0.079923             0.059220
Rotational constants in MHz :          5290.536068          2396.042781          1775.377628

                             ****ORCA TERMINATED NORMALLY****
TOTAL RUN TIME: 0 days 0 hours 0 minutes 6 seconds 470 msec
