                         Program Version 6.0.0  -   RELEASE  -
|  1> ! pbe def2-sv(p) def2/J RI DEFGRID1 loosescf d4 GCP(DFT/SV(P)) printgap
|  2> %output
|  3>     printlevel normal
|  4> end
|  5> * xyz 0 1
|  6> C -2.997403377 0.7530003306 0.1903493835
|  7> C -1.802977073 -0.1801019547 0.3685103387
|  8> C -2.0203896667 -1.4960447276 -0.3739586965
|  9> C -0.5342819382 0.5085257349 -0.1296674925
| 10> O 0.5978154933 -0.2992157319 0.2182347966
| 11> C 1.8043365727 0.1840800257 -0.0483014388
| 12> O 1.983271524 1.2601701507 -0.5828477688
| 13> C 2.8905527081 -0.7441121294 0.4044109992
| 14> H -3.1290717617 1.0011188798 -0.8600789802
| 15> H -2.8540289912 1.6755418503 0.7469072869
| 16> H -3.9025224465 0.2703777283 0.5474338544
| 17> H -1.6656373303 -0.3935823227 1.4330033719
| 18> H -2.8874038795 -2.0147804194 0.0254339541
| 19> H -1.1497349949 -2.1370570223 -0.2649671416
| 20> H -2.1850333027 -1.3093141379 -1.4327865753
| 21> H -0.5518836831 0.6368468315 -1.2173928717
| 22> H -0.4088827743 1.497015407 0.3253320216
| 23> H 3.1973714862 -0.4483291503 1.4055518316
| 24> H 3.7458686919 -0.6544502769 -0.2577690641
| 25> H 2.5195743797 -1.7627764955 0.4352802145
| 26> *
| 27>
| 28>                          ****END OF INPUT****

CARTESIAN COORDINATES (ANGSTROEM)
---------------------------------
  C     -2.997403    0.753000    0.190349
  C     -1.802977   -0.180102    0.368510
  C     -2.020390   -1.496045   -0.373959
  C     -0.534282    0.508526   -0.129667
  O      0.597815   -0.299216    0.218235
  C      1.804337    0.184080   -0.048301
  O      1.983272    1.260170   -0.582848
  C      2.890553   -0.744112    0.404411
  H     -3.129072    1.001119   -0.860079
  H     -2.854029    1.675542    0.746907
  H     -3.902522    0.270378    0.547434
  H     -1.665637   -0.393582    1.433003
  H     -2.887404   -2.014780    0.025434
  H     -1.149735   -2.137057   -0.264967
  H     -2.185033   -1.309314   -1.432787
  H     -0.551884    0.636847   -1.217393
  H     -0.408883    1.497015    0.325332
  H      3.197371   -0.448329    1.405552
  H      3.745869   -0.654450   -0.257769
  H      2.519574   -1.762776    0.435280

 Total Charge           Charge          ....    0
 Multiplicity           Mult            ....    1
 Number of Electrons    NEL             ....   64
 Basis Dimension        Dim             ....  136

ORBITAL ENERGIES
----------------

  NO   OCC          E(Eh)            E(eV)
   0   2.0000     -18.798114      -511.5227
   1   2.0000     -18.728910      -509.6396
   2   2.0000     -10.006855      -272.3004
   3   2.0000      -9.942082      -270.5378
   4   2.0000      -9.904074      -269.5036
   5   2.0000      -9.893679      -269.2207
   6   2.0000      -9.883856      -268.9534
   7   2.0000      -9.878232      -268.8004
   8   2.0000      -1.005177       -27.3523
   9   2.0000      -0.906492       -24.6669
  10   2.0000      -0.740493       -20.1498
  11   2.0000      -0.684729       -18.6324
  12   2.0000      -0.623578       -16.9684
  13   2.0000      -0.618796       -16.8383
  14   2.0000      -0.521458       -14.1896
  15   2.0000      -0.506328       -13.7779
  16   2.0000      -0.448525       -12.2050
  17   2.0000      -0.432318       -11.7640
  18   2.0000      -0.417089       -11.3496
  19   2.0000      -0.408287       -11.1100
  20   2.0000      -0.383523       -10.4362
  21   2.0000      -0.382148       -10.3988
  22   2.0000      -0.362519        -9.8646
  23   2.0000      -0.354642        -9.6503
  24   2.0000      -0.345431        -9.3997
  25   2.0000      -0.322804        -8.7839
  26   2.0000      -0.317857        -8.6493
  27   2.0000      -0.304379        -8.2826
  28   2.0000      -0.295132        -8.0309
  29   2.0000      -0.287004        -7.8098
  30   2.0000      -0.255423        -6.9504
  31   2.0000      -0.215307        -5.8588
  32   0.0000      -0.018322        -0.4986
  33   0.0000       0.032091         0.8732
  34   0.0000       0.050814         1.3827
  35   0.0000       0.066851         1.8191
  36   0.0000       0.076887         2.0922

MULLIKEN ATOMIC CHARGES
-----------------------
   0 C :   -0.253329
   1 C :   -0.180411
   2 C :   -0.251042
   3 C :    0.028764
   4 O :   -0.238308
   5 C :    0.082764
   6 O :   -0.217656
   7 C :   -0.244877
   8 H :    0.099682
   9 H :    0.104762
  10 H :    0.107185
  11 H :    0.082687
  12 H :    0.102334
  13 H :    0.111063
  14 H :    0.092487
  15 H :    0.092199
  16 H :    0.099801
  17 H :    0.135273
  18 H :    0.127797
  19 H :    0.118823
Sum of atomic charges:   -0.0000000

LOEWDIN ATOMIC CHARGES
----------------------
   0 C :   -0.327224
   1 C :   -0.169464
   2 C :   -0.331705
   3 C :   -0.094885
   4 O :   -0.068350
   5 C :    0.027775
   6 O :   -0.173206
   7 C :   -0.359376
   8 H :    0.119421
   9 H :    0.119839
  10 H :    0.122699
  11 H :    0.120436
  12 H :    0.119315
  13 H :    0.120634
  14 H :    0.117018
  15 H :    0.114422
  16 H :    0.114465
  17 H :    0.149725
  18 H :    0.142758
  19 H :    0.135701

  Mayer bond orders larger than 0.100000
B(  0-C ,  1-C ) :   1.1024 B(  0-C ,  8-H ) :   0.9492 B(  0-C ,  9-H ) :   0.9498
B(  0-C , 10-H ) :   0.9515 B(  1-C ,  2-C ) :   1.1046 B(  1-C ,  3-C ) :   1.0572
B(  1-C , 11-H ) :   0.8993 B(  2-C , 12-H ) :   0.9524 B(  2-C , 13-H ) :   0.9477
B(  2-C , 14-H ) :   0.9496 B(  3-C ,  4-O ) :   0.9225 B(  3-C , 15-H ) :   0.9230
B(  3-C , 16-H ) :   0.9274 B(  4-O ,  5-C ) :   1.1938 B(  5-C ,  6-O ) :   2.0480
B(  5-C ,  7-C ) :   1.0911 B(  7-C , 17-H ) :   0.9248 B(  7-C , 18-H ) :   0.9376
B(  7-C , 19-H ) :   0.9364

Dispersion correction           -0.014986083
FINAL SINGLE POINT ENERGY      -385.458468843648

DIPOLE MOMENT
-------------

Method             : SCF
Type of density    : Electron Density
Multiplicity       :   1
Irrep              :   0
Energy             :  -385.5333453075009515 Eh
Relativity type    :
Basis              : AO
                                X                 Y                 Z
Electronic contribution:      8.223918915       2.836606159      -0.449861504
Nuclear contribution   :     -8.659831501      -3.400104492       0.825760277
                        -----------------------------------------
Total Dipole Moment    :     -0.435912586      -0.563498333       0.375898773
                        -----------------------------------------
Magnitude (a.u.)       :      0.805512285
Magnitude (Debye)      :      2.047449515

Rotational constants in cm-1:             0.149292             0.032974             0.028929
Rotational constants in MHz :          4475.675341           988.537841           867.267125

                             ****ORCA TERMINATED NORMALLY****
TOTAL RUN TIME: 0 days 0 hours 0 minutes 11 seconds 896 msec
