                         Program Version 6.0.0  -   RELEASE  -
|  1> ! r2scan-3c def2/J RI DEFGRID2 scfconv6 printgap
|  2> %output
|  3>     printlevel normal
|  4> end
|  5> * xyz 0 1
|  6> C 0.1528511088 -0.2845293641 -0.3706021124
|  7> H -0.0498274918 -0.3363515949 -1.4482484118
|  8> C 1.5171216886 0.3761767603 -0.1350399669
|  9> F 2.4918369424 -0.2812669894 -0.7670060782
| 10> F 1.8428284353 0.4286630543 1.1537013323
| 11> F 1.5285922031 1.6281905504 -0.599530858
| 12> O -0.776213674 0.4720698055 0.3245236351
| 13> C -2.0933498306 0.1557340848 0.1105550161
| 14> F -2.4554597701 0.4763295943 -1.1575748414
| 15> F -2.8190798412 0.9257872043 0.9222759473
| 16> Cl 0.2462927233 -1.9644411132 0.2607490585
| 17> H -2.3436418357 -0.9039514864 0.2801451248
| 18> *
| 19>
| 20>                          ****END OF INPUT****

CARTESIAN COORDINATES (ANGSTROEM)
---------------------------------
  C      0.152851   -0.284529   -0.370602
  H     -0.049827   -0.336352   -1.448248
  C      1.517122    0.376177   -0.135040
  F      2.491837   -0.281267   -0.767006
  F      1.842828    0.428663    1.153701
  F      1.528592    1.628191   -0.599531
  O     -0.776214    0.472070    0.324524
  C     -2.093350    0.155734    0.110555
  F     -2.455460    0.476330   -1.157575
  F     -2.819080    0.925787    0.922276
  Cl     0.246293   -1.964441    0.260749
  H     -2.343642   -0.903951    0.280145

 Total Charge           Charge          ....    0
 Multiplicity           Mult            ....    1
 Number of Electrons    NEL             ....   90
 Basis Dimension        Dim             ....  238

ORBITAL ENERGIES
----------------

  NO   OCC          E(Eh)            E(eV)
   0   2.0000    -101.246199     -2755.0491
   1   2.0000     -24.541541      -667.8093
   2   2.0000     -24.540864      -667.7909
   3   2.0000     -24.539338      -667.7493
   4   2.0000     -24.530657      -667.5131
   5   2.0000     -24.525893      -667.3835
   6   2.0000     -19.046296      -518.2761
   7   2.0000     -10.311505      -280.5903
   8   2.0000     -10.275093      -279.5995
   9   2.0000     -10.208862      -277.7973
  10   2.0000      -9.402112      -255.8445
  11   2.0000      -7.148642      -194.5244
  12   2.0000      -7.138227      -194.2410
  13   2.0000      -7.137778      -194.2288
  14   2.0000      -1.303965       -35.4827
  15   2.0000      -1.264835       -34.4179
  16   2.0000      -1.211856       -32.9763
  17   2.0000      -1.211053       -32.9544
  18   2.0000      -1.194738       -32.5105
  19   2.0000      -1.101061       -29.9614
  20   2.0000      -0.862174       -23.4609
  21   2.0000      -0.762564       -20.7504
  22   2.0000      -0.691512       -18.8170
  23   2.0000      -0.644903       -17.5487
  24   2.0000      -0.598119       -16.2756
  25   2.0000      -0.586530       -15.9603
  26   2.0000      -0.580571       -15.7982
  27   2.0000      -0.561959       -15.2917
  28   2.0000      -0.556441       -15.1415
  29   2.0000      -0.537102       -14.6153
  30   2.0000      -0.478356       -13.0167
  31   2.0000      -0.451438       -12.2843
  32   2.0000      -0.447752       -12.1839
  33   2.0000      -0.434244       -11.8164
  34   2.0000      -0.429519       -11.6878
  35   2.0000      -0.412130       -11.2146
  36   2.0000      -0.407801       -11.0968
  37   2.0000      -0.405187       -11.0257
  38   2.0000      -0.389917       -10.6102
  39   2.0000      -0.388097       -10.5607
  40   2.0000      -0.386566       -10.5190
  41   2.0000      -0.361819        -9.8456
  42   2.0000      -0.332965        -9.0604
  43   2.0000      -0.317096        -8.6286
  44   2.0000      -0.310563        -8.4508
  45   0.0000      -0.043758        -1.1907
  46   0.0000       0.031444         0.8556
  47   0.0000       0.053212         1.4480
  48   0.0000       0.077490         2.1086
  49   0.0000       0.091994         2.5033

MULLIKEN ATOMIC CHARGES
-----------------------
   0 C :   -0.004826
   1 H :    0.193823
   2 C :    0.553940
   3 F :   -0.193206
   4 F :   -0.187959
   5 F :   -0.188328
   6 O :   -0.130844
   7 C :    0.408981
   8 F :   -0.238204
   9 F :   -0.209970
  10 Cl:   -0.132610
  11 H :    0.129203
Sum of atomic charges:   -0.0000000

LOEWDIN ATOMIC CHARGES
----------------------
   0 C :    0.046868
   1 H :    0.204770
   2 C :    0.499703
   3 F :   -0.195854
   4 F :   -0.177648
   5 F :   -0.181400
   6 O :   -0.593542
   7 C :    0.493524
   8 F :   -0.234685
   9 F :   -0.192293
  10 Cl:    0.148167
  11 H :    0.182391

  Mayer bond orders larger than 0.100000
B(  0-C ,  1-H ) :   0.9053 B(  0-C ,  2-C ) :   0.9984 B(  0-C ,  6-O ) :   0.9447
B(  0-C , 10-Cl) :   0.9993 B(  2-C ,  3-F ) :   1.0284 B(  2-C ,  4-F ) :   1.0596
B(  2-C ,  5-F ) :   1.0356 B(  6-O ,  7-C ) :   1.0358 B(  7-C ,  8-F ) :   0.9528
B(  7-C ,  9-F ) :   1.0698 B(  7-C , 11-H ) :   0.9473

Dispersion correction           -0.003392405
FINAL SINGLE POINT ENERGY     -1150.115482771751

DIPOLE MOMENT
-------------

Method             : SCF
Type of density    : Electron Density
Multiplicity       :   1
Irrep              :   0
Energy             : -1150.1321207444661923 Eh
Relativity type    :
Basis              : AO
                                X                 Y                 Z
Electronic contribution:      2.846918357       0.922219362       0.691262556
Nuclear contribution   :     -3.133022713      -1.464239059      -1.025857449
                        -----------------------------------------
Total Dipole Moment    :     -0.286104356      -0.542019697      -0.334594893
                        -----------------------------------------
Magnitude (a.u.)       :      0.698279885
Magnitude (Debye)      :      1.774886414

Rotational constants in cm-1:             0.054657             0.024571             0.020736
Rotational constants in MHz :          1638.575910           736.622249           621.656267

                             ****ORCA TERMINATED NORMALLY****
TOTAL RUN TIME: 0 days 0 hours 0 minutes 25 seconds 522 msec
