                         Program Version 6.0.0  -   RELEASE  -
|  1> ! r2scan-3c def2/J RI DEFGRID2 scfconv6 printgap
|  2> %output
|  3>     printlevel normal
|  4> end
|  5> %cpcm
|  6>     smd true
|  7>     smdsolvent "water"
|  8> end
|  9> * xyz 0 1
| 10> C 0.1528511088 -0.2845293641 -0.3706021124
| 11> H -0.0498274918 -0.3363515949 -1.4482484118
| 12> C 1.5171216886 0.3761767603 -0.1350399669
| 13> F 2.4918369424 -0.2812669894 -0.7670060782
| 14> F 1.8428284353 0.4286630543 1.1537013323
| 15> F 1.5285922031 1.6281905504 -0.599530858
| 16> O -0.776213674 0.4720698055 0.3245236351
| 17> C -2.0933498306 0.1557340848 0.1105550161
| 18> F -2.4554597701 0.4763295943 -1.1575748414
| 19> F -2.8190798412 0.9257872043 0.9222759473
| 20> Cl 0.2462927233 -1.9644411132 0.2607490585
| 21> H -2.3436418357 -0.9039514864 0.2801451248
| 22> *
| 23>
| 24>                          ****END OF INPUT****

CARTESIAN COORDINATES (ANGSTROEM)
---------------------------------
  C      0.152851   -0.284529   -0.370602
  H     -0.049827   -0.336352   -1.448248
  C      1.517122    0.376177   -0.135040
  F      2.491837   -0.281267   -0.767006
  F      1.842828    0.428663    1.153701
  F      1.528592    1.628191   -0.599531
  O     -0.776214    0.472070    0.324524
  C     -2.093350    0.155734    0.110555
  F     -2.455460    0.476330   -1.157575
  F     -2.819080    0.925787    0.922276
  Cl     0.246293   -1.964441    0.260749
  H     -2.343642   -0.903951    0.280145

 Total Charge           Charge          ....    0
 Multiplicity           Mult            ....    1
 Number of Electrons    NEL             ....   90
 Basis Dimension        Dim             ....  238

ORBITAL ENERGIES
----------------

  NO   OCC          E(Eh)            E(eV)
   0   2.0000    -101.235190     -2754.7496
   1   2.0000     -24.537107      -667.6886
   2   2.0000     -24.536572      -667.6741
   3   2.0000     -24.536358      -667.6682
   4   2.0000     -24.522788      -667.2990
   5   2.0000     -24.513963      -667.0588
   6   2.0000     -19.034239      -517.9480
   7   2.0000     -10.306630      -280.4577
   8   2.0000     -10.260528      -279.2032
   9   2.0000     -10.193578      -277.3814
  10   2.0000      -9.391204      -255.5477
  11   2.0000      -7.137625      -194.2246
  12   2.0000      -7.127350      -193.9451
  13   2.0000      -7.126930      -193.9336
  14   2.0000      -1.300539       -35.3895
  15   2.0000      -1.255573       -34.1659
  16   2.0000      -1.209164       -32.9030
  17   2.0000      -1.207395       -32.8549
  18   2.0000      -1.185243       -32.2521
  19   2.0000      -1.089384       -29.6436
  20   2.0000      -0.850662       -23.1477
  21   2.0000      -0.752186       -20.4680
  22   2.0000      -0.683710       -18.6047
  23   2.0000      -0.634772       -17.2730
  24   2.0000      -0.588941       -16.0259
  25   2.0000      -0.580421       -15.7941
  26   2.0000      -0.574608       -15.6359
  27   2.0000      -0.551433       -15.0053
  28   2.0000      -0.546169       -14.8620
  29   2.0000      -0.526552       -14.3282
  30   2.0000      -0.467420       -12.7191
  31   2.0000      -0.448313       -12.1992
  32   2.0000      -0.444114       -12.0850
  33   2.0000      -0.424754       -11.5581
  34   2.0000      -0.422193       -11.4884
  35   2.0000      -0.407335       -11.0841
  36   2.0000      -0.403311       -10.9746
  37   2.0000      -0.399386       -10.8678
  38   2.0000      -0.385460       -10.4889
  39   2.0000      -0.380853       -10.3635
  40   2.0000      -0.378410       -10.2971
  41   2.0000      -0.349822        -9.5191
  42   2.0000      -0.320113        -8.7107
  43   2.0000      -0.306974        -8.3532
  44   2.0000      -0.299583        -8.1521
  45   0.0000      -0.031608        -0.8601
  46   0.0000       0.043324         1.1789
  47   0.0000       0.071698         1.9510
  48   0.0000       0.097136         2.6432
  49   0.0000       0.110281         3.0009

MULLIKEN ATOMIC CHARGES
-----------------------
   0 C :   -0.001694
   1 H :    0.248349
   2 C :    0.543456
   3 F :   -0.196708
   4 F :   -0.194886
   5 F :   -0.193342
   6 O :   -0.148617
   7 C :    0.397082
   8 F :   -0.245511
   9 F :   -0.223744
  10 Cl:   -0.153761
  11 H :    0.169375
Sum of atomic charges:   -0.0000000

LOEWDIN ATOMIC CHARGES
----------------------
   0 C :    0.054925
   1 H :    0.226135
   2 C :    0.499018
   3 F :   -0.198134
   4 F :   -0.186242
   5 F :   -0.184623
   6 O :   -0.603956
   7 C :    0.497095
   8 F :   -0.239280
   9 F :   -0.203281
  10 Cl:    0.138130
  11 H :    0.200214

  Mayer bond orders larger than 0.100000
B(  0-C ,  1-H ) :   0.8905 B(  0-C ,  2-C ) :   0.9990 B(  0-C ,  6-O ) :   0.9472
B(  0-C , 10-Cl) :   0.9645 B(  2-C ,  3-F ) :   1.0307 B(  2-C ,  4-F ) :   1.0506
B(  2-C ,  5-F ) :   1.0376 B(  6-O ,  7-C ) :   1.0410 B(  7-C ,  8-F ) :   0.9523
B(  7-C ,  9-F ) :   1.0550 B(  7-C , 11-H ) :   0.9398

Dispersion correction           -0.003392405
FINAL SINGLE POINT ENERGY     -1150.116322262131

DIPOLE MOMENT
-------------

Method             : SCF
Type of density    : Electron Density
Multiplicity       :   1
Irrep              :   0
Energy             : -1150.1329602348464505 Eh
Relativity type    :
Basis              : AO
                                X                 Y                 Z
Electronic contribution:      2.729595874       0.766936572       0.484885216
Nuclear contribution   :     -3.133022713      -1.464239059      -1.025857449
                        -----------------------------------------
Total Dipole Moment    :     -0.403426839      -0.697302488      -0.540972233
                        -----------------------------------------
Magnitude (a.u.)       :      0.970378756
Magnitude (Debye)      :      2.466506782

Rotational constants in cm-1:             0.054657             0.024571             0.020736
Rotational constants in MHz :          1638.575910           736.622249           621.656267

                             ****ORCA TERMINATED NORMALLY****
TOTAL RUN TIME: 0 days 0 hours 0 minutes 32 seconds 368 msec
