                         Program Version 6.0.0  -   RELEASE  -
|  1> ! r2scan-3c def2/J RI DEFGRID2 scfconv6 printgap
|  2> %output
|  3>     printlevel normal
|  4> end
|  5> %cpcm
|  6>     smd true
|  7>     smdsolvent "water"
|  8> end
|  9> * xyz 0 1
| 10> C -2.4989999063 0.1016772158 0.1618275174
| 11> C -1.1584584124 -0.3944888476 -0.3665011922
| 12> C 0.0032421815 0.4011746671 0.2348100063
| 13> C 1.3196271423 0.0062292532 -0.3378519984
| 14> O 2.3490968981 -0.1186588896 0.2819294003
| 15> H -2.540730646 0.0095958727 1.2442351631
| 16> H -2.6512295328 1.1455565713 -0.1008217388
| 17> H -3.310760195 -0.4822907937 -0.2633405555
| 18> H -1.1362332439 -0.3007390754 -1.4536336716
| 19> H -1.037142321 -1.4503681108 -0.1181361689
| 20> H -0.1318984139 1.4599216889 -0.0082554976
| 21> H 0.0309627755 0.3054835408 1.32126366
| 22> H 1.3082005818 -0.1691392556 -1.4297029807
| 23> *
| 24>
| 25>                          ****END OF INPUT****

CARTESIAN COORDINATES (ANGSTROEM)
---------------------------------
  C     -2.499000    0.101677    0.161828
  C     -1.158458   -0.394489   -0.366501
  C      0.003242    0.401175    0.234810
  C      1.319627    0.006229   -0.337852
  O      2.349097   -0.118659    0.281929
  H     -2.540731    0.009596    1.244235
  H     -2.651230    1.145557   -0.100822
  H     -3.310760   -0.482291   -0.263341
  H     -1.136233   -0.300739   -1.453634
  H     -1.037142   -1.450368   -0.118136
  H     -0.131898    1.459922   -0.008255
  H      0.030963    0.305484    1.321264
  H      1.308201   -0.169139   -1.429703

 Total Charge           Charge          ....    0
 Multiplicity           Mult            ....    1
 Number of Electrons    NEL             ....   40
 Basis Dimension        Dim             ....  140

ORBITAL ENERGIES
----------------

  NO   OCC          E(Eh)            E(eV)
   0   2.0000     -18.956462      -515.8316
   1   2.0000     -10.121943      -275.4321
   2   2.0000     -10.030455      -272.9426
   3   2.0000     -10.028226      -272.8819
   4   2.0000     -10.011777      -272.4343
   5   2.0000      -1.022141       -27.8139
   6   2.0000      -0.764165       -20.7940
   7   2.0000      -0.677566       -18.4375
   8   2.0000      -0.566464       -15.4143
   9   2.0000      -0.540715       -14.7136
  10   2.0000      -0.449805       -12.2398
  11   2.0000      -0.426106       -11.5949
  12   2.0000      -0.418158       -11.3786
  13   2.0000      -0.389850       -10.6084
  14   2.0000      -0.363964        -9.9040
  15   2.0000      -0.339769        -9.2456
  16   2.0000      -0.327725        -8.9179
  17   2.0000      -0.306720        -8.3463
  18   2.0000      -0.298022        -8.1096
  19   2.0000      -0.227850        -6.2001
  20   0.0000      -0.058957        -1.6043
  21   0.0000       0.108873         2.9626
  22   0.0000       0.115367         3.1393
  23   0.0000       0.133579         3.6349
  24   0.0000       0.141619         3.8537

MULLIKEN ATOMIC CHARGES
-----------------------
   0 C :   -0.496936
   1 C :   -0.250921
   2 C :   -0.244336
   3 C :    0.171183
   4 O :   -0.442525
   5 H :    0.155491
   6 H :    0.156038
   7 H :    0.159589
   8 H :    0.153903
   9 H :    0.153398
  10 H :    0.185734
  11 H :    0.172548
  12 H :    0.126833
Sum of atomic charges:    0.0000000

LOEWDIN ATOMIC CHARGES
----------------------
   0 C :   -0.426489
   1 C :   -0.302981
   2 C :   -0.294302
   3 C :    0.226524
   4 O :   -0.525313
   5 H :    0.154514
   6 H :    0.154277
   7 H :    0.154875
   8 H :    0.159878
   9 H :    0.159222
  10 H :    0.194654
  11 H :    0.177969
  12 H :    0.167172

  Mayer bond orders larger than 0.100000
B(  0-C ,  1-C ) :   0.8920 B(  0-C ,  5-H ) :   0.9772 B(  0-C ,  6-H ) :   0.9795
B(  0-C ,  7-H ) :   0.9704 B(  1-C ,  2-C ) :   0.9154 B(  1-C ,  8-H ) :   0.9625
B(  1-C ,  9-H ) :   0.9658 B(  2-C ,  3-C ) :   0.9551 B(  2-C , 10-H ) :   0.9189
B(  2-C , 11-H ) :   0.9606 B(  3-C ,  4-O ) :   1.8559 B(  3-C , 12-H ) :   0.9520

Dispersion correction           -0.002602902
FINAL SINGLE POINT ENERGY      -232.396583781406

DIPOLE MOMENT
-------------

Method             : SCF
Type of density    : Electron Density
Multiplicity       :   1
Irrep              :   0
Energy             :  -232.3999227846949225 Eh
Relativity type    :
Basis              : AO
                                X                 Y                 Z
Electronic contribution:      7.337140797      -0.256972608       0.145023788
Nuclear contribution   :     -8.848470420       0.484228308      -0.754219198
                        -----------------------------------------
Total Dipole Moment    :     -1.511329623       0.227255701      -0.609195410
                        -----------------------------------------
Magnitude (a.u.)       :      1.645260293
Magnitude (Debye)      :      4.181919322

Rotational constants in cm-1:             0.734199             0.071243             0.068897
Rotational constants in MHz :         22010.728469          2135.797418          2065.489304

                             ****ORCA TERMINATED NORMALLY****
TOTAL RUN TIME: 0 days 0 hours 0 minutes 16 seconds 888 msec
