                         Program Version 6.0.0  -   RELEASE  -
|  1> ! pbe def2-sv(p) def2/J RI DEFGRID1 loosescf d4 GCP(DFT/SV(P)) printgap
|  2> %output
|  3>     printlevel normal
|  4> end
|  5> * xyz 0 1
|  6> C 4.8909147586 -0.5679627265 -1.1834662098
|  7> C 4.5422997918 -0.3956797118 0.2974504043
|  8> C 3.2473789836 0.374253482 0.4458902104
|  9> O 3.2143762308 1.5549640756 0.7531853118
| 10> N 2.146236855 -0.3798432012 0.1772565038
| 11> C 0.8059641706 -0.0080811856 0.1670724899
| 12> C 0.3703725774 1.2845797553 0.4556083576
| 13> C -0.9771040506 1.5858802583 0.4280495439
| 14> C -1.9100765815 0.6101521104 0.114388346
| 15> C -1.4815483844 -0.6799219853 -0.1743506689
| 16> C -0.1351282784 -0.9896893783 -0.1492307679
| 17> Cl -2.6335936694 -1.913341018 -0.5684291805
| 18> Cl -3.6011136592 0.9997525311 0.0839025117
| 19> H 5.8426363703 -1.0826536104 -1.2793702023
| 20> H 4.9748748427 0.4042421309 -1.6632646826
| 21> H 4.1307308225 -1.1436763013 -1.704226194
| 22> H 5.3271852816 0.1759658866 0.7926480754
| 23> H 4.4563993843 -1.369485728 0.779280699
| 24> H 2.3144846169 -1.3497607883 -0.0596874578
| 25> H 1.0903383854 2.0471761754 0.7005881348
| 26> H -1.3130550577 2.5847767109 0.6510710753
| 27> H 0.1726673308 -1.9973177811 -0.3767018705
| 28> *
| 29>
| 30>                          ****END OF INPUT****

CARTESIAN COORDINATES (ANGSTROEM)
---------------------------------
  C      4.890915   -0.567963   -1.183466
  C      4.542300   -0.395680    0.297450
  C      3.247379    0.374253    0.445890
  O      3.214376    1.554964    0.753185
  N      2.146237   -0.379843    0.177257
  C      0.805964   -0.008081    0.167072
  C      0.370373    1.284580    0.455608
  C     -0.977104    1.585880    0.428050
  C     -1.910077    0.610152    0.114388
  C     -1.481548   -0.679922   -0.174351
  C     -0.135128   -0.989689   -0.149231
  Cl    -2.633594   -1.913341   -0.568429
  Cl    -3.601114    0.999753    0.083903
  H      5.842636   -1.082654   -1.279370
  H      4.974875    0.404242   -1.663265
  H      4.130731   -1.143676   -1.704226
  H      5.327185    0.175966    0.792648
  H      4.456399   -1.369486    0.779281
  H      2.314485   -1.349761   -0.059687
  H      1.090338    2.047176    0.700588
  H     -1.313055    2.584777    0.651071
  H      0.172667   -1.997318   -0.376702

 Total Charge           Charge          ....    0
 Multiplicity           Mult            ....    1
 Number of Electrons    NEL             ....  112
 Basis Dimension        Dim             ....  208

ORBITAL ENERGIES
----------------

  NO   OCC          E(Eh)            E(eV)
   0   2.0000    -100.647624     -2738.7611
   1   2.0000    -100.642653     -2738.6258
   2   2.0000     -18.735152      -509.8094
   3   2.0000     -14.051049      -382.3485
   4   2.0000     -10.000585      -272.1298
   5   2.0000      -9.964941      -271.1598
   6   2.0000      -9.959281      -271.0058
   7   2.0000      -9.957033      -270.9446
   8   2.0000      -9.918126      -269.8859
   9   2.0000      -9.911369      -269.7020
  10   2.0000      -9.910632      -269.6820
  11   2.0000      -9.901477      -269.4329
  12   2.0000      -9.900815      -269.4149
  13   2.0000      -9.183353      -249.8917
  14   2.0000      -9.178254      -249.7530
  15   2.0000      -7.014928      -190.8859
  16   2.0000      -7.009841      -190.7475
  17   2.0000      -7.003339      -190.5706
  18   2.0000      -7.002556      -190.5492
  19   2.0000      -6.998240      -190.4318
  20   2.0000      -6.997486      -190.4113
  21   2.0000      -0.953963       -25.9587
  22   2.0000      -0.875421       -23.8214
  23   2.0000      -0.835730       -22.7414
  24   2.0000      -0.781998       -21.2792
  25   2.0000      -0.764957       -20.8155
  26   2.0000      -0.721317       -19.6280
  27   2.0000      -0.683764       -18.6062
  28   2.0000      -0.663449       -18.0534
  29   2.0000      -0.603009       -16.4087
  30   2.0000      -0.582162       -15.8414
  31   2.0000      -0.565967       -15.4007
  32   2.0000      -0.522737       -14.2244
  33   2.0000      -0.504560       -13.7298
  34   2.0000      -0.455552       -12.3962
  35   2.0000      -0.447166       -12.1680
  36   2.0000      -0.434837       -11.8325
  37   2.0000      -0.417251       -11.3540
  38   2.0000      -0.411898       -11.2083
  39   2.0000      -0.403767       -10.9871
  40   2.0000      -0.398375       -10.8403
  41   2.0000      -0.382857       -10.4181
  42   2.0000      -0.372151       -10.1267
  43   2.0000      -0.356965        -9.7135
  44   2.0000      -0.347288        -9.4502
  45   2.0000      -0.340695        -9.2708
  46   2.0000      -0.336602        -9.1594
  47   2.0000      -0.327420        -8.9095
  48   2.0000      -0.309644        -8.4258
  49   2.0000      -0.306178        -8.3315
  50   2.0000      -0.283920        -7.7259
  51   2.0000      -0.264710        -7.2031
  52   2.0000      -0.260753        -7.0955
  53   2.0000      -0.232858        -6.3364
  54   2.0000      -0.213331        -5.8050
  55   2.0000      -0.202994        -5.5237
  56   0.0000      -0.059109        -1.6084
  57   0.0000      -0.053535        -1.4568
  58   0.0000      -0.020185        -0.5493
  59   0.0000      -0.006681        -0.1818
  60   0.0000       0.008283         0.2254

MULLIKEN ATOMIC CHARGES
-----------------------
   0 C :   -0.292963
   1 C :   -0.182889
   2 C :    0.083121
   3 O :   -0.203531
   4 N :   -0.195495
   5 C :    0.213623
   6 C :   -0.126509
   7 C :   -0.101632
   8 C :    0.089810
   9 C :    0.074802
  10 C :   -0.193243
  11 Cl:   -0.057821
  12 Cl:   -0.062676
  13 H :    0.121429
  14 H :    0.123455
  15 H :    0.099261
  16 H :    0.109515
  17 H :    0.100076
  18 H :    0.232572
  19 H :    0.081638
  20 H :    0.058081
  21 H :    0.029376
Sum of atomic charges:   -0.0000000

LOEWDIN ATOMIC CHARGES
----------------------
   0 C :   -0.333428
   1 C :   -0.254014
   2 C :    0.033406
   3 O :   -0.175053
   4 N :   -0.103053
   5 C :    0.007796
   6 C :   -0.139790
   7 C :   -0.122368
   8 C :   -0.165626
   9 C :   -0.148697
  10 C :   -0.161816
  11 Cl:    0.140905
  12 Cl:    0.134595
  13 H :    0.126870
  14 H :    0.130386
  15 H :    0.113967
  16 H :    0.138629
  17 H :    0.124177
  18 H :    0.240205
  19 H :    0.146742
  20 H :    0.136897
  21 H :    0.129272

  Mayer bond orders larger than 0.100000
B(  0-C ,  1-C ) :   1.1365 B(  0-C , 13-H ) :   0.9495 B(  0-C , 14-H ) :   0.9508
B(  0-C , 15-H ) :   0.9543 B(  1-C ,  2-C ) :   1.0230 B(  1-C , 16-H ) :   0.9040
B(  1-C , 17-H ) :   0.9114 B(  2-C ,  3-O ) :   2.0518 B(  2-C ,  4-N ) :   1.1406
B(  4-N ,  5-C ) :   1.0959 B(  4-N , 18-H ) :   0.8386 B(  5-C ,  6-C ) :   1.3640
B(  5-C , 10-C ) :   1.2660 B(  6-C ,  7-C ) :   1.3154 B(  6-C , 19-H ) :   0.9425
B(  7-C ,  8-C ) :   1.3665 B(  7-C , 20-H ) :   0.9669 B(  8-C ,  9-C ) :   1.4115
B(  8-C , 12-Cl) :   1.0277 B(  9-C , 10-C ) :   1.4012 B(  9-C , 11-Cl) :   1.0311
B( 10-C , 21-H ) :   0.9589

Dispersion correction           -0.027829683
FINAL SINGLE POINT ENERGY     -1397.094032698685

DIPOLE MOMENT
-------------

Method             : SCF
Type of density    : Electron Density
Multiplicity       :   1
Irrep              :   0
Energy             : -1397.1543833571145115 Eh
Relativity type    :
Basis              : AO
                                X                 Y                 Z
Electronic contribution:    -32.746634781      -0.636530783       1.086448491
Nuclear contribution   :     33.754829341      -0.376578647      -1.363681579
                        -----------------------------------------
Total Dipole Moment    :      1.008194559      -1.013109430      -0.277233088
                        -----------------------------------------
Magnitude (a.u.)       :      1.455920730
Magnitude (Debye)      :      3.700656400

Rotational constants in cm-1:             0.046653             0.009110             0.007806
Rotational constants in MHz :          1398.618855           273.119527           234.004519

                             ****ORCA TERMINATED NORMALLY****
TOTAL RUN TIME: 0 days 0 hours 0 minutes 16 seconds 973 msec
