                         Program Version 6.0.0  -   RELEASE  -
|  1> ! r2scan-3c def2/J RI DEFGRID2 scfconv6 printgap
|  2> %output
|  3>     printlevel normal
|  4> end
|  5> * xyz 0 1
|  6> C -1.6354907642 0.0788154608 1.5415802325
|  7> C -1.3152187786 -0.4656201342 0.1506338546
|  8> C -2.5293440104 -0.2535843069 -0.7572883467
|  9> C -0.0420512084 0.1215759577 -0.5056859551
| 10> C 0.0531342739 1.6388172582 -0.3578665681
| 11> C 1.2582097574 -0.6011782305 -0.0744052456
| 12> C 2.2742702741 -0.5883823914 -1.2194475503
| 13> C 1.9252808577 -0.0407954523 1.1810849828
| 14> H -1.8788907573 1.1367354866 1.4982085914
| 15> H -2.4967961594 -0.4482267777 1.9473775974
| 16> H -0.8055004005 -0.0627275253 2.2266220236
| 17> H -1.1621957639 -1.547967893 0.2420718524
| 18> H -2.3653621346 -0.7017766575 -1.7347394424
| 19> H -2.7297339797 0.806322989 -0.8936547725
| 20> H -3.4127420814 -0.7105004155 -0.3170412776
| 21> H -0.1490010637 -0.0881895201 -1.5772820826
| 22> H 0.9098428697 2.0156858085 -0.9113711393
| 23> H 0.1583783523 1.9333260011 0.6812492857
| 24> H -0.8378722298 2.1125366104 -0.7624971106
| 25> H 1.0001440687 -1.6486495698 0.1230189965
| 26> H 1.8670439471 -1.0715638234 -2.1047612679
| 27> H 2.5477355386 0.4315575808 -1.4791598504
| 28> H 3.178682824 -1.1176831202 -0.9281047083
| 29> H 2.7656212871 -0.6747433629 1.4573427174
| 30> H 1.2394458127 -0.0108598101 2.0217626343
| 31> H 2.3047830508 0.9617710597 1.0042514262
| 32> *
| 33>
| 34>                          ****END OF INPUT****

CARTESIAN COORDINATES (ANGSTROEM)
---------------------------------
  C     -1.635491    0.078815    1.541580
  C     -1.315219   -0.465620    0.150634
  C     -2.529344   -0.253584   -0.757288
  C     -0.042051    0.121576   -0.505686
  C      0.053134    1.638817   -0.357867
  C      1.258210   -0.601178   -0.074405
  C      2.274270   -0.588382   -1.219448
  C      1.925281   -0.040795    1.181085
  H     -1.878891    1.136735    1.498209
  H     -2.496796   -0.448227    1.947378
  H     -0.805500   -0.062728    2.226622
  H     -1.162196   -1.547968    0.242072
  H     -2.365362   -0.701777   -1.734739
  H     -2.729734    0.806323   -0.893655
  H     -3.412742   -0.710500   -0.317041
  H     -0.149001   -0.088190   -1.577282
  H      0.909843    2.015686   -0.911371
  H      0.158378    1.933326    0.681249
  H     -0.837872    2.112537   -0.762497
  H      1.000144   -1.648650    0.123019
  H      1.867044   -1.071564   -2.104761
  H      2.547736    0.431558   -1.479160
  H      3.178683   -1.117683   -0.928105
  H      2.765621   -0.674743    1.457343
  H      1.239446   -0.010860    2.021763
  H      2.304783    0.961771    1.004251

 Total Charge           Charge          ....    0
 Multiplicity           Mult            ....    1
 Number of Electrons    NEL             ....   66
 Basis Dimension        Dim             ....  242

ORBITAL ENERGIES
----------------

  NO   OCC          E(Eh)            E(eV)
   0   2.0000     -10.028833      -272.8984
   1   2.0000     -10.028794      -272.8974
   2   2.0000     -10.026104      -272.8241
   3   2.0000     -10.012396      -272.4512
   4   2.0000     -10.012010      -272.4406
   5   2.0000     -10.011976      -272.4397
   6   2.0000     -10.011841      -272.4361
   7   2.0000     -10.011813      -272.4353
   8   2.0000      -0.792692       -21.5702
   9   2.0000      -0.743686       -20.2367
  10   2.0000      -0.686049       -18.6683
  11   2.0000      -0.650722       -17.7070
  12   2.0000      -0.643000       -17.4969
  13   2.0000      -0.607194       -16.5226
  14   2.0000      -0.533105       -14.5065
  15   2.0000      -0.497290       -13.5319
  16   2.0000      -0.441515       -12.0142
  17   2.0000      -0.428387       -11.6570
  18   2.0000      -0.420449       -11.4410
  19   2.0000      -0.394268       -10.7286
  20   2.0000      -0.376969       -10.2579
  21   2.0000      -0.366331        -9.9684
  22   2.0000      -0.358075        -9.7437
  23   2.0000      -0.348438        -9.4815
  24   2.0000      -0.347147        -9.4463
  25   2.0000      -0.338735        -9.2174
  26   2.0000      -0.334903        -9.1132
  27   2.0000      -0.318824        -8.6756
  28   2.0000      -0.299786        -8.1576
  29   2.0000      -0.291453        -7.9308
  30   2.0000      -0.279502        -7.6056
  31   2.0000      -0.271966        -7.4006
  32   2.0000      -0.262712        -7.1488
  33   0.0000       0.071649         1.9497
  34   0.0000       0.101120         2.7516
  35   0.0000       0.109193         2.9713
  36   0.0000       0.112179         3.0525
  37   0.0000       0.123597         3.3633

MULLIKEN ATOMIC CHARGES
-----------------------
   0 C :   -0.516822
   1 C :   -0.031505
   2 C :   -0.502618
   3 C :   -0.046434
   4 C :   -0.569807
   5 C :   -0.043728
   6 C :   -0.501864
   7 C :   -0.509677
   8 H :    0.159150
   9 H :    0.147221
  10 H :    0.146177
  11 H :    0.148262
  12 H :    0.146498
  13 H :    0.151487
  14 H :    0.145822
  15 H :    0.149877
  16 H :    0.155451
  17 H :    0.173849
  18 H :    0.154604
  19 H :    0.147613
  20 H :    0.147127
  21 H :    0.151613
  22 H :    0.144983
  23 H :    0.148766
  24 H :    0.146716
  25 H :    0.157238
Sum of atomic charges:   -0.0000000

LOEWDIN ATOMIC CHARGES
----------------------
   0 C :   -0.414468
   1 C :   -0.237541
   2 C :   -0.416511
   3 C :   -0.224765
   4 C :   -0.411128
   5 C :   -0.237618
   6 C :   -0.416077
   7 C :   -0.414726
   8 H :    0.155154
   9 H :    0.153348
  10 H :    0.151228
  11 H :    0.156126
  12 H :    0.151826
  13 H :    0.152292
  14 H :    0.152332
  15 H :    0.162772
  16 H :    0.154685
  17 H :    0.156620
  18 H :    0.154676
  19 H :    0.156316
  20 H :    0.151606
  21 H :    0.152485
  22 H :    0.152160
  23 H :    0.153386
  24 H :    0.150834
  25 H :    0.154991

  Mayer bond orders larger than 0.100000
B(  0-C ,  1-C ) :   0.8716 B(  0-C ,  8-H ) :   0.9780 B(  0-C ,  9-H ) :   0.9715
B(  0-C , 10-H ) :   0.9791 B(  1-C ,  2-C ) :   0.9160 B(  1-C ,  3-C ) :   0.8536
B(  1-C , 11-H ) :   0.9918 B(  2-C , 12-H ) :   0.9793 B(  2-C , 13-H ) :   0.9869
B(  2-C , 14-H ) :   0.9759 B(  3-C ,  4-C ) :   0.8303 B(  3-C ,  5-C ) :   0.8546
B(  3-C , 15-H ) :   1.0182 B(  4-C , 16-H ) :   0.9771 B(  4-C , 17-H ) :   0.9783
B(  4-C , 18-H ) :   0.9761 B(  5-C ,  6-C ) :   0.9143 B(  5-C ,  7-C ) :   0.8768
B(  5-C , 19-H ) :   0.9921 B(  6-C , 20-H ) :   0.9801 B(  6-C , 21-H ) :   0.9861
B(  6-C , 22-H ) :   0.9758 B(  7-C , 23-H ) :   0.9730 B(  7-C , 24-H ) :   0.9792
B(  7-C , 25-H ) :   0.9758

Dispersion correction           -0.008084026
FINAL SINGLE POINT ENERGY      -315.581788357730

DIPOLE MOMENT
-------------

Method             : SCF
Type of density    : Electron Density
Multiplicity       :   1
Irrep              :   0
Energy             :  -315.5866877802380372 Eh
Relativity type    :
Basis              : AO
                                X                 Y                 Z
Electronic contribution:     -0.130331161      -1.297713691      -0.471484979
Nuclear contribution   :      0.125322615       1.233726698       0.462789010
                        -----------------------------------------
Total Dipole Moment    :     -0.005008546      -0.063986993      -0.008695969
                        -----------------------------------------
Magnitude (a.u.)       :      0.064769134
Magnitude (Debye)      :      0.164630055

Rotational constants in cm-1:             0.095943             0.042117             0.038298
Rotational constants in MHz :          2876.299940          1262.624833          1148.152605

                             ****ORCA TERMINATED NORMALLY****
TOTAL RUN TIME: 0 days 0 hours 0 minutes 27 seconds 759 msec
