                         Program Version 6.0.0  -   RELEASE  -
|  1> ! r2scan-3c def2/J RI DEFGRID2 scfconv6 printgap
|  2> %output
|  3>     printlevel normal
|  4> end
|  5> %cpcm
|  6>     smd true
|  7>     smdsolvent "water"
|  8> end
|  9> * xyz 0 1
| 10> C -1.6354907642 0.0788154608 1.5415802325
| 11> C -1.3152187786 -0.4656201342 0.1506338546
| 12> C -2.5293440104 -0.2535843069 -0.7572883467
| 13> C -0.0420512084 0.1215759577 -0.5056859551
| 14> C 0.0531342739 1.6388172582 -0.3578665681
| 15> C 1.2582097574 -0.6011782305 -0.0744052456
| 16> C 2.2742702741 -0.5883823914 -1.2194475503
| 17> C 1.9252808577 -0.0407954523 1.1810849828
| 18> H -1.8788907573 1.1367354866 1.4982085914
| 19> H -2.4967961594 -0.4482267777 1.9473775974
| 20> H -0.8055004005 -0.0627275253 2.2266220236
| 21> H -1.1621957639 -1.547967893 0.2420718524
| 22> H -2.3653621346 -0.7017766575 -1.7347394424
| 23> H -2.7297339797 0.806322989 -0.8936547725
| 24> H -3.4127420814 -0.7105004155 -0.3170412776
| 25> H -0.1490010637 -0.0881895201 -1.5772820826
| 26> H 0.9098428697 2.0156858085 -0.9113711393
| 27> H 0.1583783523 1.9333260011 0.6812492857
| 28> H -0.8378722298 2.1125366104 -0.7624971106
| 29> H 1.0001440687 -1.6486495698 0.1230189965
| 30> H 1.8670439471 -1.0715638234 -2.1047612679
| 31> H 2.5477355386 0.4315575808 -1.4791598504
| 32> H 3.178682824 -1.1176831202 -0.9281047083
| 33> H 2.7656212871 -0.6747433629 1.4573427174
| 34> H 1.2394458127 -0.0108598101 2.0217626343
| 35> H 2.3047830508 0.9617710597 1.0042514262
| 36> *
| 37>
| 38>                          ****END OF INPUT****

CARTESIAN COORDINATES (ANGSTROEM)
---------------------------------
  C     -1.635491    0.078815    1.541580
  C     -1.315219   -0.465620    0.150634
  C     -2.529344   -0.253584   -0.757288
  C     -0.042051    0.121576   -0.505686
  C      0.053134    1.638817   -0.357867
  C      1.258210   -0.601178   -0.074405
  C      2.274270   -0.588382   -1.219448
  C      1.925281   -0.040795    1.181085
  H     -1.878891    1.136735    1.498209
  H     -2.496796   -0.448227    1.947378
  H     -0.805500   -0.062728    2.226622
  H     -1.162196   -1.547968    0.242072
  H     -2.365362   -0.701777   -1.734739
  H     -2.729734    0.806323   -0.893655
  H     -3.412742   -0.710500   -0.317041
  H     -0.149001   -0.088190   -1.577282
  H      0.909843    2.015686   -0.911371
  H      0.158378    1.933326    0.681249
  H     -0.837872    2.112537   -0.762497
  H      1.000144   -1.648650    0.123019
  H      1.867044   -1.071564   -2.104761
  H      2.547736    0.431558   -1.479160
  H      3.178683   -1.117683   -0.928105
  H      2.765621   -0.674743    1.457343
  H      1.239446   -0.010860    2.021763
  H      2.304783    0.961771    1.004251

 Total Charge           Charge          ....    0
 Multiplicity           Mult            ....    1
 Number of Electrons    NEL             ....   66
 Basis Dimension        Dim             ....  242

ORBITAL ENERGIES
----------------

  NO   OCC          E(Eh)            E(eV)
   0   2.0000     -10.020701      -272.6771
   1   2.0000     -10.020668      -272.6762
   2   2.0000     -10.017627      -272.5935
   3   2.0000     -10.003930      -272.2208
   4   2.0000     -10.003774      -272.2165
   5   2.0000     -10.003580      -272.2113
   6   2.0000     -10.003497      -272.2090
   7   2.0000     -10.003441      -272.2075
   8   2.0000      -0.784381       -21.3441
   9   2.0000      -0.735726       -20.0201
  10   2.0000      -0.677928       -18.4474
  11   2.0000      -0.643082       -17.4991
  12   2.0000      -0.635490       -17.2926
  13   2.0000      -0.599199       -16.3050
  14   2.0000      -0.525492       -14.2994
  15   2.0000      -0.489173       -13.3111
  16   2.0000      -0.433067       -11.7844
  17   2.0000      -0.420170       -11.4334
  18   2.0000      -0.412286       -11.2189
  19   2.0000      -0.386423       -10.5151
  20   2.0000      -0.369051       -10.0424
  21   2.0000      -0.358123        -9.7450
  22   2.0000      -0.350254        -9.5309
  23   2.0000      -0.339831        -9.2473
  24   2.0000      -0.339086        -9.2270
  25   2.0000      -0.330706        -8.9990
  26   2.0000      -0.326928        -8.8962
  27   2.0000      -0.310650        -8.4532
  28   2.0000      -0.291955        -7.9445
  29   2.0000      -0.283044        -7.7020
  30   2.0000      -0.271207        -7.3799
  31   2.0000      -0.263570        -7.1721
  32   2.0000      -0.254654        -6.9295
  33   0.0000       0.080653         2.1947
  34   0.0000       0.108723         2.9585
  35   0.0000       0.117148         3.1878
  36   0.0000       0.120444         3.2774
  37   0.0000       0.130288         3.5453

MULLIKEN ATOMIC CHARGES
-----------------------
   0 C :   -0.559431
   1 C :   -0.017567
   2 C :   -0.551218
   3 C :   -0.044611
   4 C :   -0.600464
   5 C :   -0.027845
   6 C :   -0.550691
   7 C :   -0.553347
   8 H :    0.167015
   9 H :    0.157810
  10 H :    0.160139
  11 H :    0.155838
  12 H :    0.157062
  13 H :    0.165070
  14 H :    0.156347
  15 H :    0.156292
  16 H :    0.167008
  17 H :    0.178536
  18 H :    0.165675
  19 H :    0.155258
  20 H :    0.157485
  21 H :    0.165246
  22 H :    0.155384
  23 H :    0.159211
  24 H :    0.160697
  25 H :    0.165101
Sum of atomic charges:   -0.0000000

LOEWDIN ATOMIC CHARGES
----------------------
   0 C :   -0.422973
   1 C :   -0.236049
   2 C :   -0.425962
   3 C :   -0.223895
   4 C :   -0.418418
   5 C :   -0.235983
   6 C :   -0.425452
   7 C :   -0.423231
   8 H :    0.156775
   9 H :    0.155071
  10 H :    0.154766
  11 H :    0.158083
  12 H :    0.153925
  13 H :    0.155337
  14 H :    0.154102
  15 H :    0.164464
  16 H :    0.157254
  17 H :    0.157819
  18 H :    0.157056
  19 H :    0.158261
  20 H :    0.153657
  21 H :    0.155534
  22 H :    0.153888
  23 H :    0.155130
  24 H :    0.154321
  25 H :    0.156521

  Mayer bond orders larger than 0.100000
B(  0-C ,  1-C ) :   0.8637 B(  0-C ,  8-H ) :   0.9764 B(  0-C ,  9-H ) :   0.9704
B(  0-C , 10-H ) :   0.9761 B(  1-C ,  2-C ) :   0.9051 B(  1-C ,  3-C ) :   0.8530
B(  1-C , 11-H ) :   0.9931 B(  2-C , 12-H ) :   0.9769 B(  2-C , 13-H ) :   0.9847
B(  2-C , 14-H ) :   0.9746 B(  3-C ,  4-C ) :   0.8301 B(  3-C ,  5-C ) :   0.8542
B(  3-C , 15-H ) :   1.0183 B(  4-C , 16-H ) :   0.9742 B(  4-C , 17-H ) :   0.9756
B(  4-C , 18-H ) :   0.9732 B(  5-C ,  6-C ) :   0.9035 B(  5-C ,  7-C ) :   0.8667
B(  5-C , 19-H ) :   0.9938 B(  6-C , 20-H ) :   0.9775 B(  6-C , 21-H ) :   0.9842
B(  6-C , 22-H ) :   0.9746 B(  7-C , 23-H ) :   0.9717 B(  7-C , 24-H ) :   0.9765
B(  7-C , 25-H ) :   0.9748

Dispersion correction           -0.008084026
FINAL SINGLE POINT ENERGY      -315.577703530594

DIPOLE MOMENT
-------------

Method             : SCF
Type of density    : Electron Density
Multiplicity       :   1
Irrep              :   0
Energy             :  -315.5826029531023664 Eh
Relativity type    :
Basis              : AO
                                X                 Y                 Z
Electronic contribution:     -0.130620717      -1.311079379      -0.472958786
Nuclear contribution   :      0.125322615       1.233726698       0.462789010
                        -----------------------------------------
Total Dipole Moment    :     -0.005298102      -0.077352681      -0.010169775
                        -----------------------------------------
Magnitude (a.u.)       :      0.078198027
Magnitude (Debye)      :      0.198763588

Rotational constants in cm-1:             0.095943             0.042117             0.038298
Rotational constants in MHz :          2876.299940          1262.624833          1148.152605

                             ****ORCA TERMINATED NORMALLY****
TOTAL RUN TIME: 0 days 0 hours 0 minutes 33 seconds 292 msec
