                         Program Version 6.0.0  -   RELEASE  -
|  1> ! pbe def2-sv(p) def2/J RI DEFGRID1 loosescf d4 GCP(DFT/SV(P)) printgap
|  2> %output
|  3>     printlevel normal
|  4> end
|  5> * xyz 0 1
|  6> C -3.0116377949 0.7376355948 0.16767943
|  7> C -1.808904804 -0.1800138547 0.36868043
|  8> C -1.9816211106 -1.4867191087 -0.4014967644
|  9> C -0.5358032794 0.5357431254 -0.0772169387
| 10> O 0.5962304557 -0.260571266 0.2962540143
| 11> C 1.800043352 0.181932129 -0.0425988125
| 12> O 1.9783509093 1.2244296362 -0.6404420514
| 13> C 2.8829091699 -0.7608510715 0.387798724
| 14> H -3.9198305033 0.2355511989 0.4881942752
| 15> H -3.1141364505 1.0009853732 -0.8822898387
| 16> H -2.9002644033 1.6528680786 0.7432178034
| 17> H -1.7017202986 -0.4090913849 1.4333610847
| 18> H -2.1118967539 -1.2851278861 -1.4624019878
| 19> H -2.8546338064 -2.0235272566 -0.0410876155
| 20> H -1.1063964553 -2.1177057827 -0.2719519995
| 21> H -0.5194296463 0.6832653523 -1.1625768559
| 22> H -0.4406487264 1.5176742708 0.3987840388
| 23> H 2.5202924338 -1.402711597 1.1831992145
| 24> H 3.7535199381 -0.1943466384 0.703524825
| 25> H 3.1656791222 -1.3716767428 -0.4669925365
| 26> *
| 27>
| 28>                          ****END OF INPUT****

CARTESIAN COORDINATES (ANGSTROEM)
---------------------------------
  C     -3.011638    0.737636    0.167679
  C     -1.808905   -0.180014    0.368680
  C     -1.981621   -1.486719   -0.401497
  C     -0.535803    0.535743   -0.077217
  O      0.596230   -0.260571    0.296254
  C      1.800043    0.181932   -0.042599
  O      1.978351    1.224430   -0.640442
  C      2.882909   -0.760851    0.387799
  H     -3.919831    0.235551    0.488194
  H     -3.114136    1.000985   -0.882290
  H     -2.900264    1.652868    0.743218
  H     -1.701720   -0.409091    1.433361
  H     -2.111897   -1.285128   -1.462402
  H     -2.854634   -2.023527   -0.041088
  H     -1.106396   -2.117706   -0.271952
  H     -0.519430    0.683265   -1.162577
  H     -0.440649    1.517674    0.398784
  H      2.520292   -1.402712    1.183199
  H      3.753520   -0.194347    0.703525
  H      3.165679   -1.371677   -0.466993

 Total Charge           Charge          ....    0
 Multiplicity           Mult            ....    1
 Number of Electrons    NEL             ....   64
 Basis Dimension        Dim             ....  136

ORBITAL ENERGIES
----------------

  NO   OCC          E(Eh)            E(eV)
   0   2.0000     -18.798401      -511.5305
   1   2.0000     -18.728762      -509.6355
   2   2.0000     -10.006841      -272.3000
   3   2.0000      -9.942186      -270.5406
   4   2.0000      -9.904104      -269.5044
   5   2.0000      -9.893591      -269.2183
   6   2.0000      -9.883883      -268.9541
   7   2.0000      -9.878392      -268.8047
   8   2.0000      -1.005313       -27.3559
   9   2.0000      -0.906428       -24.6652
  10   2.0000      -0.740533       -20.1509
  11   2.0000      -0.684712       -18.6320
  12   2.0000      -0.623693       -16.9715
  13   2.0000      -0.618941       -16.8422
  14   2.0000      -0.521211       -14.1829
  15   2.0000      -0.506761       -13.7897
  16   2.0000      -0.447739       -12.1836
  17   2.0000      -0.432825       -11.7778
  18   2.0000      -0.418056       -11.3759
  19   2.0000      -0.407542       -11.0898
  20   2.0000      -0.383791       -10.4435
  21   2.0000      -0.382319       -10.4034
  22   2.0000      -0.362682        -9.8691
  23   2.0000      -0.354197        -9.6382
  24   2.0000      -0.345378        -9.3982
  25   2.0000      -0.323320        -8.7980
  26   2.0000      -0.316923        -8.6239
  27   2.0000      -0.304337        -8.2814
  28   2.0000      -0.295356        -8.0371
  29   2.0000      -0.287424        -7.8212
  30   2.0000      -0.255531        -6.9534
  31   2.0000      -0.215291        -5.8584
  32   0.0000      -0.018465        -0.5025
  33   0.0000       0.032277         0.8783
  34   0.0000       0.050953         1.3865
  35   0.0000       0.066179         1.8008
  36   0.0000       0.078856         2.1458

MULLIKEN ATOMIC CHARGES
-----------------------
   0 C :   -0.253154
   1 C :   -0.180234
   2 C :   -0.250651
   3 C :    0.028299
   4 O :   -0.236993
   5 C :    0.082673
   6 O :   -0.218344
   7 C :   -0.245587
   8 H :    0.107244
   9 H :    0.099622
  10 H :    0.104800
  11 H :    0.083249
  12 H :    0.092568
  13 H :    0.102549
  14 H :    0.109657
  15 H :    0.092460
  16 H :    0.099594
  17 H :    0.117700
  18 H :    0.128959
  19 H :    0.135590
Sum of atomic charges:    0.0000000

LOEWDIN ATOMIC CHARGES
----------------------
   0 C :   -0.327191
   1 C :   -0.169535
   2 C :   -0.331743
   3 C :   -0.094885
   4 O :   -0.067504
   5 C :    0.027747
   6 O :   -0.173951
   7 C :   -0.359778
   8 H :    0.122733
   9 H :    0.119451
  10 H :    0.119821
  11 H :    0.120595
  12 H :    0.117036
  13 H :    0.119458
  14 H :    0.120374
  15 H :    0.114376
  16 H :    0.114614
  17 H :    0.134978
  18 H :    0.143620
  19 H :    0.149784

  Mayer bond orders larger than 0.100000
B(  0-C ,  1-C ) :   1.1022 B(  0-C ,  8-H ) :   0.9515 B(  0-C ,  9-H ) :   0.9492
B(  0-C , 10-H ) :   0.9498 B(  1-C ,  2-C ) :   1.1049 B(  1-C ,  3-C ) :   1.0574
B(  1-C , 11-H ) :   0.8988 B(  2-C , 12-H ) :   0.9496 B(  2-C , 13-H ) :   0.9525
B(  2-C , 14-H ) :   0.9478 B(  3-C ,  4-O ) :   0.9219 B(  3-C , 15-H ) :   0.9207
B(  3-C , 16-H ) :   0.9298 B(  4-O ,  5-C ) :   1.1973 B(  5-C ,  6-O ) :   2.0461
B(  5-C ,  7-C ) :   1.0908 B(  7-C , 17-H ) :   0.9372 B(  7-C , 18-H ) :   0.9365
B(  7-C , 19-H ) :   0.9249

Dispersion correction           -0.015000136
FINAL SINGLE POINT ENERGY      -385.458556004287

DIPOLE MOMENT
-------------

Method             : SCF
Type of density    : Electron Density
Multiplicity       :   1
Irrep              :   0
Energy             :  -385.5334191381919595 Eh
Relativity type    :
Basis              : AO
                                X                 Y                 Z
Electronic contribution:      8.182964569       2.889694177      -0.283037864
Nuclear contribution   :     -8.620600905      -3.469911588       0.616882463
                        -----------------------------------------
Total Dipole Moment    :     -0.437636336      -0.580217411       0.333844599
                        -----------------------------------------
Magnitude (a.u.)       :      0.799768731
Magnitude (Debye)      :      2.032850560

Rotational constants in cm-1:             0.149228             0.033022             0.029103
Rotational constants in MHz :          4473.744745           989.979787           872.499650

                             ****ORCA TERMINATED NORMALLY****
TOTAL RUN TIME: 0 days 0 hours 0 minutes 11 seconds 614 msec
