                         Program Version 6.0.0  -   RELEASE  -
|  1> ! r2scan-3c def2/J RI DEFGRID2 scfconv6 printgap
|  2> %output
|  3>     printlevel normal
|  4> end
|  5> * xyz 0 1
|  6> C -3.0974328357 -0.2329131099 0.4739069317
|  7> C -2.095839657 -0.5793979296 -0.6223328074
|  8> C -0.8873051898 0.3585371199 -0.659143077
|  9> C 0.0435958493 0.2477994531 0.552348009
| 10> C 0.8615275607 -1.0467631265 0.5607687963
| 11> C 2.0493423348 -0.7801365663 -0.3742139582
| 12> C 2.2062542403 0.75052359 -0.4353187727
| 13> C 1.1427531978 1.3146611869 0.5131023956
| 14> H -2.6640123534 -0.3756955127 1.4603132807
| 15> H -3.4162507779 0.8032884527 0.3843234902
| 16> H -3.9751151598 -0.8703997213 0.3961624077
| 17> H -1.7629547989 -1.6107280759 -0.4926610525
| 18> H -2.6015432115 -0.5198645121 -1.5891760201
| 19> H -0.3143558708 0.1544858877 -1.5648007087
| 20> H -1.2526918496 1.386781811 -0.7238637366
| 21> H -0.550370242 0.3441692519 1.4639765612
| 22> H 1.2203446608 -1.2352812095 1.5738393555
| 23> H 0.2823138642 -1.9122287241 0.2449560516
| 24> H 2.9530080471 -1.2613225776 -0.0021364504
| 25> H 1.8504175133 -1.1831986057 -1.3671523268
| 26> H 3.2059223185 1.0660898695 -0.1396439212
| 27> H 2.0349344319 1.1107406226 -1.4496581384
| 28> H 1.563171751 1.4340635202 1.512956518
| 29> H 0.7709679106 2.2840585187 0.1839125425
| 30> *
| 31>
| 32>                          ****END OF INPUT****

CARTESIAN COORDINATES (ANGSTROEM)
---------------------------------
  C     -3.097433   -0.232913    0.473907
  C     -2.095840   -0.579398   -0.622333
  C     -0.887305    0.358537   -0.659143
  C      0.043596    0.247799    0.552348
  C      0.861528   -1.046763    0.560769
  C      2.049342   -0.780137   -0.374214
  C      2.206254    0.750524   -0.435319
  C      1.142753    1.314661    0.513102
  H     -2.664012   -0.375696    1.460313
  H     -3.416251    0.803288    0.384323
  H     -3.975115   -0.870400    0.396162
  H     -1.762955   -1.610728   -0.492661
  H     -2.601543   -0.519865   -1.589176
  H     -0.314356    0.154486   -1.564801
  H     -1.252692    1.386782   -0.723864
  H     -0.550370    0.344169    1.463977
  H      1.220345   -1.235281    1.573839
  H      0.282314   -1.912229    0.244956
  H      2.953008   -1.261323   -0.002136
  H      1.850418   -1.183199   -1.367152
  H      3.205922    1.066090   -0.139644
  H      2.034934    1.110741   -1.449658
  H      1.563172    1.434064    1.512957
  H      0.770968    2.284059    0.183913

 Total Charge           Charge          ....    0
 Multiplicity           Mult            ....    1
 Number of Electrons    NEL             ....   64
 Basis Dimension        Dim             ....  232

ORBITAL ENERGIES
----------------

  NO   OCC          E(Eh)            E(eV)
   0   2.0000     -10.023529      -272.7541
   1   2.0000     -10.021539      -272.6999
   2   2.0000     -10.018316      -272.6122
   3   2.0000     -10.017819      -272.5987
   4   2.0000     -10.017342      -272.5857
   5   2.0000     -10.016730      -272.5691
   6   2.0000     -10.016312      -272.5577
   7   2.0000     -10.013148      -272.4716
   8   2.0000      -0.806141       -21.9362
   9   2.0000      -0.746843       -20.3226
  10   2.0000      -0.682463       -18.5708
  11   2.0000      -0.671011       -18.2591
  12   2.0000      -0.629287       -17.1238
  13   2.0000      -0.557178       -15.1616
  14   2.0000      -0.524503       -14.2725
  15   2.0000      -0.500921       -13.6308
  16   2.0000      -0.456206       -12.4140
  17   2.0000      -0.443495       -12.0681
  18   2.0000      -0.414881       -11.2895
  19   2.0000      -0.396485       -10.7889
  20   2.0000      -0.387681       -10.5493
  21   2.0000      -0.369762       -10.0617
  22   2.0000      -0.353421        -9.6171
  23   2.0000      -0.322879        -8.7860
  24   2.0000      -0.315544        -8.5864
  25   2.0000      -0.311852        -8.4859
  26   2.0000      -0.301768        -8.2115
  27   2.0000      -0.298892        -8.1333
  28   2.0000      -0.283872        -7.7245
  29   2.0000      -0.281337        -7.6556
  30   2.0000      -0.273252        -7.4356
  31   2.0000      -0.267765        -7.2863
  32   0.0000       0.075782         2.0621
  33   0.0000       0.095706         2.6043
  34   0.0000       0.103801         2.8246
  35   0.0000       0.115684         3.1479
  36   0.0000       0.123768         3.3679

MULLIKEN ATOMIC CHARGES
-----------------------
   0 C :   -0.491582
   1 C :   -0.223379
   2 C :   -0.322850
   3 C :    0.017639
   4 C :   -0.362960
   5 C :   -0.342731
   6 C :   -0.320792
   7 C :   -0.358356
   8 H :    0.147958
   9 H :    0.143841
  10 H :    0.146376
  11 H :    0.131284
  12 H :    0.142546
  13 H :    0.149507
  14 H :    0.143371
  15 H :    0.158153
  16 H :    0.156867
  17 H :    0.151166
  18 H :    0.152005
  19 H :    0.161150
  20 H :    0.151069
  21 H :    0.161021
  22 H :    0.158317
  23 H :    0.150380
Sum of atomic charges:    0.0000000

LOEWDIN ATOMIC CHARGES
----------------------
   0 C :   -0.426631
   1 C :   -0.314461
   2 C :   -0.295830
   3 C :   -0.229226
   4 C :   -0.298382
   5 C :   -0.309904
   6 C :   -0.309422
   7 C :   -0.297550
   8 H :    0.148031
   9 H :    0.149960
  10 H :    0.150322
  11 H :    0.150507
  12 H :    0.151751
  13 H :    0.160983
  14 H :    0.157580
  15 H :    0.160218
  16 H :    0.157770
  17 H :    0.157564
  18 H :    0.156192
  19 H :    0.154782
  20 H :    0.155516
  21 H :    0.154930
  22 H :    0.156991
  23 H :    0.158309

  Mayer bond orders larger than 0.100000
B(  0-C ,  1-C ) :   0.8932 B(  0-C ,  8-H ) :   0.9839 B(  0-C ,  9-H ) :   0.9799
B(  0-C , 10-H ) :   0.9714 B(  1-C ,  2-C ) :   0.9112 B(  1-C , 11-H ) :   0.9863
B(  1-C , 12-H ) :   0.9693 B(  2-C ,  3-C ) :   0.9561 B(  2-C , 13-H ) :   0.9645
B(  2-C , 14-H ) :   0.9762 B(  3-C ,  4-C ) :   0.8581 B(  3-C ,  7-C ) :   0.8795
B(  3-C , 15-H ) :   0.9513 B(  4-C ,  5-C ) :   0.9052 B(  4-C , 16-H ) :   0.9747
B(  4-C , 17-H ) :   0.9751 B(  5-C ,  6-C ) :   0.9180 B(  5-C , 18-H ) :   0.9681
B(  5-C , 19-H ) :   0.9959 B(  6-C ,  7-C ) :   0.9117 B(  6-C , 20-H ) :   0.9682
B(  6-C , 21-H ) :   0.9941 B(  7-C , 22-H ) :   0.9875 B(  7-C , 23-H ) :   0.9736

Dispersion correction           -0.007170448
FINAL SINGLE POINT ENERGY      -314.380656279113

DIPOLE MOMENT
-------------

Method             : SCF
Type of density    : Electron Density
Multiplicity       :   1
Irrep              :   0
Energy             :  -314.3838386573939943 Eh
Relativity type    :
Basis              : AO
                                X                 Y                 Z
Electronic contribution:      2.478925119       0.354956262       0.100981291
Nuclear contribution   :     -2.491961581      -0.361231239      -0.101933429
                        -----------------------------------------
Total Dipole Moment    :     -0.013036462      -0.006274977      -0.000952138
                        -----------------------------------------
Magnitude (a.u.)       :      0.014499353
Magnitude (Debye)      :      0.036854427

Rotational constants in cm-1:             0.137813             0.038419             0.035939
Rotational constants in MHz :          4131.536592          1151.770830          1077.410657

                             ****ORCA TERMINATED NORMALLY****
TOTAL RUN TIME: 0 days 0 hours 0 minutes 25 seconds 550 msec
