                         Program Version 6.0.0  -   RELEASE  -
|  1> ! r2scan-3c def2/J RI DEFGRID2 scfconv6 printgap
|  2> %output
|  3>     printlevel normal
|  4> end
|  5> %cpcm
|  6>     smd true
|  7>     smdsolvent "water"
|  8> end
|  9> * xyz 0 1
| 10> C -3.0974328357 -0.2329131099 0.4739069317
| 11> C -2.095839657 -0.5793979296 -0.6223328074
| 12> C -0.8873051898 0.3585371199 -0.659143077
| 13> C 0.0435958493 0.2477994531 0.552348009
| 14> C 0.8615275607 -1.0467631265 0.5607687963
| 15> C 2.0493423348 -0.7801365663 -0.3742139582
| 16> C 2.2062542403 0.75052359 -0.4353187727
| 17> C 1.1427531978 1.3146611869 0.5131023956
| 18> H -2.6640123534 -0.3756955127 1.4603132807
| 19> H -3.4162507779 0.8032884527 0.3843234902
| 20> H -3.9751151598 -0.8703997213 0.3961624077
| 21> H -1.7629547989 -1.6107280759 -0.4926610525
| 22> H -2.6015432115 -0.5198645121 -1.5891760201
| 23> H -0.3143558708 0.1544858877 -1.5648007087
| 24> H -1.2526918496 1.386781811 -0.7238637366
| 25> H -0.550370242 0.3441692519 1.4639765612
| 26> H 1.2203446608 -1.2352812095 1.5738393555
| 27> H 0.2823138642 -1.9122287241 0.2449560516
| 28> H 2.9530080471 -1.2613225776 -0.0021364504
| 29> H 1.8504175133 -1.1831986057 -1.3671523268
| 30> H 3.2059223185 1.0660898695 -0.1396439212
| 31> H 2.0349344319 1.1107406226 -1.4496581384
| 32> H 1.563171751 1.4340635202 1.512956518
| 33> H 0.7709679106 2.2840585187 0.1839125425
| 34> *
| 35>
| 36>                          ****END OF INPUT****

CARTESIAN COORDINATES (ANGSTROEM)
---------------------------------
  C     -3.097433   -0.232913    0.473907
  C     -2.095840   -0.579398   -0.622333
  C     -0.887305    0.358537   -0.659143
  C      0.043596    0.247799    0.552348
  C      0.861528   -1.046763    0.560769
  C      2.049342   -0.780137   -0.374214
  C      2.206254    0.750524   -0.435319
  C      1.142753    1.314661    0.513102
  H     -2.664012   -0.375696    1.460313
  H     -3.416251    0.803288    0.384323
  H     -3.975115   -0.870400    0.396162
  H     -1.762955   -1.610728   -0.492661
  H     -2.601543   -0.519865   -1.589176
  H     -0.314356    0.154486   -1.564801
  H     -1.252692    1.386782   -0.723864
  H     -0.550370    0.344169    1.463977
  H      1.220345   -1.235281    1.573839
  H      0.282314   -1.912229    0.244956
  H      2.953008   -1.261323   -0.002136
  H      1.850418   -1.183199   -1.367152
  H      3.205922    1.066090   -0.139644
  H      2.034934    1.110741   -1.449658
  H      1.563172    1.434064    1.512957
  H      0.770968    2.284059    0.183913

 Total Charge           Charge          ....    0
 Multiplicity           Mult            ....    1
 Number of Electrons    NEL             ....   64
 Basis Dimension        Dim             ....  232

ORBITAL ENERGIES
----------------

  NO   OCC          E(Eh)            E(eV)
   0   2.0000     -10.016385      -272.5597
   1   2.0000     -10.014080      -272.4970
   2   2.0000     -10.011031      -272.4140
   3   2.0000     -10.010848      -272.4090
   4   2.0000     -10.010458      -272.3984
   5   2.0000     -10.009568      -272.3742
   6   2.0000     -10.009426      -272.3703
   7   2.0000     -10.005998      -272.2771
   8   2.0000      -0.799262       -21.7490
   9   2.0000      -0.739836       -20.1320
  10   2.0000      -0.675800       -18.3895
  11   2.0000      -0.664547       -18.0833
  12   2.0000      -0.622496       -16.9390
  13   2.0000      -0.550308       -14.9746
  14   2.0000      -0.518263       -14.1026
  15   2.0000      -0.494030       -13.4432
  16   2.0000      -0.449268       -12.2252
  17   2.0000      -0.436534       -11.8787
  18   2.0000      -0.407739       -11.0952
  19   2.0000      -0.389567       -10.6007
  20   2.0000      -0.380581       -10.3561
  21   2.0000      -0.362614        -9.8672
  22   2.0000      -0.346321        -9.4239
  23   2.0000      -0.315776        -8.5927
  24   2.0000      -0.308639        -8.3985
  25   2.0000      -0.304751        -8.2927
  26   2.0000      -0.295426        -8.0389
  27   2.0000      -0.292379        -7.9560
  28   2.0000      -0.276734        -7.5303
  29   2.0000      -0.274172        -7.4606
  30   2.0000      -0.265969        -7.2374
  31   2.0000      -0.260574        -7.0906
  32   0.0000       0.084028         2.2865
  33   0.0000       0.103284         2.8105
  34   0.0000       0.110828         3.0158
  35   0.0000       0.121898         3.3170
  36   0.0000       0.130731         3.5574

MULLIKEN ATOMIC CHARGES
-----------------------
   0 C :   -0.529323
   1 C :   -0.241638
   2 C :   -0.332438
   3 C :    0.013567
   4 C :   -0.386656
   5 C :   -0.355560
   6 C :   -0.338409
   7 C :   -0.379078
   8 H :    0.159205
   9 H :    0.154380
  10 H :    0.155858
  11 H :    0.143244
  12 H :    0.149778
  13 H :    0.157748
  14 H :    0.152146
  15 H :    0.167227
  16 H :    0.164939
  17 H :    0.162603
  18 H :    0.159961
  19 H :    0.168861
  20 H :    0.159034
  21 H :    0.168640
  22 H :    0.167025
  23 H :    0.158888
Sum of atomic charges:    0.0000000

LOEWDIN ATOMIC CHARGES
----------------------
   0 C :   -0.435380
   1 C :   -0.317687
   2 C :   -0.298846
   3 C :   -0.229488
   4 C :   -0.302533
   5 C :   -0.314007
   6 C :   -0.313822
   7 C :   -0.302260
   8 H :    0.150753
   9 H :    0.152308
  10 H :    0.152181
  11 H :    0.153245
  12 H :    0.153292
  13 H :    0.163110
  14 H :    0.159542
  15 H :    0.162455
  16 H :    0.159509
  17 H :    0.160343
  18 H :    0.157759
  19 H :    0.156912
  20 H :    0.157042
  21 H :    0.156697
  22 H :    0.158888
  23 H :    0.159987

  Mayer bond orders larger than 0.100000
B(  0-C ,  1-C ) :   0.8853 B(  0-C ,  8-H ) :   0.9807 B(  0-C ,  9-H ) :   0.9775
B(  0-C , 10-H ) :   0.9694 B(  1-C ,  2-C ) :   0.9045 B(  1-C , 11-H ) :   0.9873
B(  1-C , 12-H ) :   0.9692 B(  2-C ,  3-C ) :   0.9519 B(  2-C , 13-H ) :   0.9633
B(  2-C , 14-H ) :   0.9748 B(  3-C ,  4-C ) :   0.8565 B(  3-C ,  7-C ) :   0.8753
B(  3-C , 15-H ) :   0.9520 B(  4-C ,  5-C ) :   0.9036 B(  4-C , 16-H ) :   0.9733
B(  4-C , 17-H ) :   0.9737 B(  5-C ,  6-C ) :   0.9139 B(  5-C , 18-H ) :   0.9675
B(  5-C , 19-H ) :   0.9936 B(  6-C ,  7-C ) :   0.9092 B(  6-C , 20-H ) :   0.9675
B(  6-C , 21-H ) :   0.9921 B(  7-C , 22-H ) :   0.9863 B(  7-C , 23-H ) :   0.9725

Dispersion correction           -0.007170448
FINAL SINGLE POINT ENERGY      -314.378059666783

DIPOLE MOMENT
-------------

Method             : SCF
Type of density    : Electron Density
Multiplicity       :   1
Irrep              :   0
Energy             :  -314.3812420450640843 Eh
Relativity type    :
Basis              : AO
                                X                 Y                 Z
Electronic contribution:      2.471108760       0.346242534       0.100686168
Nuclear contribution   :     -2.491961581      -0.361231239      -0.101933429
                        -----------------------------------------
Total Dipole Moment    :     -0.020852821      -0.014988706      -0.001247261
                        -----------------------------------------
Magnitude (a.u.)       :      0.025711030
Magnitude (Debye)      :      0.065352246

Rotational constants in cm-1:             0.137813             0.038419             0.035939
Rotational constants in MHz :          4131.536592          1151.770830          1077.410657

                             ****ORCA TERMINATED NORMALLY****
TOTAL RUN TIME: 0 days 0 hours 0 minutes 30 seconds 880 msec
