                         Program Version 6.0.0  -   RELEASE  -
|  1> ! pbe def2-sv(p) def2/J RI DEFGRID1 loosescf d4 GCP(DFT/SV(P)) printgap
|  2> %output
|  3>     printlevel normal
|  4> end
|  5> * xyz 0 1
|  6> C 0.9738849811 -1.2014554558 0.5942977465
|  7> C 0.9316468559 0.2944637189 0.2917317708
|  8> C 2.2565126776 0.7441391289 -0.3235195492
|  9> C -0.2284341776 0.6507980576 -0.646053522
| 10> C -1.616459284 0.5093633555 -0.0137436114
| 11> O -2.0631433755 -0.8220843157 0.1386508113
| 12> H 1.7663148656 -1.4209065371 1.3062183159
| 13> H 1.1663507761 -1.7654823402 -0.3161630964
| 14> H 0.0290600403 -1.5328801311 1.0160178495
| 15> H 0.7853088274 0.8352858322 1.2337843391
| 16> H 2.4212472879 0.243287326 -1.2750959219
| 17> H 3.0831993383 0.5005057151 0.3392089431
| 18> H 2.2584755755 1.8181067532 -0.4945487265
| 19> H -0.1734583091 0.027401977 -1.5416075608
| 20> H -0.118920992 1.691734794 -0.9561751338
| 21> H -1.6125790716 0.9284425251 0.9957014055
| 22> H -2.3452384522 1.0721554729 -0.6139447118
| 23> H -2.1225887138 -1.2326749567 -0.7349808278
| 24> *
| 25>
| 26>                          ****END OF INPUT****

CARTESIAN COORDINATES (ANGSTROEM)
---------------------------------
  C      0.973885   -1.201455    0.594298
  C      0.931647    0.294464    0.291732
  C      2.256513    0.744139   -0.323520
  C     -0.228434    0.650798   -0.646054
  C     -1.616459    0.509363   -0.013744
  O     -2.063143   -0.822084    0.138651
  H      1.766315   -1.420907    1.306218
  H      1.166351   -1.765482   -0.316163
  H      0.029060   -1.532880    1.016018
  H      0.785309    0.835286    1.233784
  H      2.421247    0.243287   -1.275096
  H      3.083199    0.500506    0.339209
  H      2.258476    1.818107   -0.494549
  H     -0.173458    0.027402   -1.541608
  H     -0.118921    1.691735   -0.956175
  H     -1.612579    0.928443    0.995701
  H     -2.345238    1.072155   -0.613945
  H     -2.122589   -1.232675   -0.734981

 Total Charge           Charge          ....    0
 Multiplicity           Mult            ....    1
 Number of Electrons    NEL             ....   50
 Basis Dimension        Dim             ....  108

ORBITAL ENERGIES
----------------

  NO   OCC          E(Eh)            E(eV)
   0   2.0000     -18.741308      -509.9769
   1   2.0000      -9.927857      -270.1507
   2   2.0000      -9.891753      -269.1683
   3   2.0000      -9.883459      -268.9426
   4   2.0000      -9.869864      -268.5727
   5   2.0000      -9.861762      -268.3522
   6   2.0000      -0.918118       -24.9832
   7   2.0000      -0.727601       -19.7990
   8   2.0000      -0.649328       -17.6691
   9   2.0000      -0.604266       -16.4429
  10   2.0000      -0.560312       -15.2469
  11   2.0000      -0.501062       -13.6346
  12   2.0000      -0.448503       -12.2044
  13   2.0000      -0.411705       -11.2031
  14   2.0000      -0.397630       -10.8201
  15   2.0000      -0.389837       -10.6080
  16   2.0000      -0.366394        -9.9701
  17   2.0000      -0.338835        -9.2202
  18   2.0000      -0.332620        -9.0511
  19   2.0000      -0.319879        -8.7043
  20   2.0000      -0.292358        -7.9555
  21   2.0000      -0.286823        -7.8049
  22   2.0000      -0.281693        -7.6652
  23   2.0000      -0.265888        -7.2352
  24   2.0000      -0.209025        -5.6879
  25   0.0000       0.026560         0.7227
  26   0.0000       0.047559         1.2941
  27   0.0000       0.060347         1.6421
  28   0.0000       0.078705         2.1417
  29   0.0000       0.095661         2.6031

MULLIKEN ATOMIC CHARGES
-----------------------
   0 C :   -0.257143
   1 C :   -0.185816
   2 C :   -0.228206
   3 C :   -0.174033
   4 C :    0.035151
   5 O :   -0.431054
   6 H :    0.091858
   7 H :    0.080341
   8 H :    0.121053
   9 H :    0.070408
  10 H :    0.090121
  11 H :    0.097658
  12 H :    0.093976
  13 H :    0.066868
  14 H :    0.077774
  15 H :    0.083812
  16 H :    0.073920
  17 H :    0.293310
Sum of atomic charges:   -0.0000000

LOEWDIN ATOMIC CHARGES
----------------------
   0 C :   -0.340169
   1 C :   -0.156465
   2 C :   -0.329803
   3 C :   -0.242146
   4 C :   -0.121680
   5 O :   -0.334870
   6 H :    0.114058
   7 H :    0.111377
   8 H :    0.122705
   9 H :    0.112973
  10 H :    0.115253
  11 H :    0.116996
  12 H :    0.114328
  13 H :    0.110667
  14 H :    0.118862
  15 H :    0.112691
  16 H :    0.094874
  17 H :    0.280348

  Mayer bond orders larger than 0.100000
B(  0-C ,  1-C ) :   1.1138 B(  0-C ,  6-H ) :   0.9483 B(  0-C ,  7-H ) :   0.9500
B(  0-C ,  8-H ) :   0.9327 B(  1-C ,  2-C ) :   1.1116 B(  1-C ,  3-C ) :   1.0854
B(  1-C ,  9-H ) :   0.9049 B(  2-C , 10-H ) :   0.9497 B(  2-C , 11-H ) :   0.9517
B(  2-C , 12-H ) :   0.9492 B(  3-C ,  4-C ) :   1.0941 B(  3-C , 13-H ) :   0.9135
B(  3-C , 14-H ) :   0.9087 B(  4-C ,  5-O ) :   1.0538 B(  4-C , 15-H ) :   0.9259
B(  4-C , 16-H ) :   0.9295 B(  5-O , 17-H ) :   0.8516

Dispersion correction           -0.013002685
FINAL SINGLE POINT ENERGY      -272.300273998205

DIPOLE MOMENT
-------------

Method             : SCF
Type of density    : Electron Density
Multiplicity       :   1
Irrep              :   0
Energy             :  -272.3704651933696823 Eh
Relativity type    :
Basis              : AO
                                X                 Y                 Z
Electronic contribution:     -4.732871091      -0.866019190       0.449075156
Nuclear contribution   :      4.788889166       1.080738412      -0.975119640
                        -----------------------------------------
Total Dipole Moment    :      0.056018075       0.214719222      -0.526044484
                        -----------------------------------------
Magnitude (a.u.)       :      0.570933593
Magnitude (Debye)      :      1.451197865

Rotational constants in cm-1:             0.206014             0.070370             0.057423
Rotational constants in MHz :          6176.135592          2109.640290          1721.511591

                             ****ORCA TERMINATED NORMALLY****
TOTAL RUN TIME: 0 days 0 hours 0 minutes 8 seconds 200 msec
