                         Program Version 6.0.0  -   RELEASE  -
|  1> ! pbe def2-sv(p) def2/J RI DEFGRID1 loosescf d4 GCP(DFT/SV(P)) printgap
|  2> %output
|  3>     printlevel normal
|  4> end
|  5> * xyz 0 1
|  6> C 1.5278740652 -2.2632273192 -0.0015076514
|  7> O 1.8439726001 -0.8833651926 0.0011404271
|  8> C 0.8750897481 0.0842226448 0.0005451623
|  9> C 1.3828818888 1.3804348248 0.0005308952
| 10> C 0.5548019245 2.4857369816 8.94515e-05
| 11> C -0.8142145741 2.3042200785 -0.0004401981
| 12> C -1.3392898391 1.0235639809 -0.0004034261
| 13> C -0.5197384018 -0.0993115835 0.0001816368
| 14> O -1.0122671268 -1.3839770128 0.0004716472
| 15> C -2.4125523986 -1.5768133535 -0.0003991522
| 16> H 0.9662135536 -2.5430749853 -0.8940355506
| 17> H 0.9642582373 -2.5461393898 0.8888058115
| 18> H 2.4941285987 -2.7649683238 -0.0013077826
| 19> H 2.4561975758 1.4851802597 0.0009498524
| 20> H 0.9803330743 3.4762507118 0.0002004712
| 21> H -1.4819786552 3.1509461712 -0.0008189853
| 22> H -2.4098285376 0.9024719265 -0.0007777176
| 23> H -2.5466516046 -2.6563964904 -7.16682e-05
| 24> H -2.8720610257 -1.1507752801 -0.8961267742
| 25> H -2.8732829898 -1.1500292359 0.8943149945
| 26> *
| 27>
| 28>                          ****END OF INPUT****

CARTESIAN COORDINATES (ANGSTROEM)
---------------------------------
  C      1.527874   -2.263227   -0.001508
  O      1.843973   -0.883365    0.001140
  C      0.875090    0.084223    0.000545
  C      1.382882    1.380435    0.000531
  C      0.554802    2.485737    0.000089
  C     -0.814215    2.304220   -0.000440
  C     -1.339290    1.023564   -0.000403
  C     -0.519738   -0.099312    0.000182
  O     -1.012267   -1.383977    0.000472
  C     -2.412552   -1.576813   -0.000399
  H      0.966214   -2.543075   -0.894036
  H      0.964258   -2.546139    0.888806
  H      2.494129   -2.764968   -0.001308
  H      2.456198    1.485180    0.000950
  H      0.980333    3.476251    0.000200
  H     -1.481979    3.150946   -0.000819
  H     -2.409829    0.902472   -0.000778
  H     -2.546652   -2.656396   -0.000072
  H     -2.872061   -1.150775   -0.896127
  H     -2.873283   -1.150029    0.894315

 Total Charge           Charge          ....    0
 Multiplicity           Mult            ....    1
 Number of Electrons    NEL             ....   74
 Basis Dimension        Dim             ....  160

ORBITAL ENERGIES
----------------

  NO   OCC          E(Eh)            E(eV)
   0   2.0000     -18.787454      -511.2326
   1   2.0000     -18.776160      -510.9253
   2   2.0000      -9.949198      -270.7314
   3   2.0000      -9.945436      -270.6291
   4   2.0000      -9.944048      -270.5913
   5   2.0000      -9.926013      -270.1005
   6   2.0000      -9.887173      -269.0436
   7   2.0000      -9.881507      -268.8895
   8   2.0000      -9.880597      -268.8647
   9   2.0000      -9.879629      -268.8384
  10   2.0000      -0.971177       -26.4271
  11   2.0000      -0.949928       -25.8489
  12   2.0000      -0.767024       -20.8718
  13   2.0000      -0.681784       -18.5523
  14   2.0000      -0.676531       -18.4093
  15   2.0000      -0.636109       -17.3094
  16   2.0000      -0.603168       -16.4130
  17   2.0000      -0.541399       -14.7322
  18   2.0000      -0.526396       -14.3240
  19   2.0000      -0.487722       -13.2716
  20   2.0000      -0.452096       -12.3022
  21   2.0000      -0.439263       -11.9530
  22   2.0000      -0.425659       -11.5828
  23   2.0000      -0.411777       -11.2050
  24   2.0000      -0.403365       -10.9761
  25   2.0000      -0.395413       -10.7597
  26   2.0000      -0.377138       -10.2624
  27   2.0000      -0.364542        -9.9197
  28   2.0000      -0.340973        -9.2783
  29   2.0000      -0.329152        -8.9567
  30   2.0000      -0.312142        -8.4938
  31   2.0000      -0.295057        -8.0289
  32   2.0000      -0.286471        -7.7953
  33   2.0000      -0.271470        -7.3871
  34   2.0000      -0.262803        -7.1512
  35   2.0000      -0.207033        -5.6337
  36   2.0000      -0.172205        -4.6859
  37   0.0000      -0.021949        -0.5973
  38   0.0000      -0.011977        -0.3259
  39   0.0000       0.039403         1.0722
  40   0.0000       0.043282         1.1778
  41   0.0000       0.068390         1.8610

MULLIKEN ATOMIC CHARGES
-----------------------
   0 C :   -0.088770
   1 O :   -0.274472
   2 C :    0.184844
   3 C :   -0.146526
   4 C :   -0.039517
   5 C :   -0.047114
   6 C :   -0.208488
   7 C :    0.183577
   8 O :   -0.291294
   9 C :   -0.111052
  10 H :    0.104675
  11 H :    0.104799
  12 H :    0.111621
  13 H :    0.043725
  14 H :    0.046625
  15 H :    0.043993
  16 H :    0.035442
  17 H :    0.122733
  18 H :    0.112589
  19 H :    0.112609
Sum of atomic charges:   -0.0000000

LOEWDIN ATOMIC CHARGES
----------------------
   0 C :   -0.203694
   1 O :   -0.096990
   2 C :    0.019940
   3 C :   -0.140589
   4 C :   -0.137582
   5 C :   -0.141782
   6 C :   -0.170621
   7 C :    0.000878
   8 O :   -0.098570
   9 C :   -0.202023
  10 H :    0.107906
  11 H :    0.107927
  12 H :    0.113235
  13 H :    0.130080
  14 H :    0.122751
  15 H :    0.121401
  16 H :    0.126697
  17 H :    0.121184
  18 H :    0.109924
  19 H :    0.109929

  Mayer bond orders larger than 0.100000
B(  0-C ,  1-O ) :   0.9685 B(  0-C , 10-H ) :   0.9507 B(  0-C , 11-H ) :   0.9506
B(  0-C , 12-H ) :   0.9567 B(  1-O ,  2-C ) :   1.1551 B(  2-C ,  3-C ) :   1.3942
B(  2-C ,  7-C ) :   1.2894 B(  3-C ,  4-C ) :   1.3465 B(  3-C , 13-H ) :   0.9612
B(  4-C ,  5-C ) :   1.3555 B(  4-C , 14-H ) :   0.9716 B(  5-C ,  6-C ) :   1.3387
B(  5-C , 15-H ) :   0.9678 B(  6-C ,  7-C ) :   1.3087 B(  6-C , 16-H ) :   0.9596
B(  7-C ,  8-O ) :   1.1127 B(  8-O ,  9-C ) :   0.9879 B(  9-C , 17-H ) :   0.9576
B(  9-C , 18-H ) :   0.9404 B(  9-C , 19-H ) :   0.9404

Dispersion correction           -0.020183895
FINAL SINGLE POINT ENERGY      -460.289979248828

DIPOLE MOMENT
-------------

Method             : SCF
Type of density    : Electron Density
Multiplicity       :   1
Irrep              :   0
Energy             :  -460.3584996734205106 Eh
Relativity type    :
Basis              : AO
                                X                 Y                 Z
Electronic contribution:      3.310903493       3.032508655       0.006974362
Nuclear contribution   :     -4.043076268      -3.595387575      -0.008295192
                        -----------------------------------------
Total Dipole Moment    :     -0.732172775      -0.562878920      -0.001320830
                        -----------------------------------------
Magnitude (a.u.)       :      0.923532022
Magnitude (Debye)      :      2.347431846

Rotational constants in cm-1:             0.058782             0.045884             0.026025
Rotational constants in MHz :          1762.225967          1375.561066           780.209921

                             ****ORCA TERMINATED NORMALLY****
TOTAL RUN TIME: 0 days 0 hours 0 minutes 11 seconds 255 msec
