                         Program Version 6.0.0  -   RELEASE  -
|  1> ! pbe def2-sv(p) def2/J RI DEFGRID1 loosescf d4 GCP(DFT/SV(P)) printgap
|  2> %output
|  3>     printlevel normal
|  4> end
|  5> * xyz 0 1
|  6> C -1.7612816406 -0.5932348596 0.8224124745
|  7> C -1.1698008644 -0.5029251803 -0.5820550596
|  8> C 0.0290687454 0.4494136869 -0.7601612227
|  9> C -0.1045248026 1.7249023342 0.0696763307
| 10> C 1.3902474385 -0.232854096 -0.5423181147
| 11> C 1.6328545256 -0.8348202599 0.8369300681
| 12> H -2.544107165 -1.3491786768 0.8348118072
| 13> H -1.0139233164 -0.8672624694 1.5596538467
| 14> H -2.2055209411 0.3535381684 1.1170057939
| 15> H -1.9675513645 -0.1755906385 -1.2539951091
| 16> H -0.8663611949 -1.5006569932 -0.9074874003
| 17> H 0.0261274335 0.7532803735 -1.8154340831
| 18> H -1.0478204121 2.2195049294 -0.15017379
| 19> H 0.7045198804 2.4109127312 -0.1721110114
| 20> H -0.0658633999 1.5133140569 1.1337280431
| 21> H 1.4997091278 -1.0236815912 -1.2892197952
| 22> H 2.1683146923 0.5091007767 -0.7408731135
| 23> H 0.9685156044 -1.675103527 1.017696785
| 24> H 1.4899579151 -0.0948960121 1.6196522497
| 25> H 2.6566194515 -1.1981891553 0.9000020095
| 26> *
| 27>
| 28>                          ****END OF INPUT****

CARTESIAN COORDINATES (ANGSTROEM)
---------------------------------
  C     -1.761282   -0.593235    0.822412
  C     -1.169801   -0.502925   -0.582055
  C      0.029069    0.449414   -0.760161
  C     -0.104525    1.724902    0.069676
  C      1.390247   -0.232854   -0.542318
  C      1.632855   -0.834820    0.836930
  H     -2.544107   -1.349179    0.834812
  H     -1.013923   -0.867262    1.559654
  H     -2.205521    0.353538    1.117006
  H     -1.967551   -0.175591   -1.253995
  H     -0.866361   -1.500657   -0.907487
  H      0.026127    0.753280   -1.815434
  H     -1.047820    2.219505   -0.150174
  H      0.704520    2.410913   -0.172111
  H     -0.065863    1.513314    1.133728
  H      1.499709   -1.023682   -1.289220
  H      2.168315    0.509101   -0.740873
  H      0.968516   -1.675104    1.017697
  H      1.489958   -0.094896    1.619652
  H      2.656619   -1.198189    0.900002

 Total Charge           Charge          ....    0
 Multiplicity           Mult            ....    1
 Number of Electrons    NEL             ....   50
 Basis Dimension        Dim             ....  112

ORBITAL ENERGIES
----------------

  NO   OCC          E(Eh)            E(eV)
   0   2.0000      -9.886945      -269.0374
   1   2.0000      -9.877716      -268.7863
   2   2.0000      -9.877604      -268.7833
   3   2.0000      -9.869468      -268.5619
   4   2.0000      -9.867975      -268.5213
   5   2.0000      -9.867917      -268.5197
   6   2.0000      -0.731485       -19.9047
   7   2.0000      -0.666858       -18.1461
   8   2.0000      -0.636493       -17.3199
   9   2.0000      -0.580501       -15.7962
  10   2.0000      -0.537964       -14.6387
  11   2.0000      -0.469435       -12.7740
  12   2.0000      -0.421805       -11.4779
  13   2.0000      -0.403411       -10.9774
  14   2.0000      -0.401075       -10.9138
  15   2.0000      -0.357587        -9.7304
  16   2.0000      -0.348156        -9.4738
  17   2.0000      -0.337942        -9.1959
  18   2.0000      -0.333512        -9.0753
  19   2.0000      -0.318312        -8.6617
  20   2.0000      -0.312074        -8.4920
  21   2.0000      -0.294672        -8.0184
  22   2.0000      -0.270402        -7.3580
  23   2.0000      -0.265255        -7.2179
  24   2.0000      -0.258449        -7.0327
  25   0.0000       0.029483         0.8023
  26   0.0000       0.060048         1.6340
  27   0.0000       0.070735         1.9248
  28   0.0000       0.073794         2.0080
  29   0.0000       0.095141         2.5889

MULLIKEN ATOMIC CHARGES
-----------------------
   0 C :   -0.288822
   1 C :   -0.161197
   2 C :   -0.142461
   3 C :   -0.260277
   4 C :   -0.163204
   5 C :   -0.292143
   6 H :    0.099921
   7 H :    0.105312
   8 H :    0.101934
   9 H :    0.079712
  10 H :    0.079835
  11 H :    0.064292
  12 H :    0.099224
  13 H :    0.095486
  14 H :    0.108338
  15 H :    0.080397
  16 H :    0.078322
  17 H :    0.111745
  18 H :    0.103621
  19 H :    0.099966
Sum of atomic charges:    0.0000000

LOEWDIN ATOMIC CHARGES
----------------------
   0 C :   -0.345129
   1 C :   -0.227123
   2 C :   -0.153309
   3 C :   -0.332289
   4 C :   -0.224712
   5 C :   -0.345027
   6 H :    0.119667
   7 H :    0.116114
   8 H :    0.117146
   9 H :    0.115876
  10 H :    0.113307
  11 H :    0.114993
  12 H :    0.117875
  13 H :    0.117310
  14 H :    0.116593
  15 H :    0.112700
  16 H :    0.112182
  17 H :    0.117608
  18 H :    0.116252
  19 H :    0.119964

  Mayer bond orders larger than 0.100000
B(  0-C ,  1-C ) :   1.1692 B(  0-C ,  6-H ) :   0.9491 B(  0-C ,  7-H ) :   0.9464
B(  0-C ,  8-H ) :   0.9417 B(  1-C ,  2-C ) :   1.0706 B(  1-C ,  9-H ) :   0.9215
B(  1-C , 10-H ) :   0.9282 B(  2-C ,  3-C ) :   1.1237 B(  2-C ,  4-C ) :   1.0970
B(  2-C , 11-H ) :   0.8982 B(  3-C , 12-H ) :   0.9495 B(  3-C , 13-H ) :   0.9476
B(  3-C , 14-H ) :   0.9335 B(  4-C ,  5-C ) :   1.1600 B(  4-C , 15-H ) :   0.9203
B(  4-C , 16-H ) :   0.9248 B(  5-C , 17-H ) :   0.9426 B(  5-C , 18-H ) :   0.9496
B(  5-C , 19-H ) :   0.9469

Dispersion correction           -0.015723424
FINAL SINGLE POINT ENERGY      -236.444785515964

DIPOLE MOMENT
-------------

Method             : SCF
Type of density    : Electron Density
Multiplicity       :   1
Irrep              :   0
Energy             :  -236.5122510684819872 Eh
Relativity type    :
Basis              : AO
                                X                 Y                 Z
Electronic contribution:      0.188620611       0.116525143      -1.776248153
Nuclear contribution   :     -0.185177714      -0.117183862       1.738653045
                        -----------------------------------------
Total Dipole Moment    :      0.003442897      -0.000658719      -0.037595108
                        -----------------------------------------
Magnitude (a.u.)       :      0.037758172
Magnitude (Debye)      :      0.095973647

Rotational constants in cm-1:             0.131801             0.089477             0.073226
Rotational constants in MHz :          3951.286707          2682.459092          2195.259681

                             ****ORCA TERMINATED NORMALLY****
TOTAL RUN TIME: 0 days 0 hours 0 minutes 8 seconds 182 msec
