                         Program Version 6.0.0  -   RELEASE  -
|  1> ! pbe def2-sv(p) def2/J RI DEFGRID1 loosescf d4 GCP(DFT/SV(P)) printgap
|  2> %output
|  3>     printlevel normal
|  4> end
|  5> * xyz 0 1
|  6> C -2.2146390226 0.2820209591 -1.1284383607
|  7> C -2.1865765715 -0.5985787789 0.1148957606
|  8> C -1.2264870119 -0.1450925583 1.2196266409
|  9> C 0.2782896236 -0.0640648932 0.9124816693
| 10> C 0.8627025848 -1.1715167194 0.0100869419
| 11> C 1.8517382931 -0.4763315054 -0.9406931553
| 12> C 2.0905445428 0.9026849274 -0.3271563221
| 13> C 0.7301119604 1.2526781424 0.2648087646
| 14> H -2.3880054925 1.3210778212 -0.8569508971
| 15> H -1.2814440819 0.2123379915 -1.6797992576
| 16> H -3.0192228384 -0.0360676215 -1.788643855
| 17> H -3.1883241427 -0.6097027228 0.5531532671
| 18> H -1.9596557274 -1.6263054689 -0.1749865526
| 19> H -1.5408691425 0.8419456891 1.5686673843
| 20> H -1.3615800807 -0.8390053352 2.0538784371
| 21> H 0.7879891484 -0.1223509804 1.8814924509
| 22> H 1.3688682856 -1.9225683013 0.6166381364
| 23> H 0.088012013 -1.6810991543 -0.5569464765
| 24> H 2.7755815916 -1.0413458305 -1.0571680926
| 25> H 1.4040315907 -0.3608191614 -1.9290544711
| 26> H 2.8352979615 0.8356594214 0.4679213778
| 27> H 2.433666422 1.6313538398 -1.0604010203
| 28> H 0.7846187187 2.0615160986 0.9932209464
| 29> H 0.0482613811 1.5522655901 -0.5279208727
| 30> *
| 31>
| 32>                          ****END OF INPUT****

CARTESIAN COORDINATES (ANGSTROEM)
---------------------------------
  C     -2.214639    0.282021   -1.128438
  C     -2.186577   -0.598579    0.114896
  C     -1.226487   -0.145093    1.219627
  C      0.278290   -0.064065    0.912482
  C      0.862703   -1.171517    0.010087
  C      1.851738   -0.476332   -0.940693
  C      2.090545    0.902685   -0.327156
  C      0.730112    1.252678    0.264809
  H     -2.388005    1.321078   -0.856951
  H     -1.281444    0.212338   -1.679799
  H     -3.019223   -0.036068   -1.788644
  H     -3.188324   -0.609703    0.553153
  H     -1.959656   -1.626305   -0.174987
  H     -1.540869    0.841946    1.568667
  H     -1.361580   -0.839005    2.053878
  H      0.787989   -0.122351    1.881492
  H      1.368868   -1.922568    0.616638
  H      0.088012   -1.681099   -0.556946
  H      2.775582   -1.041346   -1.057168
  H      1.404032   -0.360819   -1.929054
  H      2.835298    0.835659    0.467921
  H      2.433666    1.631354   -1.060401
  H      0.784619    2.061516    0.993221
  H      0.048261    1.552266   -0.527921

 Total Charge           Charge          ....    0
 Multiplicity           Mult            ....    1
 Number of Electrons    NEL             ....   64
 Basis Dimension        Dim             ....  144

ORBITAL ENERGIES
----------------

  NO   OCC          E(Eh)            E(eV)
   0   2.0000      -9.883730      -268.9500
   1   2.0000      -9.880045      -268.8497
   2   2.0000      -9.877283      -268.7745
   3   2.0000      -9.875149      -268.7165
   4   2.0000      -9.874626      -268.7022
   5   2.0000      -9.872620      -268.6477
   6   2.0000      -9.871597      -268.6198
   7   2.0000      -9.870811      -268.5984
   8   2.0000      -0.757001       -20.5991
   9   2.0000      -0.702068       -19.1042
  10   2.0000      -0.643872       -17.5206
  11   2.0000      -0.629342       -17.1253
  12   2.0000      -0.587240       -15.9796
  13   2.0000      -0.522571       -14.2199
  14   2.0000      -0.502396       -13.6709
  15   2.0000      -0.470817       -12.8116
  16   2.0000      -0.435497       -11.8505
  17   2.0000      -0.420702       -11.4479
  18   2.0000      -0.394155       -10.7255
  19   2.0000      -0.387542       -10.5455
  20   2.0000      -0.368976       -10.0403
  21   2.0000      -0.354943        -9.6585
  22   2.0000      -0.345898        -9.4124
  23   2.0000      -0.316827        -8.6213
  24   2.0000      -0.305864        -8.3230
  25   2.0000      -0.297232        -8.0881
  26   2.0000      -0.289185        -7.8691
  27   2.0000      -0.288790        -7.8584
  28   2.0000      -0.274895        -7.4803
  29   2.0000      -0.266041        -7.2394
  30   2.0000      -0.262156        -7.1336
  31   2.0000      -0.254680        -6.9302
  32   0.0000       0.027290         0.7426
  33   0.0000       0.042514         1.1569
  34   0.0000       0.052490         1.4283
  35   0.0000       0.069772         1.8986
  36   0.0000       0.091283         2.4839

MULLIKEN ATOMIC CHARGES
-----------------------
   0 C :   -0.289199
   1 C :   -0.197030
   2 C :   -0.099561
   3 C :   -0.184839
   4 C :   -0.108815
   5 C :   -0.176626
   6 C :   -0.142162
   7 C :   -0.153885
   8 H :    0.102203
   9 H :    0.115262
  10 H :    0.099451
  11 H :    0.082770
  12 H :    0.093247
  13 H :    0.074099
  14 H :    0.076025
  15 H :    0.059975
  16 H :    0.075554
  17 H :    0.081570
  18 H :    0.082190
  19 H :    0.081654
  20 H :    0.075778
  21 H :    0.085088
  22 H :    0.081482
  23 H :    0.085769
Sum of atomic charges:   -0.0000000

LOEWDIN ATOMIC CHARGES
----------------------
   0 C :   -0.345667
   1 C :   -0.235843
   2 C :   -0.218989
   3 C :   -0.145011
   4 C :   -0.226241
   5 C :   -0.228926
   6 C :   -0.227291
   7 C :   -0.226074
   8 H :    0.117098
   9 H :    0.115208
  10 H :    0.119011
  11 H :    0.117189
  12 H :    0.113635
  13 H :    0.115137
  14 H :    0.115901
  15 H :    0.116912
  16 H :    0.117607
  17 H :    0.116184
  18 H :    0.115768
  19 H :    0.114657
  20 H :    0.114028
  21 H :    0.114796
  22 H :    0.114321
  23 H :    0.116591

  Mayer bond orders larger than 0.100000
B(  0-C ,  1-C ) :   1.1619 B(  0-C ,  8-H ) :   0.9483 B(  0-C ,  9-H ) :   0.9406
B(  0-C , 10-H ) :   0.9464 B(  1-C ,  2-C ) :   1.1452 B(  1-C , 11-H ) :   0.9205
B(  1-C , 12-H ) :   0.9151 B(  2-C ,  3-C ) :   1.0777 B(  2-C , 13-H ) :   0.9158
B(  2-C , 14-H ) :   0.9163 B(  3-C ,  4-C ) :   1.1254 B(  3-C ,  7-C ) :   1.1242
B(  3-C , 15-H ) :   0.8896 B(  4-C ,  5-C ) :   1.1667 B(  4-C , 16-H ) :   0.9145
B(  4-C , 17-H ) :   0.9062 B(  5-C ,  6-C ) :   1.1527 B(  5-C , 18-H ) :   0.9223
B(  5-C , 19-H ) :   0.9162 B(  6-C ,  7-C ) :   1.1112 B(  6-C , 20-H ) :   0.9190
B(  6-C , 21-H ) :   0.9281 B(  7-C , 22-H ) :   0.9189 B(  7-C , 23-H ) :   0.9080

Dispersion correction           -0.021808827
FINAL SINGLE POINT ENERGY      -313.688594884682

DIPOLE MOMENT
-------------

Method             : SCF
Type of density    : Electron Density
Multiplicity       :   1
Irrep              :   0
Energy             :  -313.7692271261006454 Eh
Relativity type    :
Basis              : AO
                                X                 Y                 Z
Electronic contribution:      2.042079280      -0.225482109       1.430993659
Nuclear contribution   :     -2.075943151       0.203479941      -1.404335781
                        -----------------------------------------
Total Dipole Moment    :     -0.033863872      -0.022002168       0.026657878
                        -----------------------------------------
Magnitude (a.u.)       :      0.048389045
Magnitude (Debye)      :      0.122995178

Rotational constants in cm-1:             0.108310             0.043803             0.043143
Rotational constants in MHz :          3247.060886          1313.189856          1293.391606

                             ****ORCA TERMINATED NORMALLY****
TOTAL RUN TIME: 0 days 0 hours 0 minutes 9 seconds 832 msec
