                         Program Version 6.0.0  -   RELEASE  -
|  1> ! r2scan-3c def2/J RI DEFGRID2 scfconv6 printgap
|  2> %output
|  3>     printlevel normal
|  4> end
|  5> * xyz 0 1
|  6> C 1.8290459625 -0.9859249641 0.0021238447
|  7> C 1.7922074172 0.5068920722 -0.3033393493
|  8> C 0.5637965339 1.2232354813 0.2603777303
|  9> C -0.7490186611 0.860770199 -0.4231671097
| 10> S -1.5200327826 -0.6933654385 0.1710729432
| 11> H 2.7577741381 -1.4194926487 -0.3613358308
| 12> H 1.0030476998 -1.5056433175 -0.4759500774
| 13> H 1.7658453307 -1.1580882258 1.0743170953
| 14> H 1.8284001544 0.6570714822 -1.3850187667
| 15> H 2.6818084754 0.9751966895 0.1241511183
| 16> H 0.7073584958 2.2989813556 0.1311036227
| 17> H 0.4874370102 1.0255201334 1.3316800011
| 18> H -1.4930184651 1.6433355825 -0.2789942418
| 19> H -0.6055682387 0.704120623 -1.4919537266
| 20> H -1.7216726601 -0.2885762373 1.4189330623
| 21> *
| 22>
| 23>                          ****END OF INPUT****

CARTESIAN COORDINATES (ANGSTROEM)
---------------------------------
  C      1.829046   -0.985925    0.002124
  C      1.792207    0.506892   -0.303339
  C      0.563797    1.223235    0.260378
  C     -0.749019    0.860770   -0.423167
  S     -1.520033   -0.693365    0.171073
  H      2.757774   -1.419493   -0.361336
  H      1.003048   -1.505643   -0.475950
  H      1.765845   -1.158088    1.074317
  H      1.828400    0.657071   -1.385019
  H      2.681808    0.975197    0.124151
  H      0.707358    2.298981    0.131104
  H      0.487437    1.025520    1.331680
  H     -1.493018    1.643336   -0.278994
  H     -0.605568    0.704121   -1.491954
  H     -1.721673   -0.288576    1.418933

 Total Charge           Charge          ....    0
 Multiplicity           Mult            ....    1
 Number of Electrons    NEL             ....   50
 Basis Dimension        Dim             ....  153

ORBITAL ENERGIES
----------------

  NO   OCC          E(Eh)            E(eV)
   0   2.0000     -88.547813     -2409.5085
   1   2.0000     -10.065882      -273.9066
   2   2.0000     -10.035278      -273.0738
   3   2.0000     -10.028266      -272.8830
   4   2.0000     -10.009765      -272.3796
   5   2.0000      -7.843259      -213.4259
   6   2.0000      -5.790544      -157.5687
   7   2.0000      -5.786688      -157.4638
   8   2.0000      -5.780159      -157.2861
   9   2.0000      -0.783264       -21.3137
  10   2.0000      -0.723871       -19.6975
  11   2.0000      -0.660654       -17.9773
  12   2.0000      -0.589927       -16.0527
  13   2.0000      -0.541944       -14.7471
  14   2.0000      -0.442393       -12.0381
  15   2.0000      -0.426158       -11.5964
  16   2.0000      -0.405854       -11.0438
  17   2.0000      -0.377843       -10.2816
  18   2.0000      -0.363774        -9.8988
  19   2.0000      -0.337401        -9.1811
  20   2.0000      -0.320258        -8.7147
  21   2.0000      -0.305590        -8.3155
  22   2.0000      -0.301913        -8.2155
  23   2.0000      -0.284737        -7.7481
  24   2.0000      -0.204176        -5.5559
  25   0.0000       0.013520         0.3679
  26   0.0000       0.052572         1.4306
  27   0.0000       0.091080         2.4784
  28   0.0000       0.113037         3.0759
  29   0.0000       0.125979         3.4281

MULLIKEN ATOMIC CHARGES
-----------------------
   0 C :   -0.446082
   1 C :   -0.267848
   2 C :   -0.203124
   3 C :   -0.270234
   4 S :   -0.260967
   5 H :    0.139677
   6 H :    0.161498
   7 H :    0.141390
   8 H :    0.132016
   9 H :    0.141391
  10 H :    0.140923
  11 H :    0.137090
  12 H :    0.170493
  13 H :    0.151826
  14 H :    0.131951
Sum of atomic charges:   -0.0000000

LOEWDIN ATOMIC CHARGES
----------------------
   0 C :   -0.431642
   1 C :   -0.316207
   2 C :   -0.320397
   3 C :   -0.361674
   4 S :   -0.098632
   5 H :    0.146428
   6 H :    0.157243
   7 H :    0.151140
   8 H :    0.150586
   9 H :    0.152122
  10 H :    0.157773
  11 H :    0.156775
  12 H :    0.162882
  13 H :    0.169113
  14 H :    0.124488

  Mayer bond orders larger than 0.100000
B(  0-C ,  1-C ) :   0.9134 B(  0-C ,  5-H ) :   0.9686 B(  0-C ,  6-H ) :   0.9705
B(  0-C ,  7-H ) :   0.9802 B(  1-C ,  2-C ) :   0.9112 B(  1-C ,  8-H ) :   0.9810
B(  1-C ,  9-H ) :   0.9703 B(  2-C ,  3-C ) :   0.8704 B(  2-C , 10-H ) :   0.9526
B(  2-C , 11-H ) :   0.9770 B(  3-C ,  4-S ) :   0.9801 B(  3-C , 12-H ) :   0.9557
B(  3-C , 13-H ) :   0.9671 B(  4-S , 14-H ) :   0.9614

Dispersion correction           -0.003840352
FINAL SINGLE POINT ENERGY      -556.551211034641

DIPOLE MOMENT
-------------

Method             : SCF
Type of density    : Electron Density
Multiplicity       :   1
Irrep              :   0
Energy             :  -556.5578882945585519 Eh
Relativity type    :
Basis              : AO
                                X                 Y                 Z
Electronic contribution:     -6.691237664      -2.160463329       0.028741325
Nuclear contribution   :      6.996321387       2.770798577       0.076702468
                        -----------------------------------------
Total Dipole Moment    :      0.305083723       0.610335248       0.105443793
                        -----------------------------------------
Magnitude (a.u.)       :      0.690437243
Magnitude (Debye)      :      1.754952004

Rotational constants in cm-1:             0.199706             0.080468             0.063057
Rotational constants in MHz :          5987.028892          2412.378865          1890.414785

                             ****ORCA TERMINATED NORMALLY****
TOTAL RUN TIME: 0 days 0 hours 0 minutes 14 seconds 326 msec
