                         Program Version 6.0.0  -   RELEASE  -
|  1> ! r2scan-3c def2/J RI DEFGRID2 scfconv6 printgap
|  2> %output
|  3>     printlevel normal
|  4> end
|  5> %cpcm
|  6>     smd true
|  7>     smdsolvent "water"
|  8> end
|  9> * xyz 0 1
| 10> C 1.8290459625 -0.9859249641 0.0021238447
| 11> C 1.7922074172 0.5068920722 -0.3033393493
| 12> C 0.5637965339 1.2232354813 0.2603777303
| 13> C -0.7490186611 0.860770199 -0.4231671097
| 14> S -1.5200327826 -0.6933654385 0.1710729432
| 15> H 2.7577741381 -1.4194926487 -0.3613358308
| 16> H 1.0030476998 -1.5056433175 -0.4759500774
| 17> H 1.7658453307 -1.1580882258 1.0743170953
| 18> H 1.8284001544 0.6570714822 -1.3850187667
| 19> H 2.6818084754 0.9751966895 0.1241511183
| 20> H 0.7073584958 2.2989813556 0.1311036227
| 21> H 0.4874370102 1.0255201334 1.3316800011
| 22> H -1.4930184651 1.6433355825 -0.2789942418
| 23> H -0.6055682387 0.704120623 -1.4919537266
| 24> H -1.7216726601 -0.2885762373 1.4189330623
| 25> *
| 26>
| 27>                          ****END OF INPUT****

CARTESIAN COORDINATES (ANGSTROEM)
---------------------------------
  C      1.829046   -0.985925    0.002124
  C      1.792207    0.506892   -0.303339
  C      0.563797    1.223235    0.260378
  C     -0.749019    0.860770   -0.423167
  S     -1.520033   -0.693365    0.171073
  H      2.757774   -1.419493   -0.361336
  H      1.003048   -1.505643   -0.475950
  H      1.765845   -1.158088    1.074317
  H      1.828400    0.657071   -1.385019
  H      2.681808    0.975197    0.124151
  H      0.707358    2.298981    0.131104
  H      0.487437    1.025520    1.331680
  H     -1.493018    1.643336   -0.278994
  H     -0.605568    0.704121   -1.491954
  H     -1.721673   -0.288576    1.418933

 Total Charge           Charge          ....    0
 Multiplicity           Mult            ....    1
 Number of Electrons    NEL             ....   50
 Basis Dimension        Dim             ....  153

ORBITAL ENERGIES
----------------

  NO   OCC          E(Eh)            E(eV)
   0   2.0000     -88.544731     -2409.4246
   1   2.0000     -10.053987      -273.5829
   2   2.0000     -10.022000      -272.7125
   3   2.0000     -10.017396      -272.5872
   4   2.0000     -10.004260      -272.2297
   5   2.0000      -7.840304      -213.3455
   6   2.0000      -5.787349      -157.4818
   7   2.0000      -5.783605      -157.3799
   8   2.0000      -5.777605      -157.2166
   9   2.0000      -0.772829       -21.0298
  10   2.0000      -0.716358       -19.4931
  11   2.0000      -0.653173       -17.7737
  12   2.0000      -0.581316       -15.8184
  13   2.0000      -0.531119       -14.4525
  14   2.0000      -0.431578       -11.7438
  15   2.0000      -0.415918       -11.3177
  16   2.0000      -0.395469       -10.7613
  17   2.0000      -0.370113       -10.0713
  18   2.0000      -0.355462        -9.6726
  19   2.0000      -0.327413        -8.9093
  20   2.0000      -0.313683        -8.5357
  21   2.0000      -0.297338        -8.0910
  22   2.0000      -0.291139        -7.9223
  23   2.0000      -0.277344        -7.5469
  24   2.0000      -0.202852        -5.5199
  25   0.0000       0.018320         0.4985
  26   0.0000       0.060077         1.6348
  27   0.0000       0.102882         2.7996
  28   0.0000       0.121645         3.3101
  29   0.0000       0.132511         3.6058

MULLIKEN ATOMIC CHARGES
-----------------------
   0 C :   -0.493032
   1 C :   -0.272755
   2 C :   -0.218816
   3 C :   -0.267478
   4 S :   -0.339962
   5 H :    0.149304
   6 H :    0.160692
   7 H :    0.152479
   8 H :    0.144741
   9 H :    0.150514
  10 H :    0.156083
  11 H :    0.150174
  12 H :    0.186309
  13 H :    0.172986
  14 H :    0.168759
Sum of atomic charges:    0.0000000

LOEWDIN ATOMIC CHARGES
----------------------
   0 C :   -0.442258
   1 C :   -0.317463
   2 C :   -0.318638
   3 C :   -0.356249
   4 S :   -0.135788
   5 H :    0.148289
   6 H :    0.154545
   7 H :    0.152014
   8 H :    0.154636
   9 H :    0.154440
  10 H :    0.163865
  11 H :    0.160281
  12 H :    0.169413
  13 H :    0.176270
  14 H :    0.136642

  Mayer bond orders larger than 0.100000
B(  0-C ,  1-C ) :   0.8998 B(  0-C ,  5-H ) :   0.9667 B(  0-C ,  6-H ) :   0.9718
B(  0-C ,  7-H ) :   0.9798 B(  1-C ,  2-C ) :   0.9025 B(  1-C ,  8-H ) :   0.9791
B(  1-C ,  9-H ) :   0.9709 B(  2-C ,  3-C ) :   0.8722 B(  2-C , 10-H ) :   0.9509
B(  2-C , 11-H ) :   0.9791 B(  3-C ,  4-S ) :   0.9641 B(  3-C , 12-H ) :   0.9501
B(  3-C , 13-H ) :   0.9607 B(  4-S , 14-H ) :   0.9550

Dispersion correction           -0.003840352
FINAL SINGLE POINT ENERGY      -556.552655499438

DIPOLE MOMENT
-------------

Method             : SCF
Type of density    : Electron Density
Multiplicity       :   1
Irrep              :   0
Energy             :  -556.5593327593550157 Eh
Relativity type    :
Basis              : AO
                                X                 Y                 Z
Electronic contribution:     -6.598879970      -1.891309677       0.041891341
Nuclear contribution   :      6.996321387       2.770798577       0.076702468
                        -----------------------------------------
Total Dipole Moment    :      0.397441417       0.879488900       0.118593809
                        -----------------------------------------
Magnitude (a.u.)       :      0.972381045
Magnitude (Debye)      :      2.471596196

Rotational constants in cm-1:             0.199706             0.080468             0.063057
Rotational constants in MHz :          5987.028892          2412.378865          1890.414785

                             ****ORCA TERMINATED NORMALLY****
TOTAL RUN TIME: 0 days 0 hours 0 minutes 16 seconds 599 msec
