                         Program Version 6.0.0  -   RELEASE  -
|  1> ! pbe def2-sv(p) def2/J RI DEFGRID1 loosescf d4 GCP(DFT/SV(P)) printgap
|  2> %output
|  3>     printlevel normal
|  4> end
|  5> * xyz 0 1
|  6> C -4.1532628722 1.3780164499 -0.3882619557
|  7> C -3.4804537282 0.1836903248 0.2649637348
|  8> O -2.0592773819 0.3842744365 0.2471265619
|  9> C -1.2677135676 -0.6675617942 0.0401998691
| 10> O -1.6964071211 -1.7997285725 -0.1200076845
| 11> C 0.160332871 -0.317906085 0.0237254069
| 12> C 0.6008326429 0.9918596422 0.2141595569
| 13> C 1.9479582651 1.2818415372 0.1937441372
| 14> C 2.882652241 0.2676966146 -0.0180222857
| 15> C 2.443630799 -1.0448828008 -0.2097281406
| 16> C 1.0987046232 -1.3308589217 -0.188108519
| 17> O 4.2084071787 0.5000604738 -0.0466797839
| 18> H -3.8402437124 1.4654975178 -1.4249901397
| 19> H -5.2296352033 1.2464534902 -0.3503059115
| 20> H -3.8842721075 2.2890290835 0.1380260876
| 21> H -3.7070520265 -0.7499516876 -0.2601801458
| 22> H -3.7844627784 0.0828718895 1.31159377
| 23> H -0.1223144765 1.7741433528 0.378281338
| 24> H 2.2799151043 2.2983048124 0.342569926
| 25> H 3.1784301023 -1.8165919394 -0.3722447711
| 26> H 0.7430543899 -2.3393905947 -0.3337818137
| 27> H 4.4072335882 1.4395327861 0.0964823331
| 28> *
| 29>
| 30>                          ****END OF INPUT****

CARTESIAN COORDINATES (ANGSTROEM)
---------------------------------
  C     -4.153263    1.378016   -0.388262
  C     -3.480454    0.183690    0.264964
  O     -2.059277    0.384274    0.247127
  C     -1.267714   -0.667562    0.040200
  O     -1.696407   -1.799729   -0.120008
  C      0.160333   -0.317906    0.023725
  C      0.600833    0.991860    0.214160
  C      1.947958    1.281842    0.193744
  C      2.882652    0.267697   -0.018022
  C      2.443631   -1.044883   -0.209728
  C      1.098705   -1.330859   -0.188109
  O      4.208407    0.500060   -0.046680
  H     -3.840244    1.465498   -1.424990
  H     -5.229635    1.246453   -0.350306
  H     -3.884272    2.289029    0.138026
  H     -3.707052   -0.749952   -0.260180
  H     -3.784463    0.082872    1.311594
  H     -0.122314    1.774143    0.378281
  H      2.279915    2.298305    0.342570
  H      3.178430   -1.816592   -0.372245
  H      0.743054   -2.339391   -0.333782
  H      4.407234    1.439533    0.096482

 Total Charge           Charge          ....    0
 Multiplicity           Mult            ....    1
 Number of Electrons    NEL             ....   88
 Basis Dimension        Dim             ....  188

ORBITAL ENERGIES
----------------

  NO   OCC          E(Eh)            E(eV)
   0   2.0000     -18.799233      -511.5531
   1   2.0000     -18.792641      -511.3738
   2   2.0000     -18.727030      -509.5884
   3   2.0000      -9.999572      -272.1022
   4   2.0000      -9.966316      -271.1973
   5   2.0000      -9.941729      -270.5282
   6   2.0000      -9.903139      -269.4781
   7   2.0000      -9.900451      -269.4050
   8   2.0000      -9.899869      -269.3891
   9   2.0000      -9.899672      -269.3838
  10   2.0000      -9.894759      -269.2501
  11   2.0000      -9.886804      -269.0336
  12   2.0000      -0.997682       -27.1483
  13   2.0000      -0.981749       -26.7147
  14   2.0000      -0.901243       -24.5241
  15   2.0000      -0.782058       -21.2809
  16   2.0000      -0.709204       -19.2984
  17   2.0000      -0.681693       -18.5498
  18   2.0000      -0.676495       -18.4084
  19   2.0000      -0.603622       -16.4254
  20   2.0000      -0.566846       -15.4247
  21   2.0000      -0.556292       -15.1375
  22   2.0000      -0.508640       -13.8408
  23   2.0000      -0.502886       -13.6842
  24   2.0000      -0.474198       -12.9036
  25   2.0000      -0.437721       -11.9110
  26   2.0000      -0.433894       -11.8069
  27   2.0000      -0.402377       -10.9492
  28   2.0000      -0.391755       -10.6602
  29   2.0000      -0.386161       -10.5080
  30   2.0000      -0.383890       -10.4462
  31   2.0000      -0.376669       -10.2497
  32   2.0000      -0.365496        -9.9457
  33   2.0000      -0.356825        -9.7097
  34   2.0000      -0.343847        -9.3566
  35   2.0000      -0.335488        -9.1291
  36   2.0000      -0.323799        -8.8110
  37   2.0000      -0.303121        -8.2484
  38   2.0000      -0.299328        -8.1451
  39   2.0000      -0.287689        -7.8284
  40   2.0000      -0.250976        -6.8294
  41   2.0000      -0.237858        -6.4724
  42   2.0000      -0.215981        -5.8771
  43   2.0000      -0.206300        -5.6137
  44   0.0000      -0.062383        -1.6975
  45   0.0000      -0.041119        -1.1189
  46   0.0000       0.012876         0.3504
  47   0.0000       0.032007         0.8710
  48   0.0000       0.043321         1.1788

MULLIKEN ATOMIC CHARGES
-----------------------
   0 C :   -0.283421
   1 C :   -0.022255
   2 O :   -0.252403
   3 C :    0.155693
   4 O :   -0.204213
   5 C :    0.040467
   6 C :   -0.091194
   7 C :   -0.151835
   8 C :    0.247335
   9 C :   -0.112154
  10 C :   -0.092922
  11 O :   -0.316401
  12 H :    0.114364
  13 H :    0.110553
  14 H :    0.111814
  15 H :    0.115898
  16 H :    0.102225
  17 H :    0.056488
  18 H :    0.031293
  19 H :    0.051974
  20 H :    0.066657
  21 H :    0.322034
Sum of atomic charges:    0.0000000

LOEWDIN ATOMIC CHARGES
----------------------
   0 C :   -0.351376
   1 C :   -0.111232
   2 O :   -0.071386
   3 C :    0.045667
   4 O :   -0.176936
   5 C :   -0.099335
   6 C :   -0.091343
   7 C :   -0.176146
   8 C :    0.031027
   9 C :   -0.145508
  10 C :   -0.079032
  11 O :   -0.215544
  12 H :    0.126175
  13 H :    0.129459
  14 H :    0.123953
  15 H :    0.120600
  16 H :    0.115186
  17 H :    0.130971
  18 H :    0.121772
  19 H :    0.133711
  20 H :    0.137470
  21 H :    0.301845

  Mayer bond orders larger than 0.100000
B(  0-C ,  1-C ) :   1.1603 B(  0-C , 12-H ) :   0.9523 B(  0-C , 13-H ) :   0.9449
B(  0-C , 14-H ) :   0.9493 B(  1-C ,  2-O ) :   0.9131 B(  1-C , 15-H ) :   0.9102
B(  1-C , 16-H ) :   0.9356 B(  2-O ,  3-C ) :   1.2245 B(  3-C ,  4-O ) :   2.0564
B(  3-C ,  5-C ) :   0.9577 B(  5-C ,  6-C ) :   1.3528 B(  5-C , 10-C ) :   1.3548
B(  6-C ,  7-C ) :   1.3589 B(  6-C , 17-H ) :   0.9551 B(  7-C ,  8-C ) :   1.2896
B(  7-C , 18-H ) :   0.9588 B(  8-C ,  9-C ) :   1.3273 B(  8-C , 11-O ) :   1.2132
B(  9-C , 10-C ) :   1.3648 B(  9-C , 19-H ) :   0.9689 B( 10-C , 20-H ) :   0.9595
B( 11-O , 21-H ) :   0.8382

Dispersion correction           -0.022278227
FINAL SINGLE POINT ENERGY      -573.463393915538

DIPOLE MOMENT
-------------

Method             : SCF
Type of density    : Electron Density
Multiplicity       :   1
Irrep              :   0
Energy             :  -573.5389919829823384 Eh
Relativity type    :
Basis              : AO
                                X                 Y                 Z
Electronic contribution:      9.641823178      -3.961925145       0.602631686
Nuclear contribution   :     -9.336862374       5.324537707      -0.444016833
                        -----------------------------------------
Total Dipole Moment    :      0.304960804       1.362612562       0.158614853
                        -----------------------------------------
Magnitude (a.u.)       :      1.405301660
Magnitude (Debye)      :      3.571992950

Rotational constants in cm-1:             0.086905             0.014827             0.012855
Rotational constants in MHz :          2605.352811           444.513937           385.372483

                             ****ORCA TERMINATED NORMALLY****
TOTAL RUN TIME: 0 days 0 hours 0 minutes 12 seconds 795 msec
