                         Program Version 6.0.0  -   RELEASE  -
|  1> ! pbe def2-sv(p) def2/J RI DEFGRID1 loosescf d4 GCP(DFT/SV(P)) printgap
|  2> %output
|  3>     printlevel normal
|  4> end
|  5> * xyz 0 1
|  6> C -2.5272868711 0.1058945267 0.3134784736
|  7> C -1.2635658513 0.6802656663 -0.315629658
|  8> C -0.0011436426 -0.0180328696 0.19941226
|  9> C 1.2652753332 0.6882911674 -0.3064423698
| 10> C 2.5451933896 0.138215136 0.3156387097
| 11> O -0.0625305309 -1.3667049854 -0.2354941769
| 12> H -3.4093440399 0.5818153841 -0.1063757822
| 13> H -2.5804517001 -0.9627581819 0.1221854301
| 14> H -2.5236186404 0.2660077833 1.3894020336
| 15> H -1.3031474868 0.549167214 -1.3982004901
| 16> H -1.1913526869 1.746289376 -0.0972504222
| 17> H -0.0078606243 0.0076136582 1.3020691293
| 18> H 1.3071084528 0.5836509088 -1.3923545681
| 19> H 1.1783136079 1.7496108621 -0.0702166985
| 20> H 2.4925993822 0.1869168872 1.4014264076
| 21> H 2.7155693181 -0.8939667395 0.018791302
| 22> H 3.3992590731 0.7247111214 -0.0127211127
| 23> H 0.6954022624 -1.8470102024 0.1211547983
| 24> *
| 25>
| 26>                          ****END OF INPUT****

CARTESIAN COORDINATES (ANGSTROEM)
---------------------------------
  C     -2.527287    0.105895    0.313478
  C     -1.263566    0.680266   -0.315630
  C     -0.001144   -0.018033    0.199412
  C      1.265275    0.688291   -0.306442
  C      2.545193    0.138215    0.315639
  O     -0.062531   -1.366705   -0.235494
  H     -3.409344    0.581815   -0.106376
  H     -2.580452   -0.962758    0.122185
  H     -2.523619    0.266008    1.389402
  H     -1.303147    0.549167   -1.398200
  H     -1.191353    1.746289   -0.097250
  H     -0.007861    0.007614    1.302069
  H      1.307108    0.583651   -1.392355
  H      1.178314    1.749611   -0.070217
  H      2.492599    0.186917    1.401426
  H      2.715569   -0.893967    0.018791
  H      3.399259    0.724711   -0.012721
  H      0.695402   -1.847010    0.121155

 Total Charge           Charge          ....    0
 Multiplicity           Mult            ....    1
 Number of Electrons    NEL             ....   50
 Basis Dimension        Dim             ....  108

ORBITAL ENERGIES
----------------

  NO   OCC          E(Eh)            E(eV)
   0   2.0000     -18.739636      -509.9314
   1   2.0000      -9.932266      -270.2707
   2   2.0000      -9.882013      -268.9032
   3   2.0000      -9.881083      -268.8779
   4   2.0000      -9.877676      -268.7852
   5   2.0000      -9.864259      -268.4201
   6   2.0000      -0.917020       -24.9534
   7   2.0000      -0.710748       -19.3404
   8   2.0000      -0.677797       -18.4438
   9   2.0000      -0.602295       -16.3893
  10   2.0000      -0.533710       -14.5230
  11   2.0000      -0.511962       -13.9312
  12   2.0000      -0.466436       -12.6924
  13   2.0000      -0.412771       -11.2321
  14   2.0000      -0.390027       -10.6132
  15   2.0000      -0.374142       -10.1809
  16   2.0000      -0.368743       -10.0340
  17   2.0000      -0.349591        -9.5129
  18   2.0000      -0.321446        -8.7470
  19   2.0000      -0.310050        -8.4369
  20   2.0000      -0.301239        -8.1971
  21   2.0000      -0.294509        -8.0140
  22   2.0000      -0.291777        -7.9396
  23   2.0000      -0.261610        -7.1188
  24   2.0000      -0.211663        -5.7597
  25   0.0000       0.021543         0.5862
  26   0.0000       0.057168         1.5556
  27   0.0000       0.067195         1.8285
  28   0.0000       0.070377         1.9150
  29   0.0000       0.090128         2.4525

MULLIKEN ATOMIC CHARGES
-----------------------
   0 C :   -0.258884
   1 C :   -0.153186
   2 C :   -0.000531
   3 C :   -0.151760
   4 C :   -0.280789
   5 O :   -0.427350
   6 H :    0.098307
   7 H :    0.111998
   8 H :    0.088471
   9 H :    0.085655
  10 H :    0.080241
  11 H :    0.047729
  12 H :    0.087072
  13 H :    0.078167
  14 H :    0.099864
  15 H :    0.088276
  16 H :    0.110053
  17 H :    0.296666
Sum of atomic charges:   -0.0000000

LOEWDIN ATOMIC CHARGES
----------------------
   0 C :   -0.342161
   1 C :   -0.234843
   2 C :   -0.051277
   3 C :   -0.247795
   4 C :   -0.347419
   5 O :   -0.330417
   6 H :    0.117072
   7 H :    0.123323
   8 H :    0.113806
   9 H :    0.120882
  10 H :    0.116469
  11 H :    0.091812
  12 H :    0.119863
  13 H :    0.118286
  14 H :    0.117141
  15 H :    0.109826
  16 H :    0.124513
  17 H :    0.280917

  Mayer bond orders larger than 0.100000
B(  0-C ,  1-C ) :   1.1611 B(  0-C ,  6-H ) :   0.9534 B(  0-C ,  7-H ) :   0.9479
B(  0-C ,  8-H ) :   0.9536 B(  1-C ,  2-C ) :   1.0855 B(  1-C ,  9-H ) :   0.9115
B(  1-C , 10-H ) :   0.9233 B(  2-C ,  3-C ) :   1.0717 B(  2-C ,  5-O ) :   1.0447
B(  2-C , 11-H ) :   0.9015 B(  3-C ,  4-C ) :   1.1500 B(  3-C , 12-H ) :   0.9122
B(  3-C , 13-H ) :   0.9110 B(  4-C , 14-H ) :   0.9530 B(  4-C , 15-H ) :   0.9440
B(  4-C , 16-H ) :   0.9513 B(  5-O , 17-H ) :   0.8472

Dispersion correction           -0.012456914
FINAL SINGLE POINT ENERGY      -272.306195457446

DIPOLE MOMENT
-------------

Method             : SCF
Type of density    : Electron Density
Multiplicity       :   1
Irrep              :   0
Energy             :  -272.3763562949441734 Eh
Relativity type    :
Basis              : AO
                                X                 Y                 Z
Electronic contribution:     -0.238836702      -2.341755938      -0.906993425
Nuclear contribution   :      0.723781767       2.505299067       1.195393867
                        -----------------------------------------
Total Dipole Moment    :      0.484945065       0.163543129       0.288400442
                        -----------------------------------------
Magnitude (a.u.)       :      0.587446070
Magnitude (Debye)      :      1.493169247

Rotational constants in cm-1:             0.240375             0.063467             0.055377
Rotational constants in MHz :          7206.248153          1902.678043          1660.164016

                             ****ORCA TERMINATED NORMALLY****
TOTAL RUN TIME: 0 days 0 hours 0 minutes 8 seconds 19 msec
