                         Program Version 6.0.0  -   RELEASE  -
|  1> ! pbe def2-sv(p) def2/J RI DEFGRID1 loosescf d4 GCP(DFT/SV(P)) printgap
|  2> %output
|  3>     printlevel normal
|  4> end
|  5> * xyz 0 1
|  6> C -2.0591887893 0.3285350125 0.7176080373
|  7> C -1.5223524284 0.2264770953 -0.7050199501
|  8> C -0.2399654952 -0.604309603 -0.7754654505
|  9> C 0.9369818187 -0.046648961 -0.0135791012
| 10> C 1.1901543398 1.246040626 0.1149000612
| 11> C 1.8438505376 -1.0874008892 0.5726475368
| 12> H -2.2867944046 -0.6603467671 1.109632786
| 13> H -2.9679665492 0.9250595091 0.7410954816
| 14> H -1.3222027626 0.7941683791 1.3675235476
| 15> H -2.274847485 -0.2460712043 -1.3404658222
| 16> H -1.3419481096 1.2261527015 -1.1020524972
| 17> H -0.4542895298 -1.6072560027 -0.3987937025
| 18> H 0.0550708701 -0.7099631256 -1.8244411472
| 19> H 2.0544790722 1.5986402334 0.6527390854
| 20> H 0.5568071777 2.0087958613 -0.3028234032
| 21> H 1.3132014514 -1.6601736331 1.3323656961
| 22> H 2.1662458605 -1.7817473779 -0.2019759736
| 23> H 2.7209128493 -0.6343654226 1.0267101836
| 24> *
| 25>
| 26>                          ****END OF INPUT****

CARTESIAN COORDINATES (ANGSTROEM)
---------------------------------
  C     -2.059189    0.328535    0.717608
  C     -1.522352    0.226477   -0.705020
  C     -0.239965   -0.604310   -0.775465
  C      0.936982   -0.046649   -0.013579
  C      1.190154    1.246041    0.114900
  C      1.843851   -1.087401    0.572648
  H     -2.286794   -0.660347    1.109633
  H     -2.967967    0.925060    0.741095
  H     -1.322203    0.794168    1.367524
  H     -2.274847   -0.246071   -1.340466
  H     -1.341948    1.226153   -1.102052
  H     -0.454290   -1.607256   -0.398794
  H      0.055071   -0.709963   -1.824441
  H      2.054479    1.598640    0.652739
  H      0.556807    2.008796   -0.302823
  H      1.313201   -1.660174    1.332366
  H      2.166246   -1.781747   -0.201976
  H      2.720913   -0.634365    1.026710

 Total Charge           Charge          ....    0
 Multiplicity           Mult            ....    1
 Number of Electrons    NEL             ....   48
 Basis Dimension        Dim             ....  108

ORBITAL ENERGIES
----------------

  NO   OCC          E(Eh)            E(eV)
   0   2.0000      -9.896036      -269.2848
   1   2.0000      -9.884998      -268.9845
   2   2.0000      -9.883240      -268.9366
   3   2.0000      -9.877055      -268.7683
   4   2.0000      -9.867917      -268.5197
   5   2.0000      -9.864913      -268.4379
   6   2.0000      -0.737263       -20.0619
   7   2.0000      -0.682885       -18.5822
   8   2.0000      -0.609362       -16.5816
   9   2.0000      -0.606243       -16.4967
  10   2.0000      -0.527906       -14.3651
  11   2.0000      -0.456190       -12.4135
  12   2.0000      -0.421796       -11.4776
  13   2.0000      -0.404511       -11.0073
  14   2.0000      -0.390451       -10.6247
  15   2.0000      -0.372688       -10.1414
  16   2.0000      -0.362219        -9.8565
  17   2.0000      -0.336008        -9.1432
  18   2.0000      -0.322537        -8.7767
  19   2.0000      -0.313165        -8.5217
  20   2.0000      -0.297307        -8.0901
  21   2.0000      -0.286533        -7.7970
  22   2.0000      -0.275192        -7.4884
  23   2.0000      -0.212476        -5.7818
  24   0.0000      -0.009986        -0.2717
  25   0.0000       0.036817         1.0018
  26   0.0000       0.066053         1.7974
  27   0.0000       0.074877         2.0375
  28   0.0000       0.087677         2.3858

MULLIKEN ATOMIC CHARGES
-----------------------
   0 C :   -0.283097
   1 C :   -0.190598
   2 C :   -0.106013
   3 C :   -0.107898
   4 C :   -0.231184
   5 C :   -0.223535
   6 H :    0.092933
   7 H :    0.101287
   8 H :    0.113728
   9 H :    0.083754
  10 H :    0.094149
  11 H :    0.074188
  12 H :    0.101379
  13 H :    0.081143
  14 H :    0.086010
  15 H :    0.108923
  16 H :    0.108594
  17 H :    0.096235
Sum of atomic charges:   -0.0000000

LOEWDIN ATOMIC CHARGES
----------------------
   0 C :   -0.344186
   1 C :   -0.230520
   2 C :   -0.215864
   3 C :   -0.059420
   4 C :   -0.272653
   5 C :   -0.322593
   6 H :    0.115049
   7 H :    0.118154
   8 H :    0.121041
   9 H :    0.116451
  10 H :    0.115375
  11 H :    0.117026
  12 H :    0.132068
  13 H :    0.117321
  14 H :    0.115797
  15 H :    0.127957
  16 H :    0.127029
  17 H :    0.121968

  Mayer bond orders larger than 0.100000
B(  0-C ,  1-C ) :   1.1568 B(  0-C ,  6-H ) :   0.9548 B(  0-C ,  7-H ) :   0.9534
B(  0-C ,  8-H ) :   0.9484 B(  1-C ,  2-C ) :   1.1299 B(  1-C ,  9-H ) :   0.9240
B(  1-C , 10-H ) :   0.9173 B(  2-C ,  3-C ) :   1.0511 B(  2-C , 11-H ) :   0.9151
B(  2-C , 12-H ) :   0.8944 B(  3-C ,  4-C ) :   2.0449 B(  3-C ,  5-C ) :   1.1215
B(  4-C , 13-H ) :   0.9030 B(  4-C , 14-H ) :   0.9085 B(  5-C , 15-H ) :   0.9280
B(  5-C , 16-H ) :   0.9355 B(  5-C , 17-H ) :   0.9427

Dispersion correction           -0.013783816
FINAL SINGLE POINT ENERGY      -235.243091944402

DIPOLE MOMENT
-------------

Method             : SCF
Type of density    : Electron Density
Multiplicity       :   1
Irrep              :   0
Energy             :  -235.3006407272860940 Eh
Relativity type    :
Basis              : AO
                                X                 Y                 Z
Electronic contribution:      1.630942996       0.513343920      -1.056169722
Nuclear contribution   :     -1.671179430      -0.700908032       0.993997094
                        -----------------------------------------
Total Dipole Moment    :     -0.040236434      -0.187564112      -0.062172628
                        -----------------------------------------
Magnitude (a.u.)       :      0.201654909
Magnitude (Debye)      :      0.512566045

Rotational constants in cm-1:             0.186196             0.073240             0.067375
Rotational constants in MHz :          5582.020388          2195.685684          2019.838818

                             ****ORCA TERMINATED NORMALLY****
TOTAL RUN TIME: 0 days 0 hours 0 minutes 7 seconds 909 msec
