                         Program Version 6.0.0  -   RELEASE  -
|  1> ! r2scan-3c def2/J RI DEFGRID2 scfconv6 printgap
|  2> %output
|  3>     printlevel normal
|  4> end
|  5> * xyz 0 1
|  6> C 2.3999913818 0.6073872454 -0.6567414571
|  7> C 1.0761738033 -0.0922728236 -0.3361184886
|  8> H 0.7246977453 -0.6136834706 -1.231446703
|  9> C 0.0315750365 0.9404058176 0.1148539209
| 10> C -1.430996573 0.4685958858 0.1566304582
| 11> C -1.9171019226 -0.0181750563 -1.2076258911
| 12> C -1.6612621929 -0.6052903436 1.2175858655
| 13> O 1.27715249 -1.1259053738 0.6124109197
| 14> H 2.2801665236 1.2683296378 -1.5097143112
| 15> H 2.7353098833 1.1937245278 0.1965406406
| 16> H 3.159068221 -0.134625285 -0.8926777248
| 17> H 0.3099168669 1.2993562484 1.1095821373
| 18> H 0.0943675211 1.7871110019 -0.5714454712
| 19> H -2.0291677543 1.3474571993 0.4295751422
| 20> H -1.4537242625 -0.9667402515 -1.4667357009
| 21> H -1.6835427052 0.708612867 -1.9822257629
| 22> H -2.9943311987 -0.1658166934 -1.1878139399
| 23> H -1.0529378168 -1.4813072954 1.0089016558
| 24> H -1.4017553004 -0.2304979842 2.2051292737
| 25> H -2.7072044886 -0.9033784033 1.2291521555
| 26> H 1.6402200865 -0.7355938152 1.4196082235
| 27> *
| 28>
| 29>                          ****END OF INPUT****

CARTESIAN COORDINATES (ANGSTROEM)
---------------------------------
  C      2.399991    0.607387   -0.656741
  C      1.076174   -0.092273   -0.336118
  H      0.724698   -0.613683   -1.231447
  C      0.031575    0.940406    0.114854
  C     -1.430997    0.468596    0.156630
  C     -1.917102   -0.018175   -1.207626
  C     -1.661262   -0.605290    1.217586
  O      1.277152   -1.125905    0.612411
  H      2.280167    1.268330   -1.509714
  H      2.735310    1.193725    0.196541
  H      3.159068   -0.134625   -0.892678
  H      0.309917    1.299356    1.109582
  H      0.094368    1.787111   -0.571445
  H     -2.029168    1.347457    0.429575
  H     -1.453724   -0.966740   -1.466736
  H     -1.683543    0.708613   -1.982226
  H     -2.994331   -0.165817   -1.187814
  H     -1.052938   -1.481307    1.008902
  H     -1.401755   -0.230498    2.205129
  H     -2.707204   -0.903378    1.229152
  H      1.640220   -0.735594    1.419608

 Total Charge           Charge          ....    0
 Multiplicity           Mult            ....    1
 Number of Electrons    NEL             ....   58
 Basis Dimension        Dim             ....  208

ORBITAL ENERGIES
----------------

  NO   OCC          E(Eh)            E(eV)
   0   2.0000     -18.944144      -515.4964
   1   2.0000     -10.079782      -274.2848
   2   2.0000     -10.031290      -272.9653
   3   2.0000     -10.023926      -272.7649
   4   2.0000     -10.019145      -272.6348
   5   2.0000     -10.013082      -272.4698
   6   2.0000     -10.004249      -272.2294
   7   2.0000      -0.983732       -26.7687
   8   2.0000      -0.774168       -21.0662
   9   2.0000      -0.720725       -19.6119
  10   2.0000      -0.648371       -17.6431
  11   2.0000      -0.643287       -17.5047
  12   2.0000      -0.578834       -15.7509
  13   2.0000      -0.522693       -14.2232
  14   2.0000      -0.445895       -12.1334
  15   2.0000      -0.438284       -11.9263
  16   2.0000      -0.428131       -11.6500
  17   2.0000      -0.395126       -10.7519
  18   2.0000      -0.387645       -10.5484
  19   2.0000      -0.382782       -10.4160
  20   2.0000      -0.353313        -9.6141
  21   2.0000      -0.343924        -9.3587
  22   2.0000      -0.339838        -9.2475
  23   2.0000      -0.324255        -8.8234
  24   2.0000      -0.304788        -8.2937
  25   2.0000      -0.294135        -8.0038
  26   2.0000      -0.290365        -7.9012
  27   2.0000      -0.276994        -7.5374
  28   2.0000      -0.227538        -6.1916
  29   0.0000       0.060731         1.6526
  30   0.0000       0.093705         2.5499
  31   0.0000       0.108989         2.9657
  32   0.0000       0.113512         3.0888
  33   0.0000       0.130403         3.5485

MULLIKEN ATOMIC CHARGES
-----------------------
   0 C :   -0.490797
   1 C :   -0.036189
   2 H :    0.144281
   3 C :   -0.295144
   4 C :    0.010702
   5 C :   -0.520749
   6 C :   -0.518190
   7 O :   -0.394080
   8 H :    0.146819
   9 H :    0.139470
  10 H :    0.163781
  11 H :    0.144046
  12 H :    0.148162
  13 H :    0.149079
  14 H :    0.155738
  15 H :    0.148329
  16 H :    0.148475
  17 H :    0.190516
  18 H :    0.138244
  19 H :    0.137809
  20 H :    0.289697
Sum of atomic charges:   -0.0000000

LOEWDIN ATOMIC CHARGES
----------------------
   0 C :   -0.400027
   1 C :    0.042782
   2 H :    0.181643
   3 C :   -0.285805
   4 C :   -0.242058
   5 C :   -0.419145
   6 C :   -0.417454
   7 O :   -0.611989
   8 H :    0.156931
   9 H :    0.153965
  10 H :    0.161272
  11 H :    0.162264
  12 H :    0.164542
  13 H :    0.154164
  14 H :    0.153161
  15 H :    0.152627
  16 H :    0.154370
  17 H :    0.171891
  18 H :    0.151191
  19 H :    0.149045
  20 H :    0.266631

  Mayer bond orders larger than 0.100000
B(  0-C ,  1-C ) :   0.9375 B(  0-C ,  8-H ) :   0.9743 B(  0-C ,  9-H ) :   0.9713
B(  0-C , 10-H ) :   0.9771 B(  1-C ,  2-H ) :   0.9583 B(  1-C ,  3-C ) :   0.9127
B(  1-C ,  7-O ) :   0.9307 B(  3-C ,  4-C ) :   0.8929 B(  3-C , 11-H ) :   0.9752
B(  3-C , 12-H ) :   0.9750 B(  4-C ,  5-C ) :   0.8977 B(  4-C ,  6-C ) :   0.9073
B(  4-C , 13-H ) :   0.9714 B(  5-C , 14-H ) :   0.9797 B(  5-C , 15-H ) :   0.9782
B(  5-C , 16-H ) :   0.9689 B(  6-C , 17-H ) :   0.9751 B(  6-C , 18-H ) :   0.9769
B(  6-C , 19-H ) :   0.9710 B(  7-O , 20-H ) :   0.8964

Dispersion correction           -0.005662085
FINAL SINGLE POINT ENERGY      -312.201098461059

DIPOLE MOMENT
-------------

Method             : SCF
Type of density    : Electron Density
Multiplicity       :   1
Irrep              :   0
Energy             :  -312.2066521703578132 Eh
Relativity type    :
Basis              : AO
                                X                 Y                 Z
Electronic contribution:      2.331638585      -1.621011619       1.219667249
Nuclear contribution   :     -2.212858978       2.209504272      -1.157583752
                        -----------------------------------------
Total Dipole Moment    :      0.118779607       0.588492653       0.062083498
                        -----------------------------------------
Magnitude (a.u.)       :      0.603561561
Magnitude (Debye)      :      1.534131570

Rotational constants in cm-1:             0.131250             0.055234             0.047171
Rotational constants in MHz :          3934.783344          1655.882493          1414.163495

                             ****ORCA TERMINATED NORMALLY****
TOTAL RUN TIME: 0 days 0 hours 0 minutes 30 seconds 785 msec
