                         Program Version 6.0.0  -   RELEASE  -
|  1> ! r2scan-3c def2/J RI DEFGRID2 scfconv6 printgap
|  2> %output
|  3>     printlevel normal
|  4> end
|  5> %cpcm
|  6>     smd true
|  7>     smdsolvent "water"
|  8> end
|  9> * xyz 0 1
| 10> C 2.3999913818 0.6073872454 -0.6567414571
| 11> C 1.0761738033 -0.0922728236 -0.3361184886
| 12> H 0.7246977453 -0.6136834706 -1.231446703
| 13> C 0.0315750365 0.9404058176 0.1148539209
| 14> C -1.430996573 0.4685958858 0.1566304582
| 15> C -1.9171019226 -0.0181750563 -1.2076258911
| 16> C -1.6612621929 -0.6052903436 1.2175858655
| 17> O 1.27715249 -1.1259053738 0.6124109197
| 18> H 2.2801665236 1.2683296378 -1.5097143112
| 19> H 2.7353098833 1.1937245278 0.1965406406
| 20> H 3.159068221 -0.134625285 -0.8926777248
| 21> H 0.3099168669 1.2993562484 1.1095821373
| 22> H 0.0943675211 1.7871110019 -0.5714454712
| 23> H -2.0291677543 1.3474571993 0.4295751422
| 24> H -1.4537242625 -0.9667402515 -1.4667357009
| 25> H -1.6835427052 0.708612867 -1.9822257629
| 26> H -2.9943311987 -0.1658166934 -1.1878139399
| 27> H -1.0529378168 -1.4813072954 1.0089016558
| 28> H -1.4017553004 -0.2304979842 2.2051292737
| 29> H -2.7072044886 -0.9033784033 1.2291521555
| 30> H 1.6402200865 -0.7355938152 1.4196082235
| 31> *
| 32>
| 33>                          ****END OF INPUT****

CARTESIAN COORDINATES (ANGSTROEM)
---------------------------------
  C      2.399991    0.607387   -0.656741
  C      1.076174   -0.092273   -0.336118
  H      0.724698   -0.613683   -1.231447
  C      0.031575    0.940406    0.114854
  C     -1.430997    0.468596    0.156630
  C     -1.917102   -0.018175   -1.207626
  C     -1.661262   -0.605290    1.217586
  O      1.277152   -1.125905    0.612411
  H      2.280167    1.268330   -1.509714
  H      2.735310    1.193725    0.196541
  H      3.159068   -0.134625   -0.892678
  H      0.309917    1.299356    1.109582
  H      0.094368    1.787111   -0.571445
  H     -2.029168    1.347457    0.429575
  H     -1.453724   -0.966740   -1.466736
  H     -1.683543    0.708613   -1.982226
  H     -2.994331   -0.165817   -1.187814
  H     -1.052938   -1.481307    1.008902
  H     -1.401755   -0.230498    2.205129
  H     -2.707204   -0.903378    1.229152
  H      1.640220   -0.735594    1.419608

 Total Charge           Charge          ....    0
 Multiplicity           Mult            ....    1
 Number of Electrons    NEL             ....   58
 Basis Dimension        Dim             ....  208

ORBITAL ENERGIES
----------------

  NO   OCC          E(Eh)            E(eV)
   0   2.0000     -18.944792      -515.5140
   1   2.0000     -10.072767      -274.0939
   2   2.0000     -10.024263      -272.7741
   3   2.0000     -10.012978      -272.4670
   4   2.0000     -10.008358      -272.3413
   5   2.0000     -10.005236      -272.2563
   6   2.0000     -10.001877      -272.1649
   7   2.0000      -0.983273       -26.7562
   8   2.0000      -0.766834       -20.8666
   9   2.0000      -0.712851       -19.3977
  10   2.0000      -0.640201       -17.4208
  11   2.0000      -0.637904       -17.3582
  12   2.0000      -0.572309       -15.5733
  13   2.0000      -0.516509       -14.0549
  14   2.0000      -0.438288       -11.9264
  15   2.0000      -0.433036       -11.7835
  16   2.0000      -0.421794       -11.4776
  17   2.0000      -0.389147       -10.5892
  18   2.0000      -0.379577       -10.3288
  19   2.0000      -0.375934       -10.2297
  20   2.0000      -0.346716        -9.4346
  21   2.0000      -0.340006        -9.2520
  22   2.0000      -0.332319        -9.0429
  23   2.0000      -0.317409        -8.6371
  24   2.0000      -0.301558        -8.2058
  25   2.0000      -0.288086        -7.8392
  26   2.0000      -0.283956        -7.7268
  27   2.0000      -0.271244        -7.3809
  28   2.0000      -0.227508        -6.1908
  29   0.0000       0.073768         2.0073
  30   0.0000       0.106966         2.9107
  31   0.0000       0.119447         3.2503
  32   0.0000       0.123386         3.3575
  33   0.0000       0.140324         3.8184

MULLIKEN ATOMIC CHARGES
-----------------------
   0 C :   -0.536619
   1 C :   -0.008640
   2 H :    0.154790
   3 C :   -0.311708
   4 C :    0.016637
   5 C :   -0.557236
   6 C :   -0.557225
   7 O :   -0.477508
   8 H :    0.164434
   9 H :    0.161418
  10 H :    0.161856
  11 H :    0.162588
  12 H :    0.161180
  13 H :    0.157388
  14 H :    0.163031
  15 H :    0.160948
  16 H :    0.158308
  17 H :    0.174903
  18 H :    0.155950
  19 H :    0.150338
  20 H :    0.345165
Sum of atomic charges:   -0.0000000

LOEWDIN ATOMIC CHARGES
----------------------
   0 C :   -0.404891
   1 C :    0.044219
   2 H :    0.184235
   3 C :   -0.284821
   4 C :   -0.240676
   5 C :   -0.427024
   6 C :   -0.426422
   7 O :   -0.646583
   8 H :    0.162527
   9 H :    0.161013
  10 H :    0.159651
  11 H :    0.168992
  12 H :    0.169792
  13 H :    0.157240
  14 H :    0.154648
  15 H :    0.156729
  16 H :    0.155689
  17 H :    0.164642
  18 H :    0.155484
  19 H :    0.151439
  20 H :    0.284117

  Mayer bond orders larger than 0.100000
B(  0-C ,  1-C ) :   0.9219 B(  0-C ,  8-H ) :   0.9699 B(  0-C ,  9-H ) :   0.9716
B(  0-C , 10-H ) :   0.9746 B(  1-C ,  2-H ) :   0.9600 B(  1-C ,  3-C ) :   0.9106
B(  1-C ,  7-O ) :   0.9160 B(  3-C ,  4-C ) :   0.8926 B(  3-C , 11-H ) :   0.9745
B(  3-C , 12-H ) :   0.9710 B(  4-C ,  5-C ) :   0.8945 B(  4-C ,  6-C ) :   0.8984
B(  4-C , 13-H ) :   0.9702 B(  5-C , 14-H ) :   0.9773 B(  5-C , 15-H ) :   0.9743
B(  5-C , 16-H ) :   0.9679 B(  6-C , 17-H ) :   0.9795 B(  6-C , 18-H ) :   0.9732
B(  6-C , 19-H ) :   0.9711 B(  7-O , 20-H ) :   0.8697

Dispersion correction           -0.005662085
FINAL SINGLE POINT ENERGY      -312.205822045572

DIPOLE MOMENT
-------------

Method             : SCF
Type of density    : Electron Density
Multiplicity       :   1
Irrep              :   0
Energy             :  -312.2113757548713693 Eh
Relativity type    :
Basis              : AO
                                X                 Y                 Z
Electronic contribution:      2.364061755      -1.302756976       1.265229704
Nuclear contribution   :     -2.212858978       2.209504272      -1.157583752
                        -----------------------------------------
Total Dipole Moment    :      0.151202777       0.906747296       0.107645953
                        -----------------------------------------
Magnitude (a.u.)       :      0.925548805
Magnitude (Debye)      :      2.352558101

Rotational constants in cm-1:             0.131250             0.055234             0.047171
Rotational constants in MHz :          3934.783344          1655.882493          1414.163495

                             ****ORCA TERMINATED NORMALLY****
TOTAL RUN TIME: 0 days 0 hours 0 minutes 37 seconds 267 msec
