                         Program Version 6.0.0  -   RELEASE  -
|  1> ! pbe def2-sv(p) def2/J RI DEFGRID1 loosescf d4 GCP(DFT/SV(P)) printgap
|  2> %output
|  3>     printlevel normal
|  4> end
|  5> * xyz 0 1
|  6> C -0.2087299944 -2.5570211678 0.0194571768
|  7> C 0.0432422831 -1.0784001902 -0.2009989055
|  8> O 1.2750126183 -0.7498412148 0.4183647632
|  9> C 1.7710964932 0.4866700413 0.2452892527
| 10> O 1.2040612299 1.3337800913 -0.4075557525
| 11> C 3.0810897974 0.6489707778 0.9428102572
| 12> O -0.9739536239 -0.2995325333 0.4164028113
| 13> C -1.7591985544 0.4764883297 -0.3496390654
| 14> O -1.7051698377 0.4814133063 -1.5569280458
| 15> C -2.7138639263 1.2636735974 0.4867011094
| 16> H -0.2867268218 -2.7468706209 1.0856244917
| 17> H 0.6200593039 -3.1223648997 -0.3927488745
| 18> H -1.1316317739 -2.8424621266 -0.4748287731
| 19> H 0.0815347841 -0.8053288334 -1.2672686366
| 20> H 3.8627443603 0.7351191778 0.1911406725
| 21> H 3.07078314 1.570812314 1.5176348465
| 22> H 3.2702259443 -0.208025429 1.5791764494
| 23> H -3.0809392829 2.1105467008 -0.0835108084
| 24> H -3.5503911579 0.6188949074 0.7486355965
| 25> H -2.2259426451 1.5853274299 1.4009014898
| 26> *
| 27>
| 28>                          ****END OF INPUT****

CARTESIAN COORDINATES (ANGSTROEM)
---------------------------------
  C     -0.208730   -2.557021    0.019457
  C      0.043242   -1.078400   -0.200999
  O      1.275013   -0.749841    0.418365
  C      1.771096    0.486670    0.245289
  O      1.204061    1.333780   -0.407556
  C      3.081090    0.648971    0.942810
  O     -0.973954   -0.299533    0.416403
  C     -1.759199    0.476488   -0.349639
  O     -1.705170    0.481413   -1.556928
  C     -2.713864    1.263674    0.486701
  H     -0.286727   -2.746871    1.085624
  H      0.620059   -3.122365   -0.392749
  H     -1.131632   -2.842462   -0.474829
  H      0.081535   -0.805329   -1.267269
  H      3.862744    0.735119    0.191141
  H      3.070783    1.570812    1.517635
  H      3.270226   -0.208025    1.579176
  H     -3.080939    2.110547   -0.083511
  H     -3.550391    0.618895    0.748636
  H     -2.225943    1.585327    1.400901

 Total Charge           Charge          ....    0
 Multiplicity           Mult            ....    1
 Number of Electrons    NEL             ....   78
 Basis Dimension        Dim             ....  160

ORBITAL ENERGIES
----------------

  NO   OCC          E(Eh)            E(eV)
   0   2.0000     -18.807124      -511.7679
   1   2.0000     -18.801485      -511.6144
   2   2.0000     -18.739464      -509.9267
   3   2.0000     -18.733602      -509.7672
   4   2.0000     -10.017328      -272.5853
   5   2.0000     -10.012244      -272.4470
   6   2.0000     -10.007934      -272.3297
   7   2.0000      -9.899919      -269.3905
   8   2.0000      -9.896297      -269.2919
   9   2.0000      -9.894509      -269.2433
  10   2.0000      -1.032206       -28.0877
  11   2.0000      -0.993704       -27.0400
  12   2.0000      -0.924444       -25.1554
  13   2.0000      -0.907294       -24.6887
  14   2.0000      -0.730315       -19.8729
  15   2.0000      -0.682967       -18.5845
  16   2.0000      -0.668840       -18.2001
  17   2.0000      -0.597796       -16.2668
  18   2.0000      -0.559164       -15.2156
  19   2.0000      -0.509226       -13.8567
  20   2.0000      -0.449225       -12.2240
  21   2.0000      -0.433782       -11.8038
  22   2.0000      -0.428943       -11.6721
  23   2.0000      -0.421214       -11.4618
  24   2.0000      -0.414006       -11.2657
  25   2.0000      -0.402007       -10.9392
  26   2.0000      -0.381163       -10.3720
  27   2.0000      -0.374351       -10.1866
  28   2.0000      -0.368667       -10.0319
  29   2.0000      -0.359539        -9.7836
  30   2.0000      -0.358730        -9.7615
  31   2.0000      -0.348446        -9.4817
  32   2.0000      -0.330591        -8.9958
  33   2.0000      -0.322664        -8.7801
  34   2.0000      -0.298554        -8.1241
  35   2.0000      -0.274962        -7.4821
  36   2.0000      -0.263125        -7.1600
  37   2.0000      -0.225972        -6.1490
  38   2.0000      -0.218830        -5.9547
  39   0.0000      -0.031773        -0.8646
  40   0.0000      -0.021981        -0.5981
  41   0.0000       0.043977         1.1967
  42   0.0000       0.056402         1.5348
  43   0.0000       0.063867         1.7379

MULLIKEN ATOMIC CHARGES
-----------------------
   0 C :   -0.222218
   1 C :    0.139997
   2 O :   -0.230027
   3 C :    0.089844
   4 O :   -0.194392
   5 C :   -0.247396
   6 O :   -0.249446
   7 C :    0.101435
   8 O :   -0.190887
   9 C :   -0.242112
  10 H :    0.115294
  11 H :    0.118208
  12 H :    0.118429
  13 H :    0.109684
  14 H :    0.139588
  15 H :    0.135311
  16 H :    0.120561
  17 H :    0.130037
  18 H :    0.133173
  19 H :    0.124916
Sum of atomic charges:   -0.0000000

LOEWDIN ATOMIC CHARGES
----------------------
   0 C :   -0.343746
   1 C :    0.034033
   2 O :   -0.066247
   3 C :    0.038988
   4 O :   -0.155902
   5 C :   -0.359131
   6 O :   -0.074693
   7 C :    0.043363
   8 O :   -0.151610
   9 C :   -0.355886
  10 H :    0.131481
  11 H :    0.134705
  12 H :    0.135144
  13 H :    0.117487
  14 H :    0.152484
  15 H :    0.148515
  16 H :    0.136533
  17 H :    0.143828
  18 H :    0.149544
  19 H :    0.141110

  Mayer bond orders larger than 0.100000
B(  0-C ,  1-C ) :   1.1273 B(  0-C , 10-H ) :   0.9348 B(  0-C , 11-H ) :   0.9412
B(  0-C , 12-H ) :   0.9388 B(  1-C ,  2-O ) :   0.9666 B(  1-C ,  6-O ) :   0.9538
B(  1-C , 13-H ) :   0.8888 B(  2-O ,  3-C ) :   1.1564 B(  3-C ,  4-O ) :   2.0737
B(  3-C ,  5-C ) :   1.0924 B(  5-C , 14-H ) :   0.9232 B(  5-C , 15-H ) :   0.9302
B(  5-C , 16-H ) :   0.9362 B(  6-O ,  7-C ) :   1.1229 B(  7-C ,  8-O ) :   2.0823
B(  7-C ,  9-C ) :   1.0916 B(  9-C , 17-H ) :   0.9385 B(  9-C , 18-H ) :   0.9226
B(  9-C , 19-H ) :   0.9320

Dispersion correction           -0.016773536
FINAL SINGLE POINT ENERGY      -534.472023463000

DIPOLE MOMENT
-------------

Method             : SCF
Type of density    : Electron Density
Multiplicity       :   1
Irrep              :   0
Energy             :  -534.5518793539631588 Eh
Relativity type    :
Basis              : AO
                                X                 Y                 Z
Electronic contribution:     -0.300943538       2.224734893      -3.092548865
Nuclear contribution   :      0.587816730      -2.901063474       4.021856272
                        -----------------------------------------
Total Dipole Moment    :      0.286873192      -0.676328581       0.929307407
                        -----------------------------------------
Magnitude (a.u.)       :      1.184621811
Magnitude (Debye)      :      3.011069349

Rotational constants in cm-1:             0.064543             0.031956             0.025218
Rotational constants in MHz :          1934.937907           958.013727           756.023444

                             ****ORCA TERMINATED NORMALLY****
TOTAL RUN TIME: 0 days 0 hours 0 minutes 13 seconds 123 msec
