                         Program Version 6.0.0  -   RELEASE  -
|  1> ! r2scan-3c def2/J RI DEFGRID2 scfconv6 printgap
|  2> %output
|  3>     printlevel normal
|  4> end
|  5> * xyz 0 1
|  6> C 2.4070454424 -0.0050319332 -0.1533887314
|  7> O 1.1607041992 0.1169415029 0.4975735676
|  8> C 0.0597846959 -0.0744811072 -0.3661404758
|  9> C -1.2347489504 0.0793280132 0.4471161641
| 10> N -2.4525210118 -0.0956132708 -0.3201966549
| 11> H 2.5271209165 -1.0051497332 -0.5847101516
| 12> H 3.1647836489 0.161939893 0.6075940873
| 13> H 2.507870462 0.7417219328 -0.9489281018
| 14> H 0.0883827792 0.6682006306 -1.1804003133
| 15> H 0.1079019217 -1.078938992 -0.8180806348
| 16> H -1.2242865124 -0.6540558576 1.2565117405
| 17> H -1.2458808635 1.0750113794 0.8959745477
| 18> H -2.4644962972 -1.0183766315 -0.741403389
| 19> H -2.4861842696 0.584273803 -1.0722728038
| 20> *
| 21>
| 22>                          ****END OF INPUT****

CARTESIAN COORDINATES (ANGSTROEM)
---------------------------------
  C      2.407045   -0.005032   -0.153389
  O      1.160704    0.116942    0.497574
  C      0.059785   -0.074481   -0.366140
  C     -1.234749    0.079328    0.447116
  N     -2.452521   -0.095613   -0.320197
  H      2.527121   -1.005150   -0.584710
  H      3.164784    0.161940    0.607594
  H      2.507870    0.741722   -0.948928
  H      0.088383    0.668201   -1.180400
  H      0.107902   -1.078939   -0.818081
  H     -1.224287   -0.654056    1.256512
  H     -1.245881    1.075011    0.895975
  H     -2.464496   -1.018377   -0.741403
  H     -2.486184    0.584274   -1.072273

 Total Charge           Charge          ....    0
 Multiplicity           Mult            ....    1
 Number of Electrons    NEL             ....   42
 Basis Dimension        Dim             ....  150

ORBITAL ENERGIES
----------------

  NO   OCC          E(Eh)            E(eV)
   0   2.0000     -18.952327      -515.7190
   1   2.0000     -14.141734      -384.8162
   2   2.0000     -10.074152      -274.1316
   3   2.0000     -10.071390      -274.0565
   4   2.0000     -10.051152      -273.5058
   5   2.0000      -0.998084       -27.1592
   6   2.0000      -0.852477       -23.1971
   7   2.0000      -0.704292       -19.1648
   8   2.0000      -0.626467       -17.0470
   9   2.0000      -0.572411       -15.5761
  10   2.0000      -0.476646       -12.9702
  11   2.0000      -0.454080       -12.3561
  12   2.0000      -0.432816       -11.7775
  13   2.0000      -0.431643       -11.7456
  14   2.0000      -0.376943       -10.2571
  15   2.0000      -0.375989       -10.2312
  16   2.0000      -0.350141        -9.5278
  17   2.0000      -0.315976        -8.5981
  18   2.0000      -0.288837        -7.8597
  19   2.0000      -0.223431        -6.0799
  20   2.0000      -0.211528        -5.7560
  21   0.0000       0.057947         1.5768
  22   0.0000       0.079879         2.1736
  23   0.0000       0.113931         3.1002
  24   0.0000       0.133067         3.6209
  25   0.0000       0.134091         3.6488

MULLIKEN ATOMIC CHARGES
-----------------------
   0 C :   -0.287494
   1 O :   -0.235953
   2 C :   -0.138352
   3 C :   -0.236188
   4 N :   -0.539716
   5 H :    0.130132
   6 H :    0.148014
   7 H :    0.130093
   8 H :    0.117112
   9 H :    0.117041
  10 H :    0.153729
  11 H :    0.153557
  12 H :    0.243989
  13 H :    0.244035
Sum of atomic charges:    0.0000000

LOEWDIN ATOMIC CHARGES
----------------------
   0 C :   -0.074140
   1 O :   -0.797496
   2 C :    0.016143
   3 C :   -0.050290
   4 N :   -0.720875
   5 H :    0.154254
   6 H :    0.174377
   7 H :    0.154256
   8 H :    0.157629
   9 H :    0.157613
  10 H :    0.178618
  11 H :    0.178612
  12 H :    0.235652
  13 H :    0.235649

  Mayer bond orders larger than 0.100000
B(  0-C ,  1-O ) :   0.8913 B(  0-C ,  5-H ) :   0.9673 B(  0-C ,  6-H ) :   0.9735
B(  0-C ,  7-H ) :   0.9674 B(  1-O ,  2-C ) :   0.9152 B(  2-C ,  3-C ) :   0.9099
B(  2-C ,  8-H ) :   0.9469 B(  2-C ,  9-H ) :   0.9471 B(  3-C ,  4-N ) :   0.9664
B(  3-C , 10-H ) :   0.9903 B(  3-C , 11-H ) :   0.9901 B(  4-N , 12-H ) :   0.9169
B(  4-N , 13-H ) :   0.9170

Dispersion correction           -0.002657925
FINAL SINGLE POINT ENERGY      -249.617675965233

DIPOLE MOMENT
-------------

Method             : SCF
Type of density    : Electron Density
Multiplicity       :   1
Irrep              :   0
Energy             :  -249.6275942251089930 Eh
Relativity type    :
Basis              : AO
                                X                 Y                 Z
Electronic contribution:     -0.523907174       0.340164125       1.663363484
Nuclear contribution   :      0.918673320      -0.491678078      -2.420208467
                        -----------------------------------------
Total Dipole Moment    :      0.394766145      -0.151513953      -0.756844983
                        -----------------------------------------
Magnitude (a.u.)       :      0.866955083
Magnitude (Debye)      :      2.203624697

Rotational constants in cm-1:             0.709146             0.070641             0.067392
Rotational constants in MHz :         21259.675553          2117.770821          2020.349906

                             ****ORCA TERMINATED NORMALLY****
TOTAL RUN TIME: 0 days 0 hours 0 minutes 15 seconds 677 msec
