                         Program Version 6.0.0  -   RELEASE  -
|  1> ! r2scan-3c def2/J RI DEFGRID2 scfconv6 printgap
|  2> %output
|  3>     printlevel normal
|  4> end
|  5> %cpcm
|  6>     smd true
|  7>     smdsolvent "water"
|  8> end
|  9> * xyz 0 1
| 10> C 2.4070454424 -0.0050319332 -0.1533887314
| 11> O 1.1607041992 0.1169415029 0.4975735676
| 12> C 0.0597846959 -0.0744811072 -0.3661404758
| 13> C -1.2347489504 0.0793280132 0.4471161641
| 14> N -2.4525210118 -0.0956132708 -0.3201966549
| 15> H 2.5271209165 -1.0051497332 -0.5847101516
| 16> H 3.1647836489 0.161939893 0.6075940873
| 17> H 2.507870462 0.7417219328 -0.9489281018
| 18> H 0.0883827792 0.6682006306 -1.1804003133
| 19> H 0.1079019217 -1.078938992 -0.8180806348
| 20> H -1.2242865124 -0.6540558576 1.2565117405
| 21> H -1.2458808635 1.0750113794 0.8959745477
| 22> H -2.4644962972 -1.0183766315 -0.741403389
| 23> H -2.4861842696 0.584273803 -1.0722728038
| 24> *
| 25>
| 26>                          ****END OF INPUT****

CARTESIAN COORDINATES (ANGSTROEM)
---------------------------------
  C      2.407045   -0.005032   -0.153389
  O      1.160704    0.116942    0.497574
  C      0.059785   -0.074481   -0.366140
  C     -1.234749    0.079328    0.447116
  N     -2.452521   -0.095613   -0.320197
  H      2.527121   -1.005150   -0.584710
  H      3.164784    0.161940    0.607594
  H      2.507870    0.741722   -0.948928
  H      0.088383    0.668201   -1.180400
  H      0.107902   -1.078939   -0.818081
  H     -1.224287   -0.654056    1.256512
  H     -1.245881    1.075011    0.895975
  H     -2.464496   -1.018377   -0.741403
  H     -2.486184    0.584274   -1.072273

 Total Charge           Charge          ....    0
 Multiplicity           Mult            ....    1
 Number of Electrons    NEL             ....   42
 Basis Dimension        Dim             ....  150

ORBITAL ENERGIES
----------------

  NO   OCC          E(Eh)            E(eV)
   0   2.0000     -18.956477      -515.8320
   1   2.0000     -14.135859      -384.6563
   2   2.0000     -10.066312      -273.9183
   3   2.0000     -10.062740      -273.8211
   4   2.0000     -10.046325      -273.3744
   5   2.0000      -1.000544       -27.2262
   6   2.0000      -0.845889       -23.0178
   7   2.0000      -0.699297       -19.0288
   8   2.0000      -0.619956       -16.8699
   9   2.0000      -0.566612       -15.4183
  10   2.0000      -0.468993       -12.7620
  11   2.0000      -0.449946       -12.2437
  12   2.0000      -0.428534       -11.6610
  13   2.0000      -0.427159       -11.6236
  14   2.0000      -0.372534       -10.1372
  15   2.0000      -0.367078        -9.9887
  16   2.0000      -0.343830        -9.3561
  17   2.0000      -0.308883        -8.4051
  18   2.0000      -0.291630        -7.9356
  19   2.0000      -0.225127        -6.1260
  20   2.0000      -0.211339        -5.7508
  21   0.0000       0.064069         1.7434
  22   0.0000       0.091282         2.4839
  23   0.0000       0.125528         3.4158
  24   0.0000       0.141504         3.8505
  25   0.0000       0.147860         4.0235

MULLIKEN ATOMIC CHARGES
-----------------------
   0 C :   -0.306888
   1 O :   -0.306991
   2 C :   -0.153798
   3 C :   -0.234470
   4 N :   -0.636089
   5 H :    0.150370
   6 H :    0.161898
   7 H :    0.150473
   8 H :    0.141674
   9 H :    0.141541
  10 H :    0.157064
  11 H :    0.156979
  12 H :    0.289132
  13 H :    0.289107
Sum of atomic charges:    0.0000000

LOEWDIN ATOMIC CHARGES
----------------------
   0 C :   -0.075160
   1 O :   -0.838431
   2 C :    0.020163
   3 C :   -0.059055
   4 N :   -0.739267
   5 H :    0.163396
   6 H :    0.178822
   7 H :    0.163445
   8 H :    0.168119
   9 H :    0.168080
  10 H :    0.178432
  11 H :    0.178465
  12 H :    0.246515
  13 H :    0.246476

  Mayer bond orders larger than 0.100000
B(  0-C ,  1-O ) :   0.8811 B(  0-C ,  5-H ) :   0.9621 B(  0-C ,  6-H ) :   0.9671
B(  0-C ,  7-H ) :   0.9621 B(  1-O ,  2-C ) :   0.9081 B(  2-C ,  3-C ) :   0.9175
B(  2-C ,  8-H ) :   0.9445 B(  2-C ,  9-H ) :   0.9447 B(  3-C ,  4-N ) :   0.9857
B(  3-C , 10-H ) :   0.9805 B(  3-C , 11-H ) :   0.9803 B(  4-N , 12-H ) :   0.8993
B(  4-N , 13-H ) :   0.8993

Dispersion correction           -0.002657925
FINAL SINGLE POINT ENERGY      -249.627737882777

DIPOLE MOMENT
-------------

Method             : SCF
Type of density    : Electron Density
Multiplicity       :   1
Irrep              :   0
Energy             :  -249.6376561426528156 Eh
Relativity type    :
Basis              : AO
                                X                 Y                 Z
Electronic contribution:     -0.398302504       0.261965951       1.278234895
Nuclear contribution   :      0.918673320      -0.491678078      -2.420208467
                        -----------------------------------------
Total Dipole Moment    :      0.520370816      -0.229712128      -1.141973573
                        -----------------------------------------
Magnitude (a.u.)       :      1.275796649
Magnitude (Debye)      :      3.242817370

Rotational constants in cm-1:             0.709146             0.070641             0.067392
Rotational constants in MHz :         21259.675553          2117.770821          2020.349906

                             ****ORCA TERMINATED NORMALLY****
TOTAL RUN TIME: 0 days 0 hours 0 minutes 17 seconds 869 msec
