                         Program Version 6.0.0  -   RELEASE  -
|  1> ! r2scan-3c def2/J RI DEFGRID2 scfconv6 printgap
|  2> %output
|  3>     printlevel normal
|  4> end
|  5> * xyz 0 1
|  6> C -2.3600655411 0.2686926672 1.0708892076
|  7> C -1.8055247686 0.5863592303 -0.3210419648
|  8> C -0.5320256509 -0.1878129669 -0.5400761457
|  9> O -0.4494010718 -1.2338164293 -1.1524577882
| 10> O 0.5032345545 0.3923903171 0.0475540654
| 11> C 1.7790024883 -0.2650820178 -0.0348016328
| 12> C 2.7525747932 0.4738461771 0.8626838097
| 13> H -3.2895909467 0.8078924916 1.2260442956
| 14> H -2.5537837172 -0.7971645373 1.165939559
| 15> H -1.6479062594 0.5658285948 1.8360016549
| 16> H -1.5861407127 1.6505478461 -0.3955937327
| 17> H -2.5219709997 0.2944854218 -1.0878603211
| 18> H 1.6516090194 -1.3089739773 0.2702574619
| 19> H 2.1035721143 -0.2533653543 -1.0804702434
| 20> H 2.832995238 1.5101213414 0.5483309163
| 21> H 2.4075679323 0.445676285 1.8920066179
| 22> H 3.727755041 0.0025427462 0.7990149382
| 23> *
| 24>
| 25>                          ****END OF INPUT****

CARTESIAN COORDINATES (ANGSTROEM)
---------------------------------
  C     -2.360066    0.268693    1.070889
  C     -1.805525    0.586359   -0.321042
  C     -0.532026   -0.187813   -0.540076
  O     -0.449401   -1.233816   -1.152458
  O      0.503235    0.392390    0.047554
  C      1.779002   -0.265082   -0.034802
  C      2.752575    0.473846    0.862684
  H     -3.289591    0.807892    1.226044
  H     -2.553784   -0.797165    1.165940
  H     -1.647906    0.565829    1.836002
  H     -1.586141    1.650548   -0.395594
  H     -2.521971    0.294485   -1.087860
  H      1.651609   -1.308974    0.270257
  H      2.103572   -0.253365   -1.080470
  H      2.832995    1.510121    0.548331
  H      2.407568    0.445676    1.892007
  H      3.727755    0.002543    0.799015

 Total Charge           Charge          ....    0
 Multiplicity           Mult            ....    1
 Number of Electrons    NEL             ....   56
 Basis Dimension        Dim             ....  193

ORBITAL ENERGIES
----------------

  NO   OCC          E(Eh)            E(eV)
   0   2.0000     -18.996288      -516.9153
   1   2.0000     -18.926161      -515.0070
   2   2.0000     -10.150025      -276.1962
   3   2.0000     -10.091792      -274.6116
   4   2.0000     -10.043121      -273.2872
   5   2.0000     -10.032405      -272.9956
   6   2.0000     -10.031642      -272.9749
   7   2.0000      -1.071824       -29.1658
   8   2.0000      -0.972883       -26.4735
   9   2.0000      -0.767175       -20.8759
  10   2.0000      -0.733509       -19.9598
  11   2.0000      -0.638183       -17.3658
  12   2.0000      -0.594590       -16.1796
  13   2.0000      -0.534565       -14.5462
  14   2.0000      -0.468303       -12.7432
  15   2.0000      -0.457990       -12.4625
  16   2.0000      -0.440940       -11.9986
  17   2.0000      -0.410817       -11.1789
  18   2.0000      -0.402452       -10.9513
  19   2.0000      -0.378748       -10.3063
  20   2.0000      -0.372989       -10.1495
  21   2.0000      -0.351118        -9.5544
  22   2.0000      -0.344132        -9.3643
  23   2.0000      -0.327114        -8.9012
  24   2.0000      -0.321738        -8.7549
  25   2.0000      -0.312986        -8.5168
  26   2.0000      -0.270836        -7.3698
  27   2.0000      -0.231282        -6.2935
  28   0.0000      -0.013875        -0.3775
  29   0.0000       0.072365         1.9691
  30   0.0000       0.095583         2.6009
  31   0.0000       0.119202         3.2436
  32   0.0000       0.123517         3.3611

MULLIKEN ATOMIC CHARGES
-----------------------
   0 C :   -0.471806
   1 C :   -0.294975
   2 C :    0.400182
   3 O :   -0.423132
   4 O :   -0.169288
   5 C :   -0.148396
   6 C :   -0.441181
   7 H :    0.153354
   8 H :    0.157828
   9 H :    0.157134
  10 H :    0.152162
  11 H :    0.163126
  12 H :    0.160921
  13 H :    0.152955
  14 H :    0.152166
  15 H :    0.151630
  16 H :    0.147320
Sum of atomic charges:    0.0000000

LOEWDIN ATOMIC CHARGES
----------------------
   0 C :   -0.392727
   1 C :   -0.236993
   2 C :    0.352655
   3 O :   -0.426157
   4 O :   -0.599085
   5 C :    0.034113
   6 C :   -0.386825
   7 H :    0.152950
   8 H :    0.158910
   9 H :    0.157921
  10 H :    0.173749
  11 H :    0.174510
  12 H :    0.181633
  13 H :    0.177503
  14 H :    0.159426
  15 H :    0.158772
  16 H :    0.159646

  Mayer bond orders larger than 0.100000
B(  0-C ,  1-C ) :   0.8959 B(  0-C ,  7-H ) :   0.9708 B(  0-C ,  8-H ) :   0.9743
B(  0-C ,  9-H ) :   0.9774 B(  1-C ,  2-C ) :   0.9525 B(  1-C , 10-H ) :   0.9725
B(  1-C , 11-H ) :   0.9775 B(  2-C ,  3-O ) :   1.8234 B(  2-C ,  4-O ) :   1.0582
B(  4-O ,  5-C ) :   0.8098 B(  5-C ,  6-C ) :   0.9402 B(  5-C , 12-H ) :   0.9558
B(  5-C , 13-H ) :   0.9516 B(  6-C , 14-H ) :   0.9705 B(  6-C , 15-H ) :   0.9734
B(  6-C , 16-H ) :   0.9683

Dispersion correction           -0.003906614
FINAL SINGLE POINT ENERGY      -346.936034052826

DIPOLE MOMENT
-------------

Method             : SCF
Type of density    : Electron Density
Multiplicity       :   1
Irrep              :   0
Energy             :  -346.9424316094804794 Eh
Relativity type    :
Basis              : AO
                                X                 Y                 Z
Electronic contribution:     -0.776252876      -2.076209992      -4.273047300
Nuclear contribution   :      1.055398189       2.724712935       4.837387105
                        -----------------------------------------
Total Dipole Moment    :      0.279145313       0.648502943       0.564339805
                        -----------------------------------------
Magnitude (a.u.)       :      0.903857062
Magnitude (Debye)      :      2.297422073

Rotational constants in cm-1:             0.159767             0.050946             0.042444
Rotational constants in MHz :          4789.698779          1527.324649          1272.438922

                             ****ORCA TERMINATED NORMALLY****
TOTAL RUN TIME: 0 days 0 hours 0 minutes 20 seconds 379 msec
