                         Program Version 6.0.0  -   RELEASE  -
|  1> ! r2scan-3c def2/J RI DEFGRID2 scfconv6 printgap
|  2> %output
|  3>     printlevel normal
|  4> end
|  5> %cpcm
|  6>     smd true
|  7>     smdsolvent "water"
|  8> end
|  9> * xyz 0 1
| 10> C -2.3600655411 0.2686926672 1.0708892076
| 11> C -1.8055247686 0.5863592303 -0.3210419648
| 12> C -0.5320256509 -0.1878129669 -0.5400761457
| 13> O -0.4494010718 -1.2338164293 -1.1524577882
| 14> O 0.5032345545 0.3923903171 0.0475540654
| 15> C 1.7790024883 -0.2650820178 -0.0348016328
| 16> C 2.7525747932 0.4738461771 0.8626838097
| 17> H -3.2895909467 0.8078924916 1.2260442956
| 18> H -2.5537837172 -0.7971645373 1.165939559
| 19> H -1.6479062594 0.5658285948 1.8360016549
| 20> H -1.5861407127 1.6505478461 -0.3955937327
| 21> H -2.5219709997 0.2944854218 -1.0878603211
| 22> H 1.6516090194 -1.3089739773 0.2702574619
| 23> H 2.1035721143 -0.2533653543 -1.0804702434
| 24> H 2.832995238 1.5101213414 0.5483309163
| 25> H 2.4075679323 0.445676285 1.8920066179
| 26> H 3.727755041 0.0025427462 0.7990149382
| 27> *
| 28>
| 29>                          ****END OF INPUT****

CARTESIAN COORDINATES (ANGSTROEM)
---------------------------------
  C     -2.360066    0.268693    1.070889
  C     -1.805525    0.586359   -0.321042
  C     -0.532026   -0.187813   -0.540076
  O     -0.449401   -1.233816   -1.152458
  O      0.503235    0.392390    0.047554
  C      1.779002   -0.265082   -0.034802
  C      2.752575    0.473846    0.862684
  H     -3.289591    0.807892    1.226044
  H     -2.553784   -0.797165    1.165940
  H     -1.647906    0.565829    1.836002
  H     -1.586141    1.650548   -0.395594
  H     -2.521971    0.294485   -1.087860
  H      1.651609   -1.308974    0.270257
  H      2.103572   -0.253365   -1.080470
  H      2.832995    1.510121    0.548331
  H      2.407568    0.445676    1.892007
  H      3.727755    0.002543    0.799015

 Total Charge           Charge          ....    0
 Multiplicity           Mult            ....    1
 Number of Electrons    NEL             ....   56
 Basis Dimension        Dim             ....  193

ORBITAL ENERGIES
----------------

  NO   OCC          E(Eh)            E(eV)
   0   2.0000     -19.002564      -517.0861
   1   2.0000     -18.943415      -515.4765
   2   2.0000     -10.161584      -276.5108
   3   2.0000     -10.084166      -274.4041
   4   2.0000     -10.037663      -273.1387
   5   2.0000     -10.022256      -272.7195
   6   2.0000     -10.018907      -272.6283
   7   2.0000      -1.079788       -29.3825
   8   2.0000      -0.987978       -26.8842
   9   2.0000      -0.762858       -20.7584
  10   2.0000      -0.725066       -19.7300
  11   2.0000      -0.631927       -17.1956
  12   2.0000      -0.587617       -15.9899
  13   2.0000      -0.533345       -14.5131
  14   2.0000      -0.469512       -12.7761
  15   2.0000      -0.458402       -12.4738
  16   2.0000      -0.448491       -12.2041
  17   2.0000      -0.410047       -11.1579
  18   2.0000      -0.399569       -10.8728
  19   2.0000      -0.375824       -10.2267
  20   2.0000      -0.360479        -9.8091
  21   2.0000      -0.344457        -9.3732
  22   2.0000      -0.336969        -9.1694
  23   2.0000      -0.322292        -8.7700
  24   2.0000      -0.318214        -8.6591
  25   2.0000      -0.314509        -8.5582
  26   2.0000      -0.277044        -7.5388
  27   2.0000      -0.248856        -6.7717
  28   0.0000      -0.022939        -0.6242
  29   0.0000       0.076117         2.0712
  30   0.0000       0.104939         2.8555
  31   0.0000       0.127276         3.4634
  32   0.0000       0.132400         3.6028

MULLIKEN ATOMIC CHARGES
-----------------------
   0 C :   -0.492542
   1 C :   -0.311124
   2 C :    0.444399
   3 O :   -0.512035
   4 O :   -0.182939
   5 C :   -0.151222
   6 C :   -0.490233
   7 H :    0.172677
   8 H :    0.164356
   9 H :    0.166559
  10 H :    0.175848
  11 H :    0.174202
  12 H :    0.170554
  13 H :    0.172234
  14 H :    0.164656
  15 H :    0.165613
  16 H :    0.168996
Sum of atomic charges:    0.0000000

LOEWDIN ATOMIC CHARGES
----------------------
   0 C :   -0.393956
   1 C :   -0.234212
   2 C :    0.362767
   3 O :   -0.489762
   4 O :   -0.599118
   5 C :    0.036468
   6 C :   -0.389894
   7 H :    0.160372
   8 H :    0.160657
   9 H :    0.160995
  10 H :    0.183837
  11 H :    0.179053
  12 H :    0.185336
  13 H :    0.183814
  14 H :    0.162800
  15 H :    0.162463
  16 H :    0.168379

  Mayer bond orders larger than 0.100000
B(  0-C ,  1-C ) :   0.8878 B(  0-C ,  7-H ) :   0.9658 B(  0-C ,  8-H ) :   0.9709
B(  0-C ,  9-H ) :   0.9735 B(  1-C ,  2-C ) :   0.9509 B(  1-C , 10-H ) :   0.9627
B(  1-C , 11-H ) :   0.9739 B(  2-C ,  3-O ) :   1.7496 B(  2-C ,  4-O ) :   1.0887
B(  4-O ,  5-C ) :   0.7960 B(  5-C ,  6-C ) :   0.9425 B(  5-C , 12-H ) :   0.9490
B(  5-C , 13-H ) :   0.9429 B(  6-C , 14-H ) :   0.9681 B(  6-C , 15-H ) :   0.9715
B(  6-C , 16-H ) :   0.9618

Dispersion correction           -0.003906614
FINAL SINGLE POINT ENERGY      -346.941842465759

DIPOLE MOMENT
-------------

Method             : SCF
Type of density    : Electron Density
Multiplicity       :   1
Irrep              :   0
Energy             :  -346.9482400224130743 Eh
Relativity type    :
Basis              : AO
                                X                 Y                 Z
Electronic contribution:     -0.702610856      -1.810624243      -4.075092919
Nuclear contribution   :      1.055398189       2.724712935       4.837387105
                        -----------------------------------------
Total Dipole Moment    :      0.352787334       0.914088692       0.762294186
                        -----------------------------------------
Magnitude (a.u.)       :      1.241414300
Magnitude (Debye)      :      3.155424385

Rotational constants in cm-1:             0.159767             0.050946             0.042444
Rotational constants in MHz :          4789.698779          1527.324649          1272.438922

                             ****ORCA TERMINATED NORMALLY****
TOTAL RUN TIME: 0 days 0 hours 0 minutes 26 seconds 761 msec
