                         Program Version 6.0.0  -   RELEASE  -
|  1> ! r2scan-3c def2/J RI DEFGRID2 scfconv6 printgap
|  2> %output
|  3>     printlevel normal
|  4> end
|  5> * xyz 0 1
|  6> C 2.2271937258 -0.685792821 -0.8675556839
|  7> C 1.1910229814 -0.2716102357 0.1749842089
|  8> C 1.6843562345 0.9335499435 0.9799388256
|  9> O 0.0001319263 0.0002839799 -0.5564289243
| 10> C -1.1912479276 0.2717285086 0.1743469208
| 11> C -2.226894534 0.6855297891 -0.8688566551
| 12> C -1.6845801308 -0.9336594194 0.9790007323
| 13> H 1.8432206832 -1.5138771 -1.4564164326
| 14> H 2.4257917287 0.1482644714 -1.5347868372
| 15> H 3.1490715119 -0.987239278 -0.380381251
| 16> H 1.0168089739 -1.1159319616 0.8602262668
| 17> H 1.0123546422 1.1622314213 1.803403653
| 18> H 1.755645295 1.8035126648 0.3314692836
| 19> H 2.6657029167 0.7142865844 1.3894560284
| 20> H -1.0177673881 1.1160968464 0.859725953
| 21> H -3.150072508 0.9841680796 -0.3824280316
| 22> H -1.8439362652 1.5154071706 -1.4558329827
| 23> H -2.4227609203 -0.1478546127 -1.5377218224
| 24> H -1.7540319103 -1.8039156345 0.3307404423
| 25> H -2.6667465163 -0.7152588191 1.3869754533
| 26> H -1.0135910753 -1.1613680483 1.803566415
| 27> *
| 28>
| 29>                          ****END OF INPUT****

CARTESIAN COORDINATES (ANGSTROEM)
---------------------------------
  C      2.227194   -0.685793   -0.867556
  C      1.191023   -0.271610    0.174984
  C      1.684356    0.933550    0.979939
  O      0.000132    0.000284   -0.556429
  C     -1.191248    0.271729    0.174347
  C     -2.226895    0.685530   -0.868857
  C     -1.684580   -0.933659    0.979001
  H      1.843221   -1.513877   -1.456416
  H      2.425792    0.148264   -1.534787
  H      3.149072   -0.987239   -0.380381
  H      1.016809   -1.115932    0.860226
  H      1.012355    1.162231    1.803404
  H      1.755645    1.803513    0.331469
  H      2.665703    0.714287    1.389456
  H     -1.017767    1.116097    0.859726
  H     -3.150073    0.984168   -0.382428
  H     -1.843936    1.515407   -1.455833
  H     -2.422761   -0.147855   -1.537722
  H     -1.754032   -1.803916    0.330740
  H     -2.666747   -0.715259    1.386975
  H     -1.013591   -1.161368    1.803566

 Total Charge           Charge          ....    0
 Multiplicity           Mult            ....    1
 Number of Electrons    NEL             ....   58
 Basis Dimension        Dim             ....  208

ORBITAL ENERGIES
----------------

  NO   OCC          E(Eh)            E(eV)
   0   2.0000     -18.940512      -515.3975
   1   2.0000     -10.078729      -274.2562
   2   2.0000     -10.078726      -274.2561
   3   2.0000     -10.016519      -272.5633
   4   2.0000     -10.016517      -272.5633
   5   2.0000     -10.012978      -272.4670
   6   2.0000     -10.012974      -272.4669
   7   2.0000      -0.986410       -26.8416
   8   2.0000      -0.761204       -20.7134
   9   2.0000      -0.714359       -19.4387
  10   2.0000      -0.653725       -17.7888
  11   2.0000      -0.653280       -17.7767
  12   2.0000      -0.569862       -15.5067
  13   2.0000      -0.520829       -14.1725
  14   2.0000      -0.472569       -12.8592
  15   2.0000      -0.426253       -11.5989
  16   2.0000      -0.420010       -11.4291
  17   2.0000      -0.394677       -10.7397
  18   2.0000      -0.377179       -10.2636
  19   2.0000      -0.376367       -10.2415
  20   2.0000      -0.356767        -9.7081
  21   2.0000      -0.354308        -9.6412
  22   2.0000      -0.336820        -9.1654
  23   2.0000      -0.328722        -8.9450
  24   2.0000      -0.325149        -8.8478
  25   2.0000      -0.306640        -8.3441
  26   2.0000      -0.305763        -8.3202
  27   2.0000      -0.262522        -7.1436
  28   2.0000      -0.215169        -5.8550
  29   0.0000       0.080305         2.1852
  30   0.0000       0.106565         2.8998
  31   0.0000       0.115126         3.1328
  32   0.0000       0.120415         3.2767
  33   0.0000       0.129743         3.5305

MULLIKEN ATOMIC CHARGES
-----------------------
   0 C :   -0.466892
   1 C :    0.009143
   2 C :   -0.470154
   3 O :   -0.198568
   4 C :    0.009248
   5 C :   -0.466899
   6 C :   -0.470314
   7 H :    0.155001
   8 H :    0.151022
   9 H :    0.138115
  10 H :    0.129525
  11 H :    0.144921
  12 H :    0.163182
  13 H :    0.145439
  14 H :    0.129501
  15 H :    0.138064
  16 H :    0.154961
  17 H :    0.151097
  18 H :    0.163209
  19 H :    0.145443
  20 H :    0.144955
Sum of atomic charges:    0.0000000

LOEWDIN ATOMIC CHARGES
----------------------
   0 C :   -0.379755
   1 C :    0.056046
   2 C :   -0.401439
   3 O :   -0.777292
   4 C :    0.056051
   5 C :   -0.379745
   6 C :   -0.401467
   7 H :    0.162576
   8 H :    0.160785
   9 H :    0.154413
  10 H :    0.162379
  11 H :    0.152705
  12 H :    0.162344
  13 H :    0.158603
  14 H :    0.162365
  15 H :    0.154403
  16 H :    0.162533
  17 H :    0.160829
  18 H :    0.162361
  19 H :    0.158600
  20 H :    0.152705

  Mayer bond orders larger than 0.100000
B(  0-C ,  1-C ) :   0.9523 B(  0-C ,  7-H ) :   0.9722 B(  0-C ,  8-H ) :   0.9811
B(  0-C ,  9-H ) :   0.9716 B(  1-C ,  2-C ) :   0.8893 B(  1-C ,  3-O ) :   0.8632
B(  1-C , 10-H ) :   0.9457 B(  2-C , 11-H ) :   0.9677 B(  2-C , 12-H ) :   0.9794
B(  2-C , 13-H ) :   0.9689 B(  3-O ,  4-C ) :   0.8632 B(  4-C ,  5-C ) :   0.9523
B(  4-C ,  6-C ) :   0.8893 B(  4-C , 14-H ) :   0.9457 B(  5-C , 15-H ) :   0.9716
B(  5-C , 16-H ) :   0.9722 B(  5-C , 17-H ) :   0.9811 B(  6-C , 18-H ) :   0.9794
B(  6-C , 19-H ) :   0.9689 B(  6-C , 20-H ) :   0.9677

Dispersion correction           -0.005371547
FINAL SINGLE POINT ENERGY      -312.195142755724

DIPOLE MOMENT
-------------

Method             : SCF
Type of density    : Electron Density
Multiplicity       :   1
Irrep              :   0
Energy             :  -312.2019064378417283 Eh
Relativity type    :
Basis              : AO
                                X                 Y                 Z
Electronic contribution:      0.000138476       0.001121975      -1.438094224
Nuclear contribution   :     -0.000289653      -0.001382593       1.884952579
                        -----------------------------------------
Total Dipole Moment    :     -0.000151177      -0.000260618       0.446858354
                        -----------------------------------------
Magnitude (a.u.)       :      0.446858456
Magnitude (Debye)      :      1.135823930

Rotational constants in cm-1:             0.138715             0.049840             0.047709
Rotational constants in MHz :          4158.560517          1494.179786          1430.278449

                             ****ORCA TERMINATED NORMALLY****
TOTAL RUN TIME: 0 days 0 hours 0 minutes 21 seconds 216 msec
