                         Program Version 6.0.0  -   RELEASE  -
|  1> ! r2scan-3c def2/J RI DEFGRID2 scfconv6 printgap
|  2> %output
|  3>     printlevel normal
|  4> end
|  5> * xyz 0 1
|  6> C -1.9601403732 -0.4557090077 -0.7274157101
|  7> C -1.5192909355 0.5901484231 0.2889570393
|  8> C -0.2348741733 0.1877639192 1.0249768876
|  9> C 0.9442822211 0.050988133 0.0942287981
| 10> C 1.4949241826 1.1055187849 -0.4867463132
| 11> C 1.4522166928 -1.3406461935 -0.1259401481
| 12> H -2.8959298537 -0.1585730763 -1.1950678748
| 13> H -2.1094730085 -1.4190970445 -0.2443797114
| 14> H -1.2094686415 -0.5681332875 -1.5060789397
| 15> H -1.3565315536 1.5413510007 -0.2210842453
| 16> H -2.3130381088 0.73609909 1.0250037643
| 17> H -0.0153300637 0.9510877377 1.7751406837
| 18> H -0.4042088305 -0.7571054936 1.5437211698
| 19> H 2.3292776941 1.0154380044 -1.1617566846
| 20> H 1.1337198862 2.1051085697 -0.3107925897
| 21> H 1.8232614595 -1.7504525821 0.8131082496
| 22> H 0.6486819767 -1.9873277985 -0.4741745884
| 23> H 2.2583537912 -1.3536847432 -0.8547071063
| 24> *
| 25>
| 26>                          ****END OF INPUT****

CARTESIAN COORDINATES (ANGSTROEM)
---------------------------------
  C     -1.960140   -0.455709   -0.727416
  C     -1.519291    0.590148    0.288957
  C     -0.234874    0.187764    1.024977
  C      0.944282    0.050988    0.094229
  C      1.494924    1.105519   -0.486746
  C      1.452217   -1.340646   -0.125940
  H     -2.895930   -0.158573   -1.195068
  H     -2.109473   -1.419097   -0.244380
  H     -1.209469   -0.568133   -1.506079
  H     -1.356532    1.541351   -0.221084
  H     -2.313038    0.736099    1.025004
  H     -0.015330    0.951088    1.775141
  H     -0.404209   -0.757105    1.543721
  H      2.329278    1.015438   -1.161757
  H      1.133720    2.105109   -0.310793
  H      1.823261   -1.750453    0.813108
  H      0.648682   -1.987328   -0.474175
  H      2.258354   -1.353685   -0.854707

 Total Charge           Charge          ....    0
 Multiplicity           Mult            ....    1
 Number of Electrons    NEL             ....   48
 Basis Dimension        Dim             ....  174

ORBITAL ENERGIES
----------------

  NO   OCC          E(Eh)            E(eV)
   0   2.0000     -10.036660      -273.1114
   1   2.0000     -10.026784      -272.8427
   2   2.0000     -10.026622      -272.8382
   3   2.0000     -10.022566      -272.7279
   4   2.0000     -10.014530      -272.5092
   5   2.0000     -10.007324      -272.3131
   6   2.0000      -0.786523       -21.4024
   7   2.0000      -0.728630       -19.8270
   8   2.0000      -0.655674       -17.8418
   9   2.0000      -0.642918       -17.4947
  10   2.0000      -0.560103       -15.2412
  11   2.0000      -0.485970       -13.2239
  12   2.0000      -0.436924       -11.8893
  13   2.0000      -0.423607       -11.5269
  14   2.0000      -0.406724       -11.0675
  15   2.0000      -0.393055       -10.6956
  16   2.0000      -0.374928       -10.2023
  17   2.0000      -0.350574        -9.5396
  18   2.0000      -0.335809        -9.1378
  19   2.0000      -0.325299        -8.8518
  20   2.0000      -0.312848        -8.5130
  21   2.0000      -0.299648        -8.1538
  22   2.0000      -0.285750        -7.7756
  23   2.0000      -0.219800        -5.9811
  24   0.0000      -0.008298        -0.2258
  25   0.0000       0.086128         2.3437
  26   0.0000       0.115693         3.1482
  27   0.0000       0.117594         3.1999
  28   0.0000       0.124442         3.3863

MULLIKEN ATOMIC CHARGES
-----------------------
   0 C :   -0.505648
   1 C :   -0.213793
   2 C :   -0.303159
   3 C :    0.132198
   4 C :   -0.394456
   5 C :   -0.514472
   6 H :    0.145138
   7 H :    0.146146
   8 H :    0.160872
   9 H :    0.146213
  10 H :    0.141093
  11 H :    0.162845
  12 H :    0.147694
  13 H :    0.142100
  14 H :    0.140271
  15 H :    0.159666
  16 H :    0.158649
  17 H :    0.148643
Sum of atomic charges:   -0.0000000

LOEWDIN ATOMIC CHARGES
----------------------
   0 C :   -0.425210
   1 C :   -0.300216
   2 C :   -0.293350
   3 C :   -0.136169
   4 C :   -0.331746
   5 C :   -0.397230
   6 H :    0.150927
   7 H :    0.148656
   8 H :    0.155483
   9 H :    0.154756
  10 H :    0.149936
  11 H :    0.168698
  12 H :    0.159717
  13 H :    0.156983
  14 H :    0.157627
  15 H :    0.161877
  16 H :    0.160970
  17 H :    0.158290

  Mayer bond orders larger than 0.100000
B(  0-C ,  1-C ) :   0.8748 B(  0-C ,  6-H ) :   0.9659 B(  0-C ,  7-H ) :   0.9829
B(  0-C ,  8-H ) :   0.9779 B(  1-C ,  2-C ) :   0.9111 B(  1-C ,  9-H ) :   0.9846
B(  1-C , 10-H ) :   0.9708 B(  2-C ,  3-C ) :   0.8258 B(  2-C , 11-H ) :   0.9798
B(  2-C , 12-H ) :   0.9947 B(  3-C ,  4-C ) :   1.8649 B(  3-C ,  5-C ) :   0.8824
B(  4-C , 13-H ) :   0.9765 B(  4-C , 14-H ) :   0.9846 B(  5-C , 15-H ) :   0.9712
B(  5-C , 16-H ) :   0.9657 B(  5-C , 17-H ) :   0.9931

Dispersion correction           -0.004688709
FINAL SINGLE POINT ENERGY      -235.760610216236

DIPOLE MOMENT
-------------

Method             : SCF
Type of density    : Electron Density
Multiplicity       :   1
Irrep              :   0
Energy             :  -235.7634970913740062 Eh
Relativity type    :
Basis              : AO
                                X                 Y                 Z
Electronic contribution:      1.848889241       1.399136820       0.859576299
Nuclear contribution   :     -1.980166892      -1.543549914      -0.760913901
                        -----------------------------------------
Total Dipole Moment    :     -0.131277652      -0.144413094       0.098662398
                        -----------------------------------------
Magnitude (a.u.)       :      0.218685236
Magnitude (Debye)      :      0.555853695

Rotational constants in cm-1:             0.166917             0.079892             0.070101
Rotational constants in MHz :          5004.041691          2395.103583          2101.579400

                             ****ORCA TERMINATED NORMALLY****
TOTAL RUN TIME: 0 days 0 hours 0 minutes 18 seconds 773 msec
