                         Program Version 6.0.0  -   RELEASE  -
|  1> ! r2scan-3c def2/J RI DEFGRID2 scfconv6 printgap
|  2> %output
|  3>     printlevel normal
|  4> end
|  5> %cpcm
|  6>     smd true
|  7>     smdsolvent "water"
|  8> end
|  9> * xyz 0 1
| 10> C -1.9601403732 -0.4557090077 -0.7274157101
| 11> C -1.5192909355 0.5901484231 0.2889570393
| 12> C -0.2348741733 0.1877639192 1.0249768876
| 13> C 0.9442822211 0.050988133 0.0942287981
| 14> C 1.4949241826 1.1055187849 -0.4867463132
| 15> C 1.4522166928 -1.3406461935 -0.1259401481
| 16> H -2.8959298537 -0.1585730763 -1.1950678748
| 17> H -2.1094730085 -1.4190970445 -0.2443797114
| 18> H -1.2094686415 -0.5681332875 -1.5060789397
| 19> H -1.3565315536 1.5413510007 -0.2210842453
| 20> H -2.3130381088 0.73609909 1.0250037643
| 21> H -0.0153300637 0.9510877377 1.7751406837
| 22> H -0.4042088305 -0.7571054936 1.5437211698
| 23> H 2.3292776941 1.0154380044 -1.1617566846
| 24> H 1.1337198862 2.1051085697 -0.3107925897
| 25> H 1.8232614595 -1.7504525821 0.8131082496
| 26> H 0.6486819767 -1.9873277985 -0.4741745884
| 27> H 2.2583537912 -1.3536847432 -0.8547071063
| 28> *
| 29>
| 30>                          ****END OF INPUT****

CARTESIAN COORDINATES (ANGSTROEM)
---------------------------------
  C     -1.960140   -0.455709   -0.727416
  C     -1.519291    0.590148    0.288957
  C     -0.234874    0.187764    1.024977
  C      0.944282    0.050988    0.094229
  C      1.494924    1.105519   -0.486746
  C      1.452217   -1.340646   -0.125940
  H     -2.895930   -0.158573   -1.195068
  H     -2.109473   -1.419097   -0.244380
  H     -1.209469   -0.568133   -1.506079
  H     -1.356532    1.541351   -0.221084
  H     -2.313038    0.736099    1.025004
  H     -0.015330    0.951088    1.775141
  H     -0.404209   -0.757105    1.543721
  H      2.329278    1.015438   -1.161757
  H      1.133720    2.105109   -0.310793
  H      1.823261   -1.750453    0.813108
  H      0.648682   -1.987328   -0.474175
  H      2.258354   -1.353685   -0.854707

 Total Charge           Charge          ....    0
 Multiplicity           Mult            ....    1
 Number of Electrons    NEL             ....   48
 Basis Dimension        Dim             ....  174

ORBITAL ENERGIES
----------------

  NO   OCC          E(Eh)            E(eV)
   0   2.0000     -10.035770      -273.0872
   1   2.0000     -10.019900      -272.6553
   2   2.0000     -10.019292      -272.6388
   3   2.0000     -10.014630      -272.5119
   4   2.0000     -10.007535      -272.3189
   5   2.0000     -10.004180      -272.2276
   6   2.0000      -0.782194       -21.2846
   7   2.0000      -0.723188       -19.6789
   8   2.0000      -0.649753       -17.6807
   9   2.0000      -0.638276       -17.3684
  10   2.0000      -0.553801       -15.0697
  11   2.0000      -0.481328       -13.0976
  12   2.0000      -0.431373       -11.7383
  13   2.0000      -0.417511       -11.3610
  14   2.0000      -0.400599       -10.9009
  15   2.0000      -0.387658       -10.5487
  16   2.0000      -0.367750       -10.0070
  17   2.0000      -0.343256        -9.3405
  18   2.0000      -0.329778        -8.9737
  19   2.0000      -0.319780        -8.7016
  20   2.0000      -0.306470        -8.3395
  21   2.0000      -0.292136        -7.9494
  22   2.0000      -0.279734        -7.6120
  23   2.0000      -0.220389        -5.9971
  24   0.0000      -0.008233        -0.2240
  25   0.0000       0.092523         2.5177
  26   0.0000       0.122986         3.3466
  27   0.0000       0.124371         3.3843
  28   0.0000       0.131386         3.5752

MULLIKEN ATOMIC CHARGES
-----------------------
   0 C :   -0.527951
   1 C :   -0.246037
   2 C :   -0.278943
   3 C :    0.106004
   4 C :   -0.475610
   5 C :   -0.539005
   6 H :    0.155876
   7 H :    0.159042
   8 H :    0.161500
   9 H :    0.155898
  10 H :    0.152472
  11 H :    0.170144
  12 H :    0.162306
  13 H :    0.166101
  14 H :    0.164050
  15 H :    0.176486
  16 H :    0.174297
  17 H :    0.163369
Sum of atomic charges:   -0.0000000

LOEWDIN ATOMIC CHARGES
----------------------
   0 C :   -0.431651
   1 C :   -0.302197
   2 C :   -0.294594
   3 C :   -0.135235
   4 C :   -0.362862
   5 C :   -0.403744
   6 H :    0.153019
   7 H :    0.153212
   8 H :    0.154577
   9 H :    0.155702
  10 H :    0.153950
  11 H :    0.171673
  12 H :    0.165127
  13 H :    0.162314
  14 H :    0.163398
  15 H :    0.168310
  16 H :    0.167283
  17 H :    0.161717

  Mayer bond orders larger than 0.100000
B(  0-C ,  1-C ) :   0.8744 B(  0-C ,  6-H ) :   0.9644 B(  0-C ,  7-H ) :   0.9782
B(  0-C ,  8-H ) :   0.9761 B(  1-C ,  2-C ) :   0.8988 B(  1-C ,  9-H ) :   0.9888
B(  1-C , 10-H ) :   0.9681 B(  2-C ,  3-C ) :   0.8229 B(  2-C , 11-H ) :   0.9773
B(  2-C , 12-H ) :   0.9896 B(  3-C ,  4-C ) :   1.8414 B(  3-C ,  5-C ) :   0.8827
B(  4-C , 13-H ) :   0.9755 B(  4-C , 14-H ) :   0.9821 B(  5-C , 15-H ) :   0.9641
B(  5-C , 16-H ) :   0.9591 B(  5-C , 17-H ) :   0.9900

Dispersion correction           -0.004688709
FINAL SINGLE POINT ENERGY      -235.758508473676

DIPOLE MOMENT
-------------

Method             : SCF
Type of density    : Electron Density
Multiplicity       :   1
Irrep              :   0
Energy             :  -235.7613953488139202 Eh
Relativity type    :
Basis              : AO
                                X                 Y                 Z
Electronic contribution:      1.771358976       1.293551436       0.937654978
Nuclear contribution   :     -1.980166892      -1.543549914      -0.760913901
                        -----------------------------------------
Total Dipole Moment    :     -0.208807916      -0.249998478       0.176741077
                        -----------------------------------------
Magnitude (a.u.)       :      0.370590601
Magnitude (Debye)      :      0.941966448

Rotational constants in cm-1:             0.166917             0.079892             0.070101
Rotational constants in MHz :          5004.041691          2395.103583          2101.579400

                             ****ORCA TERMINATED NORMALLY****
TOTAL RUN TIME: 0 days 0 hours 0 minutes 22 seconds 532 msec
