                         Program Version 6.0.0  -   RELEASE  -
|  1> ! pbe def2-sv(p) def2/J RI DEFGRID1 loosescf d4 GCP(DFT/SV(P)) printgap
|  2> %output
|  3>     printlevel normal
|  4> end
|  5> * xyz 0 1
|  6> C 0.0630821749 -2.5611975312 0.0453952694
|  7> C -0.0649204541 -1.0735207483 -0.2172001795
|  8> O 0.8471814355 -0.3417298599 0.5928341342
|  9> C 1.8181592503 0.3735386379 0.0003955464
| 10> O 2.0136503259 0.3594090673 -1.1920587721
| 11> C 2.6247893795 1.1215208902 1.0105730919
| 12> O -1.3766466505 -0.6792848086 0.1443790911
| 13> C -1.7580900046 0.5850492756 -0.1072490681
| 14> O -1.0319273092 1.394641519 -0.6380577795
| 15> C -3.1532870218 0.8306497286 0.3624295374
| 16> H -0.690367131 -3.0882956041 -0.5297089649
| 17> H -0.0884896006 -2.7471463558 1.1042778258
| 18> H 1.0524850807 -2.8946913852 -0.2503356595
| 19> H 0.1245621545 -0.807472427 -1.269025033
| 20> H 3.304054057 0.4217048335 1.4929698401
| 21> H 3.1983826935 1.8966887343 0.5137002529
| 22> H 1.9698424812 1.5413500811 1.7672136735
| 23> H -3.1248714562 1.0245291484 1.4327907923
| 24> H -3.5620325184 1.6978974782 -0.1454806541
| 25> H -3.7586033928 -0.0534486595 0.1911972135
| 26> *
| 27>
| 28>                          ****END OF INPUT****

CARTESIAN COORDINATES (ANGSTROEM)
---------------------------------
  C      0.063082   -2.561198    0.045395
  C     -0.064920   -1.073521   -0.217200
  O      0.847181   -0.341730    0.592834
  C      1.818159    0.373539    0.000396
  O      2.013650    0.359409   -1.192059
  C      2.624789    1.121521    1.010573
  O     -1.376647   -0.679285    0.144379
  C     -1.758090    0.585049   -0.107249
  O     -1.031927    1.394642   -0.638058
  C     -3.153287    0.830650    0.362430
  H     -0.690367   -3.088296   -0.529709
  H     -0.088490   -2.747146    1.104278
  H      1.052485   -2.894691   -0.250336
  H      0.124562   -0.807472   -1.269025
  H      3.304054    0.421705    1.492970
  H      3.198383    1.896689    0.513700
  H      1.969842    1.541350    1.767214
  H     -3.124871    1.024529    1.432791
  H     -3.562033    1.697897   -0.145481
  H     -3.758603   -0.053449    0.191197

 Total Charge           Charge          ....    0
 Multiplicity           Mult            ....    1
 Number of Electrons    NEL             ....   78
 Basis Dimension        Dim             ....  160

ORBITAL ENERGIES
----------------

  NO   OCC          E(Eh)            E(eV)
   0   2.0000     -18.806224      -511.7434
   1   2.0000     -18.801649      -511.6189
   2   2.0000     -18.740973      -509.9678
   3   2.0000     -18.733851      -509.7740
   4   2.0000     -10.017605      -272.5929
   5   2.0000     -10.012543      -272.4552
   6   2.0000     -10.008111      -272.3345
   7   2.0000      -9.900285      -269.4004
   8   2.0000      -9.896248      -269.2906
   9   2.0000      -9.894783      -269.2507
  10   2.0000      -1.032186       -28.0872
  11   2.0000      -0.993821       -27.0432
  12   2.0000      -0.925034       -25.1715
  13   2.0000      -0.907632       -24.6979
  14   2.0000      -0.730490       -19.8776
  15   2.0000      -0.683393       -18.5961
  16   2.0000      -0.668908       -18.2019
  17   2.0000      -0.597577       -16.2609
  18   2.0000      -0.558855       -15.2072
  19   2.0000      -0.509046       -13.8518
  20   2.0000      -0.449929       -12.2432
  21   2.0000      -0.434555       -11.8249
  22   2.0000      -0.429714       -11.6931
  23   2.0000      -0.420565       -11.4442
  24   2.0000      -0.414080       -11.2677
  25   2.0000      -0.402169       -10.9436
  26   2.0000      -0.381265       -10.3748
  27   2.0000      -0.375462       -10.2168
  28   2.0000      -0.368843       -10.0367
  29   2.0000      -0.359520        -9.7830
  30   2.0000      -0.358868        -9.7653
  31   2.0000      -0.348048        -9.4709
  32   2.0000      -0.330748        -9.0001
  33   2.0000      -0.322688        -8.7808
  34   2.0000      -0.300038        -8.1644
  35   2.0000      -0.275622        -7.5000
  36   2.0000      -0.263100        -7.1593
  37   2.0000      -0.226061        -6.1514
  38   2.0000      -0.219150        -5.9634
  39   0.0000      -0.031261        -0.8506
  40   0.0000      -0.022050        -0.6000
  41   0.0000       0.043129         1.1736
  42   0.0000       0.056952         1.5497
  43   0.0000       0.063584         1.7302

MULLIKEN ATOMIC CHARGES
-----------------------
   0 C :   -0.221804
   1 C :    0.139696
   2 O :   -0.250263
   3 C :    0.101177
   4 O :   -0.190755
   5 C :   -0.241745
   6 O :   -0.234176
   7 C :    0.089161
   8 O :   -0.191026
   9 C :   -0.242190
  10 H :    0.118325
  11 H :    0.114777
  12 H :    0.118494
  13 H :    0.110139
  14 H :    0.132411
  15 H :    0.129104
  16 H :    0.125983
  17 H :    0.138366
  18 H :    0.129365
  19 H :    0.124962
Sum of atomic charges:    0.0000000

LOEWDIN ATOMIC CHARGES
----------------------
   0 C :   -0.343802
   1 C :    0.034071
   2 O :   -0.075517
   3 C :    0.043265
   4 O :   -0.151394
   5 C :   -0.355905
   6 O :   -0.069431
   7 C :    0.039121
   8 O :   -0.152563
   9 C :   -0.357759
  10 H :    0.134748
  11 H :    0.131287
  12 H :    0.135164
  13 H :    0.117604
  14 H :    0.149037
  15 H :    0.143155
  16 H :    0.142114
  17 H :    0.152174
  18 H :    0.143338
  19 H :    0.141294

  Mayer bond orders larger than 0.100000
B(  0-C ,  1-C ) :   1.1271 B(  0-C , 10-H ) :   0.9413 B(  0-C , 11-H ) :   0.9346
B(  0-C , 12-H ) :   0.9387 B(  1-C ,  2-O ) :   0.9530 B(  1-C ,  6-O ) :   0.9713
B(  1-C , 13-H ) :   0.8897 B(  2-O ,  3-C ) :   1.1212 B(  3-C ,  4-O ) :   2.0831
B(  3-C ,  5-C ) :   1.0918 B(  5-C , 14-H ) :   0.9229 B(  5-C , 15-H ) :   0.9392
B(  5-C , 16-H ) :   0.9312 B(  6-O ,  7-C ) :   1.1373 B(  7-C ,  8-O ) :   2.0838
B(  7-C ,  9-C ) :   1.0939 B(  9-C , 17-H ) :   0.9211 B(  9-C , 18-H ) :   0.9377
B(  9-C , 19-H ) :   0.9310

Dispersion correction           -0.016780254
FINAL SINGLE POINT ENERGY      -534.472574146244

DIPOLE MOMENT
-------------

Method             : SCF
Type of density    : Electron Density
Multiplicity       :   1
Irrep              :   0
Energy             :  -534.5524034482592697 Eh
Relativity type    :
Basis              : AO
                                X                 Y                 Z
Electronic contribution:      0.983406034       2.157129038      -3.096004907
Nuclear contribution   :     -1.470952725      -2.811984688       4.025068720
                        -----------------------------------------
Total Dipole Moment    :     -0.487546690      -0.654855651       0.929063814
                        -----------------------------------------
Magnitude (a.u.)       :      1.236809310
Magnitude (Debye)      :      3.143719430

Rotational constants in cm-1:             0.064472             0.031971             0.025261
Rotational constants in MHz :          1932.822963           958.454330           757.315731

                             ****ORCA TERMINATED NORMALLY****
TOTAL RUN TIME: 0 days 0 hours 0 minutes 13 seconds 137 msec
